default_name
 90129
  77.4473972  48.6550999  29.2441181  77.7470208  48.1749633  30.0806559
  76.8361044  49.4148410  29.5072054  78.2556594  48.8344097  28.6656203
  76.5972482  47.7214587  28.4540352  75.6026945  48.1491785  28.3274735
  77.2060059  47.4730674  27.0636148  77.6768709  48.3997631  26.7355592
  77.9594928  46.6886636  27.1348058  76.1682022  47.0592903  26.0248935
  75.4141330  46.1003918  26.2177672  76.1408625  47.7738754  24.9064080
  75.4748306  47.5468375  24.1818701  76.7862197  48.5412813  24.7851517
  76.3449344  46.4005760  29.1916703  75.2171557  46.1297430  29.5962325
  77.3950202  45.6017616  29.3925867  78.3170847  45.9147867  29.1244230
  77.2515461  44.2459752  29.9398310  76.2287575  43.8971522  29.7972643
  78.2052725  43.2737830  29.2292892  79.2005661  43.4736810  29.6261905
  77.8939490  42.2701827  29.5190548  78.2348684  43.3773057  27.7054175
  77.9350523  44.3885224  27.4303686  79.2584273  43.1999161  27.3753233
  77.3067341  42.3748250  27.0384175  77.4927101  41.3877399  27.4617080
  76.2749218  42.6656342  27.2356304  77.5442547  42.3347756  25.5326120
  77.1324969  43.2476771  25.1023018  78.6204558  42.3065860  25.3620374
  76.9077712  41.1503342  24.8873164  75.9104819  41.1764931  25.0448903
  77.0923460  41.1681476  23.8944846  77.2894866  40.3043110  25.2856090
  77.4980513  44.1858307  31.4467467  78.5193021  44.6738891  31.9347464
  76.5635838  43.5720831  32.1750532  75.7078485  43.2780966  31.7262900
  76.6917696  43.3774593  33.6239617  77.7283277  43.1525745  33.8751059
  76.2680618  44.6453868  34.3788640  76.4464485  44.5285750  35.4478038
  76.8214822  45.5093736  34.0109606  74.5186678  45.0602189  34.2054167
  74.5592857  46.1532261  34.9621093  75.8894065  42.1662913  34.1110086
  75.2348500  41.4819177  33.3175689  75.9443706  41.8993429  35.4137229
  76.5609875  42.4286917  36.0134502  75.1897602  40.7948913  35.9987713
  75.1447689  39.9671609  35.2910021  75.8549395  40.3012693  37.2878264
  75.9581605  41.1593607  37.9519980  75.1991595  39.5625780  37.7486819
  77.2257839  39.6808438  37.0429431  77.3417150  38.8075652  36.1585701
  78.1851680  40.0622381  37.7434711  73.7302120  41.1764737  36.2637186
  72.8158957  40.4464949  35.8757218  73.5227407  42.3136881  36.9288607
  74.3115812  42.8670596  37.2315319  72.1744276  42.7754703  37.2774965
  71.4169776  42.2886725  36.6631702  71.8315729  42.5299720  38.7790325
  72.5064947  43.1237377  39.3954917  70.3790980  42.9294331  39.0797473
  69.7035181  42.3357226  38.4639546  70.1628072  42.7494307  40.1327991
  70.2388572  43.9869999  38.8561706  72.0725504  41.0704156  39.1816194
  73.1207904  40.8174280  39.0225838  71.8228677  40.9373512  40.2342598
  71.4455660  40.4172894  38.5746453  72.0181544  44.2636811  36.9738696
  72.8746146  45.0694953  37.3449066  70.9320947  44.6067087  36.2822951
  70.3881829  43.8813447  35.8372037  70.5082110  45.9949410  36.1103339
  71.3380880  46.6762217  36.2981105  69.9499940  46.2717646  34.6813341
  69.2935880  45.4482827  34.4000726  69.1698814  47.5831024  34.6332973
  69.8257955  48.4071645  34.9140095  68.7943046  47.7462458  33.6231355
  68.3317440  47.5335357  35.3284020  71.0744383  46.3122360  33.6536143
  71.5947046  45.3544464  33.6456169  70.6574383  46.5068738  32.6655217
  71.7766097  47.1043767  33.9135549  69.4373494  46.2876891  37.1607405
  68.4553812  45.5500715  37.2752125  69.6466927  47.3483947  37.9360005
  70.5299148  47.8368165  37.8977629  68.6363472  47.8160319  38.8841399
  67.8474732  47.0740606  39.0076531  69.2439072  48.1276214  40.2727370
  70.0309189  48.8722123  40.1531705  68.1789512  48.6626830  41.2221572
  67.3917740  47.9184059  41.3425923  68.6293337  48.8746034  42.1918715
  67.7528542  49.5783365  40.8121307  69.8995245  46.8786730  40.8764487
  70.6942443  46.5300551  40.2169124  70.3191023  47.1235841  41.8521908
  69.1516444  46.0938525  40.9897314  67.9771419  49.0650690  38.3070388
  68.6550657  50.0596566  38.0386921  66.6606585  49.0066834  38.1178917
  66.1638717  48.1490271  38.3121282  65.9031985  50.1439223  37.5987144
  66.5334185  50.8185299  37.0192090  64.7119608  49.6961673  36.7136730
  64.0371125  49.0855563  37.3135339  63.9532683  50.9117648  36.1698297
  64.6273941  51.5226551  35.5694395  63.1213718  50.5746488  35.5514435
  63.5707043  51.5037323  37.0012868  65.1969074  48.7925553  35.5687900
  65.6801069  47.9077924  35.9832956  64.3457289  48.4891184  34.9592649
  65.9092857  49.3390352  34.9507465  65.3887833  50.9758350  38.7685734
  64.5052872  50.5363266  39.5051636  65.9648189  52.1663835  38.9384769
  66.6903434  52.4649297  38.3024079  65.5817056  53.0658280  40.0225847
  65.4089520  54.0542200  39.5967485  64.6559210  52.6925255  40.4603832
  66.6324135  53.1737767  41.1089346  67.0587211  52.1626235  41.6752235
  67.0503984  54.4065107  41.3908307  66.6688471  55.1799345  40.8651564
  68.0342181  54.6931549  42.4238994  68.4820509  53.7428226  42.7144396
  68.7957291  55.3309245  41.9750673  67.4833894  55.3773875  43.6598770
  68.1107584  56.2930378  44.1992420  66.3062236  54.9381487  44.1070816
  65.7360864  54.3330087  43.5336284  65.8063468  55.3136079  45.4284462
  66.0562456  56.3513986  45.6489915  64.7253989  55.1823648  45.4777033
  66.4609652  54.4165074  46.4649651  67.3426568  53.6141042  46.1340662
  66.0367362  54.5286951  47.7208204  65.3927044  55.2615099  47.9821723
  66.6036597  53.6900017  48.7822233  67.6859977  53.8092639  48.8314183
  65.9831047  54.0116641  50.1722369  64.8997810  54.0670633  50.0652733
  66.3411614  52.9305065  51.2052711  67.4243827  52.8748356  51.3131276
  65.8933559  53.1830870  52.1664028  65.9599310  51.9660850  50.8696319
  66.4534941  55.3964302  50.6393059  67.5126116  55.3126627  50.8829324
  66.3272342  56.0805310  49.8001610  65.6911249  55.9336210  51.8548796
  65.8173061  55.2502378  52.6946209  66.0809942  56.9152372  52.1241950
  64.6319276  56.0181039  51.6118500  66.5184014  52.1949960  48.4604204
  67.4776654  51.4536276  48.6971890  65.3954133  51.7545943  47.8989063
  64.6177140  52.3761028  47.7285822  65.2201037  50.3269021  47.6127635
  65.4657049  49.7448680  48.5010290  63.7727595  50.0184732  47.2094022
  63.0982050  50.5752211  47.8598692  63.6197173  50.3299436  46.1761238
  63.5069231  48.6355311  47.3285215  62.5982794  48.4611392  47.0724867
  66.2032688  49.8151608  46.5493459  66.8597625  48.7795735  46.7471360
  66.3107692  50.5377521  45.4354484  65.7357954  51.3585349  45.3096706
  67.2520215  50.1760192  44.3664810  67.0334431  49.1606089  44.0359288
  67.1177192  50.8656733  43.5331507  68.6977596  50.2432661  44.8368694
  69.5140875  49.3598456  44.5278289  69.0129349  51.2828169  45.6058009
  68.3401345  52.0202931  45.7593188  70.3689110  51.4575448  46.1356924
  71.0938683  51.3083077  45.3355272  70.5594802  52.8627498  46.7126882
  69.8136407  52.9927608  47.4968564  71.5568107  52.8983494  47.1510540
  70.4153846  53.9860817  45.6796142  69.3879293  53.9628218  45.3164400
  70.5959001  54.9280496  46.1975066  71.5514180  53.8535822  44.2672311
  73.0038812  54.5636387  44.9884276  73.3026144  53.9771995  45.8573042
  73.8110147  54.5637899  44.2558730  72.7935902  55.5877439  45.2967899
  70.7422012  50.3698637  47.1497956  71.8708228  49.8720533  47.1304265
  69.8007353  49.9934864  48.0180785  68.9400033  50.5172677  48.0880271
  70.0230131  48.8864577  48.9631823  70.9435286  49.1119617  49.5016045
  68.8743876  48.7809303  49.9774867  67.9473614  48.5464299  49.4542927
  69.0950046  47.9917023  50.6961992  68.7645301  49.7296657  50.5027787
  70.2409502  47.5549849  48.2365899  71.1158990  46.7706323  48.6237988
  69.4666616  47.3167221  47.1765956  68.7330941  47.9702112  46.9422239
  69.6048105  46.1082660  46.3636395  69.5369842  45.2308577  47.0067984
  68.4951631  46.0348519  45.3208614  68.5556038  46.9022504  44.6635435
  68.6089230  45.1247192  44.7319494  67.5264479  46.0250222  45.8204546
  70.9750694  46.0746690  45.6873424  71.6853986  45.0648773  45.7498428
  71.3435543  47.1900078  45.0604547  70.7063578  47.9725756  45.0196181
  72.6167462  47.2960291  44.3524916  72.6527156  46.4986646  43.6101876
  72.7186617  48.6311909  43.6358675  72.6931942  49.4393533  44.3668428
  73.6547856  48.6748380  43.0792102  71.8812539  48.7389864  42.9465000
  73.8063381  47.0944875  45.2934008  74.7576300  46.3886581  44.9550672
  73.7439409  47.7005592  46.4774213  72.9735519  48.3174674  46.6919542
  74.8174492  47.5670198  47.4578438  75.7614063  47.8702151  47.0049456
  74.5600770  48.4445808  48.6873864  74.3998033  49.4645229  48.3379158
  73.6534099  48.0797456  49.1700354  75.7104203  48.4253063  49.6871452
  75.8946926  47.3901115  49.9744017  76.5957509  48.8284913  49.1954810
  75.4023199  49.2452527  50.9239819  75.2965395  50.2914441  50.6369399
  74.4670938  48.8918177  51.3581884  76.5295073  49.1099796  51.9577574
  77.4564492  49.4438958  51.4915179  76.2932535  49.7589409  52.8010443
  76.6933822  47.7041338  52.4415377  76.9127294  47.1026989  51.6603447
  77.4433605  47.6657959  53.1169359  75.8347053  47.3946744  52.8739819
  75.0240485  46.1061133  47.8718462  76.1642042  45.6307061  47.9199090
  73.9273592  45.4036098  48.1639275  73.0251576  45.8575915  48.1582539
  73.9955589  43.9988514  48.5749405  74.6466337  43.9044265  49.4440117
  72.6008261  43.4637200  48.9448780  72.2295605  44.2382477  49.6159727
  71.9976012  43.4505185  48.0371084  72.5089216  42.0968608  49.6403348
  73.3977839  41.9554681  50.2551785  71.2682264  42.0164163  50.5170783
  70.3788738  42.1572642  49.9028206  71.2256415  41.0394374  50.9985341
  71.3099737  42.7948300  51.2789376  72.5282697  40.9339706  48.6508960
  73.4564247  40.9575008  48.0798671  72.4609222  39.9919882  49.1951704
  71.6812934  41.0211415  47.9703585  74.6348941  43.1444852  47.4814872
  75.5146864  42.3221796  47.7605337  74.1909198  43.3451754  46.2438648
  73.4217893  43.9798284  46.0833867  74.7199679  42.5935801  45.1042712
  74.6993686  41.5267383  45.3268102  73.8788160  42.8483268  43.8480529
  73.9125808  43.9350626  43.7708224  74.3746248  42.4075549  42.9831866
  72.4141141  42.3832292  43.8908167  71.9636540  42.7227697  44.8235004
  71.6323012  42.9526664  42.7124624  72.0819214  42.6131616  41.7793617
  70.5984816  42.6108841  42.7624901  71.6567079  44.0416827  42.7518101
  72.2860657  40.8571783  43.9527054  72.7824423  40.4864715  44.8495254
  71.2319245  40.5813574  43.9811749  72.7526357  40.4168651  43.0714928
  76.1993484  42.9102758  44.8581224  77.0049630  42.0029624  44.6270843
  76.5482266  44.1925365  44.9289988  75.8218998  44.8868210  45.0315544
  77.9306706  44.6507328  44.7848642  78.3393964  44.3201916  43.8299899
  77.9739846  46.1819818  44.8323879  77.4958755  46.5756186  43.9354146
  77.4557923  46.5580378  45.7145208  79.3544244  46.7573587  44.8691751
  80.1092469  46.9586468  43.7327596  81.2725646  47.4873040  44.0700718
  82.0174675  47.7197797  43.3090372  81.2970595  47.6400328  45.3818225
  82.0611895  48.0205353  45.9216586  80.1068758  47.1954909  45.9052663
  79.9319106  47.2447992  46.9800021  78.8393106  44.0309967  45.8558365
  79.9185290  43.5079018  45.5419966  78.3839816  44.0646783  47.1084366
  77.5167605  44.5458601  47.2994627  79.1178532  43.4774480  48.2372829
  80.1220216  43.8989930  48.2825043  78.4015939  43.7740802  49.5610759
  77.3511638  43.5119067  49.4347389  78.8443187  43.1389388  50.3283373
  78.5128333  45.2299870  49.9828650  79.3247835  45.9823152  49.3955226
  77.7772524  45.6205261  50.9148709  79.3057370  41.9702876  48.0950368
  80.2574775  41.4022741  48.6431725  78.4022104  41.3297796  47.3539004
  77.6106764  41.8397004  46.9884500  78.4676732  39.8877899  47.1167288
  78.9041337  39.3901799  47.9827460  77.0640131  39.3195816  46.8813001
  76.5935243  39.8705925  46.0669744  77.1516679  38.2687632  46.6052614
  76.2691309  39.4363693  48.0530423  75.3957024  39.0753849  47.8844818
  79.3946661  39.5309432  45.9500332  79.6591811  38.3505864  45.7026396
  79.8759172  40.5478080  45.2355234  79.5582650  41.4871112  45.4276321
  80.8600640  40.3523222  44.1691925  81.5948098  41.1512144  44.2692875
  81.3403703  39.3920365  44.3569599  80.3094168  40.3613487  42.7522521
  81.0208325  40.0149543  41.8045525  79.0473094  40.7542150  42.6030173
  78.4811650  40.9589650  43.4139780  78.4284963  40.8485501  41.2864455
  78.9020376  40.1390750  40.6078419  76.9326049  40.5291257  41.3626239
  76.5668682  41.2875277  42.0548393  76.5194224  40.7135313  40.3709713
  76.4970481  39.1445499  41.8468695  76.9018251  38.9561623  42.8412369
  74.9849068  39.1005063  41.9013375  74.5793853  39.2883599  40.9071734
  74.6616732  38.1180142  42.2453288  74.6232801  39.8633870  42.5907862
  77.0382153  38.0239225  40.9669556  78.1278145  38.0533694  40.9693512
  76.7004008  37.0623923  41.3535331  76.6740084  38.1534265  39.9477986
  78.6336341  42.2296889  40.6854254  78.8123268  43.2088050  41.4101513
  78.6191625  42.2929141  39.3563437  78.5794401  41.4370059  38.8216077
  78.6932735  43.5549478  38.6344106  79.2742194  44.2744701  39.2113758
  79.3667500  43.3616576  37.2730134  78.8757902  42.5337744  36.7614793
  79.2523615  44.2713765  36.6835841  80.8423753  43.0473804  37.3960977
  81.5694104  43.6983143  38.1471863  81.2963341  42.0481620  36.6454687
  82.2728308  41.7933911  36.6860378  80.6625776  41.5485178  36.0381721
  77.2964246  44.1186521  38.4485138  76.4686630  43.5228943  37.7591567
  77.0420379  45.2589211  39.0824050  77.7456970  45.6715415  39.6779783
  75.7239784  45.8920332  39.0245229  75.0472793  45.3428851  38.3698368
  75.0650071  46.0155477  40.4309862  74.0517474  46.4007504  40.3168680
  75.0171475  44.6689932  41.1071360  76.0301452  44.2833298  41.2220286
  74.5542464  44.7709599  42.0886786  74.4323977  43.9777000  40.5002728
  75.7960746  47.0299179  41.3192853  75.7737288  48.0112300  40.8453345
  75.3037448  47.0846439  42.2902210  76.8310347  46.7157819  41.4544774
  75.7631348  47.2569654  38.3464995  76.7844476  47.9567789  38.3792446
  74.6434651  47.6218370  37.7312285  73.9138966  46.9366867  37.5955886
  74.4384810  48.9619074  37.2020652  75.1894372  49.6570377  37.5775089
  74.4828812  48.9742905  35.6473484  73.8347397  48.1787710  35.2797065
  74.0221309  50.3031110  35.0814823  74.6701212  51.0991180  35.4483369
  74.0680501  50.2705893  33.9929355  72.9964699  50.4964048  35.3957414
  75.8984452  48.6590202  35.1504741  76.1976530  47.6730086  35.5059428
  75.9127299  48.6715384  34.0606398  76.5928848  49.4080296  35.5310516
  73.0878722  49.4499394  37.7238445  72.1299083  48.6760650  37.7848166
  73.0313115  50.7163924  38.1262331  73.8809850  51.2593720  38.1839174
  71.7739996  51.3481756  38.5353125  70.9723597  50.6102311  38.5654869
  71.8786831  52.0240190  39.9286222  72.6924738  52.7488219  39.9061581
  70.5700965  52.7362542  40.2927530  69.7558671  52.0119635  40.3158694
  70.6697646  53.2015194  41.2734135  70.3533272  53.5021824  39.5481279
  72.2122611  50.9935208  40.9878371  73.1651428  50.5213306  40.7487658
  72.2827322  51.4809252  41.9602416  71.4292548  50.2358193  41.0176765
  71.3780593  52.3787562  37.4853135  72.1473798  53.2967657  37.1845255
  70.1871709  52.2130893  36.9168479  69.6358275  51.3925302  37.1237362
  69.6740080  53.1612209  35.9351574  70.4783520  53.8215427  35.6109584
  69.1126862  52.4320120  34.7064946  68.2829214  51.8590258  35.1203502
  68.7274880  53.1777042  34.0110340  70.0669825  51.4868467  33.9653878
  70.4433849  50.7404145  34.6648597  69.3390579  50.7893127  32.8211063
  68.9627442  51.5351293  32.1209318  70.0286815  50.1218775  32.3043371
  68.5047401  50.2116765  33.2190393  71.2991535  52.2412437  33.4569070
  71.8294045  52.6826658  34.3007552  71.9599526  51.5489896  32.9351503
  70.9862334  53.0297115  32.7724375  68.6171834  54.0375453  36.5914946
  67.5593413  53.5511310  36.9888057  68.9318941  55.3243569  36.7226856
  69.8088377  55.6575710  36.3484697  68.0743901  56.2748329  37.4324069
  67.1957486  55.7664134  37.8293930  68.8517431  56.8966393  38.6018311
  68.9352588  56.1241998  39.3663320  69.8440349  57.1400577  38.2220884
  68.2177879  58.1483227  39.2095765  68.8532443  58.4909499  40.0262176
  68.1972923  58.9039248  38.4242457  66.8069529  57.9181193  39.7279212
  66.5630710  56.8632623  40.3537832  65.9535321  58.8029137  39.5214054
  67.5715070  57.3627223  36.4923349  68.3708906  58.0236071  35.8216427
  66.2511972  57.5626084  36.4727965  65.6579283  56.9894318  37.0555484
  65.6153624  58.5202927  35.5627323  65.9496423  58.2460165  34.5621681
  64.0859361  58.3918488  35.6216522  63.7352760  58.6719800  36.6149618
  63.6365624  59.0510763  34.8789661  63.7990490  57.3612090  35.4129024
  66.0268312  59.9698570  35.8059743  66.1847071  60.7314818  34.8585631
  66.1767361  60.3446762  37.0766612  66.0851541  59.6616069  37.8149893
  66.4278660  61.7411602  37.4485148  65.9460649  62.4058653  36.7314834
  65.8680526  62.0354057  38.8398575  66.2620086  61.2582119  39.4947375
  66.2803218  63.0007313  39.1335930  64.3470490  62.0755524  38.9564339
  63.9392595  62.9093338  38.3849296  63.9091520  61.1430370  38.6003956
  64.0184717  62.2594768  40.4182543  64.2393583  61.3166391  40.9186195
  64.6795417  63.0369774  40.8011103  62.6350844  62.6335598  40.7127360
  62.3430471  63.5651445  40.4539631  61.7486489  61.8288264  41.2975004
  62.0753616  60.5736472  41.6103291  63.0019428  60.2295274  41.4026544
  61.3946085  59.9733324  42.0533834  60.5301178  62.2768477  41.5690566
  60.2797459  63.2260029  41.3313203  59.8582284  61.6667850  42.0123251
  67.9147736  62.0921029  37.4248710  68.7715358  61.2090834  37.2986171
  68.2102650  63.3834323  37.5652931  67.4699196  64.0674814  37.5015379
  69.5890506  63.8622797  37.7021019  70.2568847  63.2387378  37.1077180
  69.7067184  65.3169355  37.2106867  70.7613749  65.5918184  37.2261248
  69.3407389  65.3400785  36.1842251  68.9095486  66.3086524  38.0580160
  68.2974245  65.9072467  39.0707863  68.9035133  67.5125466  37.7086649
  70.1294389  63.7160279  39.1347263  71.1676805  64.2908976  39.4858351
  69.4280728  62.9354234  39.9520635  68.5995255  62.4809466  39.5956095
  69.7885357  62.7195234  41.3488981  70.8710117  62.7758709  41.4636581
  69.1427646  63.7911580  42.2442958  69.5234461  63.6321688  43.2532077
  69.4837068  64.7588032  41.8761636  67.6096612  63.7644426  42.2666807
  67.2548460  64.0660795  41.2811746  67.2952724  62.7403061  42.4676935
  67.0248065  64.6889626  43.3196331  67.4557057  64.4516378  44.2923108
  67.2542516  65.7233721  43.0637988  65.5709320  64.5373236  43.4010678
  65.0139793  65.1059729  42.7793436  64.9474122  63.6975143  44.2223719
  65.6517402  62.9387215  45.0561546  66.6596912  63.0026452  45.0631235
  65.1756988  62.3017558  45.6788575  63.6197896  63.6280270  44.2199939
  63.0875861  64.2144691  43.5931406  63.1494780  62.9891155  44.8450521
  69.3229751  61.3336182  41.7902834  68.4167614  60.7598178  41.1854257
  69.9454722  60.8068481  42.8451752  70.8141216  61.2045184  43.1729034
  69.4302361  59.6102496  43.5194754  68.7536566  59.0397162  42.8832121
  70.5548564  58.6632549  44.0236016  70.1021474  57.8642195  44.6107101
  71.3311526  58.0569645  42.8490681  71.7845636  58.8554258  42.2617188
  72.1118597  57.3985965  43.2300517  70.6498236  57.4851398  42.2190611
  71.4940690  59.3779058  44.9995876  70.9256806  59.7276648  45.8613911
  72.2682178  58.6862989  45.3319627  71.9577293  60.2291236  44.5010415
  68.5346438  60.0124327  44.6994606  68.5083571  61.1835049  45.0973803
  67.8134106  59.0417714  45.2579741  67.8216978  58.1118462  44.8639313
  66.9922741  59.2851333  46.4492792  67.3315709  58.5837901  47.2115748
  67.2051761  60.3039250  46.7730624  65.4901906  59.1278338  46.2651996
  64.7910189  58.7481964  47.2089275  65.0053265  59.4316955  45.0617044
  65.6381778  59.7925351  44.3621378  63.5921553  59.2668862  44.7026442
  63.4758361  59.5880836  43.6675590  63.3537319  58.2062752  44.7823815
  62.6344212  60.0545329  45.5740241  62.6308431  61.2908960  45.5541646
  61.8333353  59.3284526  46.3507524  61.8226801  58.3245981  46.2400183
  60.8565570  59.9388891  47.2621686  60.4297244  60.8283633  46.7987586
  59.7180101  58.9571398  47.5816668  60.1700104  57.9917717  47.8093933
  59.1983491  59.3315357  48.4636419  58.7186791  58.7942712  46.4310268
  58.2182181  59.7491393  46.2701961  59.2690577  58.5171367  45.5319261
  57.6709030  57.7130850  46.7438922  57.5081956  57.6765771  47.8210610
  56.7363775  57.9682571  46.2442436  58.0997350  56.3888804  46.2890361
  58.9406944  56.3525768  45.7308527  57.4709209  55.2466396  46.5670141
  56.3774448  55.2361480  47.3275632  56.0169764  56.1028627  47.7003474
  55.9137972  54.3615265  47.5279819  57.9309906  54.1043640  46.0719086
  58.7546666  54.1062366  45.4873964  57.4552967  53.2385105  46.2819366
  61.5109383  60.5106010  48.5354701  60.8312709  61.1008922  49.3849484
  62.8253037  60.3289310  48.6652303  63.2971588  59.6171822  48.1259105
  63.6161170  61.1185998  49.6199802  62.9506274  61.6644002  50.2888036
  64.5935189  60.2651950  50.4786466  65.0932784  60.9219643  51.1906823
  63.8544037  59.1656848  51.2339345  63.3547422  58.5081984  50.5224925
  64.5659390  58.5880103  51.8239420  63.1134962  59.6138570  51.8959755
  65.6097102  59.6830294  49.6470450  66.2052902  59.1597923  50.1884394
  64.4091836  62.1704296  48.8546513  64.9403311  61.8958100  47.7735022
  64.4803422  63.3726886  49.4234006  64.0236862  63.5223116  50.3117573
  65.1819713  64.4913869  48.8110938  66.0890718  64.1350662  48.3229304
  64.2970209  65.1721378  47.7626160  64.0849182  64.4370117  46.9862777
  63.3710245  65.4398717  48.2714867  64.9029582  66.4093599  47.1337801
  66.1378921  66.3570391  46.4834548  66.6652206  65.4042299  46.4367790
  66.6979416  67.4930391  45.9005908  67.6651108  67.4432135  45.4003878
  66.0110001  68.6913528  45.9592906  66.5515256  69.8183823  45.3839328
  67.4036989  69.6574648  44.9722217  64.7833975  68.7704865  46.5951827
  64.2485969  69.7190838  46.6426377  64.2325737  67.6308815  47.1756199
  63.2636500  67.6860166  47.6718529  65.5475086  65.4807472  49.9004307
  64.6667452  66.0599999  50.5424517  66.8480348  65.6500806  50.1129861
  67.5138605  65.0841122  49.6065719  67.3545428  66.6028629  51.0912404
  66.5452612  66.9411287  51.7383406  68.4755894  65.9948362  51.9757098
  69.3141378  65.7158407  51.3376671  68.9478873  67.0034942  53.0268790
  68.1099291  67.2826296  53.6656348  69.7335911  66.5546887  53.6346144
  69.3367684  67.8920821  52.5296027  68.0021160  64.8094172  52.6265174
  68.7024012  64.4416018  53.1704961  67.8802000  67.8344612  50.3617096
  68.8691270  67.7635900  49.6303256  67.1923022  68.9543988  50.5447407
  66.3272751  68.9286861  51.0654770  67.6245199  70.2285399  49.9860437
  68.0959702  70.0741155  49.0154836  66.4110883  71.1475283  49.8006951
  65.8363457  70.6236620  49.0369319  65.8588535  71.1382629  50.7404030
  66.6440578  72.5955915  49.3601727  67.4039668  73.0350541  50.0063242
  67.1051003  72.6711402  47.9109890  66.3454486  72.2322553  47.2641442
  67.2606380  73.7134272  47.6325171  68.0397292  72.1218967  47.7974073
  65.3785155  73.3985415  49.5644567  65.1027788  73.3811282  50.6188596
  65.5465199  74.4286899  49.2503385  64.5730032  72.9652332  48.9715884
  68.6557271  70.8915556  50.9014014  68.4843654  70.9101971  52.1193984
  69.7218293  71.4324338  50.3103625  69.8828776  71.2894687  49.3235880
  70.7138373  72.1976930  51.0731597  70.3799681  72.2847861  52.1071061
  72.0895886  71.5217656  51.0579424  72.3148407  71.2988919  50.0150196
  72.8012275  72.2569203  51.4337316  72.1940960  70.2498830  51.8809915
  73.1948025  70.1906152  52.3089806  71.4579501  70.2904685  52.6838265
  71.9405157  69.0357893  51.0294414  70.8686158  68.9472199  50.8525661
  72.4563679  69.1594092  50.0772261  72.4140202  67.8058864  51.6624986
  72.7899881  67.8784625  52.5971002  72.3714474  66.6076458  51.0868425
  71.8884826  66.4724134  49.8555293  71.5527979  67.2835901  49.3561215
  71.8594958  65.5591279  49.4252168  72.8194176  65.5439839  51.7393147
  73.1918900  65.6475702  52.6723926  72.7861451  64.6350056  51.3002816
  70.8520830  73.6159929  50.5458585  71.0444096  73.8215356  49.3398997
  70.7408712  74.5781007  51.4571403  70.3548123  74.3317574  52.3573474
  71.0371415  75.9870177  51.1909698  71.9538727  76.0514568  50.6048379
  69.9034036  76.6831925  50.4108069  70.2127282  77.6873760  50.1209223
  69.7265492  76.0856812  49.5164899  68.6035226  76.7821874  51.1940434
  68.5874944  77.1756156  52.3543224  67.4940274  76.4593452  50.5306142
  66.5991864  76.5051495  50.9967273  67.5529389  76.1703022  49.5646512
  71.3597107  76.6932785  52.5061925  71.2162111  76.1009690  53.5723751
  71.7934444  77.9476424  52.4317852  71.8805744  78.4036989  51.5348347
  72.2521252  78.6635155  53.6205356  72.9389504  78.0333626  54.1855823
  72.9775877  79.9507172  53.2325603  72.9468795  80.0317928  52.1460139
  72.4302941  80.7835309  53.6741382  74.4196408  79.9884291  53.7014980
  74.9322824  79.1045305  53.3219947  74.8952504  80.8836657  53.3009370
  74.5440131  80.0090016  55.2208763  73.9548110  80.8591697  55.8988262
  75.3157644  79.0704167  55.7621750  75.4352476  79.0353033  56.7644685
  75.7786948  78.3972101  55.1683825  71.1570296  78.9743409  54.6277805
  71.4265943  79.0446984  55.8249375  69.9353015  79.1616035  54.1364293
  69.7836906  79.1153795  53.1389440  68.8061630  79.5260851  54.9938874
  69.1149196  80.2958419  55.7011659  67.6430238  80.0694747  54.1550280
  67.4627300  79.3513742  53.3550749  66.7708596  80.1124348  54.8073961
  67.8958894  81.4496899  53.5522164  68.9481703  81.5137530  53.2752659
  67.2789253  81.5505510  52.6593086  67.5595394  82.5683020  54.5305521
  66.4912062  82.5303602  54.7434451  68.1190576  82.4010766  55.4509186
  67.9159461  83.9382400  53.9608256  67.6384622  84.6920619  54.6976130
  68.9937942  83.9665800  53.8010151  67.2141825  84.2197808  52.6722043
  66.2154117  84.1939927  52.8201619  67.4812692  85.1340293  52.3361767
  67.4715006  83.5216311  51.9892157  68.3237988  78.3792326  55.8774859
  67.8406582  78.6151668  56.9859804  68.4500303  77.1467236  55.3846054
  68.8708646  77.0071225  54.4771311  67.9298965  75.9732793  56.0990166
  67.4343650  76.2641034  57.0252827  66.9186190  75.1690262  55.2236442
  66.4705851  74.3848488  55.8339152  65.8276500  76.0787403  54.6885544
  66.2749052  76.8629567  54.0777614  65.1341563  75.4970057  54.0813049
  65.2893669  76.5304405  55.5218130  67.6250435  74.4705805  54.0637844
  68.3714473  73.7795182  54.4554684  66.8946249  73.9186422  53.4722167
  68.1139942  75.2143532  53.4346340  69.0327300  75.0225269  56.5778206
  68.7819710  74.1423337  57.4026581  70.2430850  75.2199246  56.0482247
  70.3625590  76.0380581  55.4681533  71.3601168  74.2649276  56.1472283
  72.2218016  74.6837451  55.6274298  71.7635924  73.9602846  57.6037083
  71.8280495  74.9103056  58.1341842  70.9743334  73.3513701  58.0446090
  73.1018942  73.2209490  57.7158564  72.8985310  72.1505945  57.6829102
  73.7134721  73.5006286  56.8580372  73.8459875  73.5560127  58.9993744
  74.9033160  73.3445589  58.8398667  73.7144326  74.6200029  59.1961420
  73.3442059  72.7564022  60.1874970  72.3069562  73.0232127  60.3900450
  73.4071982  71.6924609  59.9591113  74.1797400  73.0579146  61.3896584
  74.1211649  74.0436640  61.6017126  73.8417547  72.5234476  62.1771931
  75.1408449  72.8103557  61.2023324  71.0361651  72.9915613  55.3576750
  71.6271110  72.7475415  54.3026374  70.1050824  72.1954394  55.8777674
  69.7874550  72.3792034  56.8187472  69.5468752  71.0441094  55.1701623
  69.5840845  71.2293186  54.0966576  70.3320265  69.7586424  55.4741802
  69.9212567  68.9746060  54.8380558  71.3625455  69.9603177  55.1818487
  70.2967203  69.3044050  56.9245701  69.2781498  68.4695438  57.3995500
  68.4972910  68.1480557  56.7103443  69.2511540  68.0491921  58.7290031
  68.4442766  67.4099790  59.0874127  70.2543789  68.4603363  59.6030964
  70.2403679  68.0478827  60.9166118  69.4947861  67.4795970  61.1233934
  71.2795461  69.2767155  59.1526298  72.0721952  69.5890244  59.8325349
  71.2944586  69.6993982  57.8215772  72.0937242  70.3491104  57.4649980
  68.0890249  70.8842592  55.5791543  67.7148754  71.2635325  56.6896159
  67.2728935  70.3415921  54.6754841  67.5905461  70.2241886  53.7239524
  65.8765517  70.0062761  54.9905376  65.7776374  69.5844101  55.9907097
  64.9091925  71.2349920  54.8668349  65.2640458  72.0188230  55.5360041
  64.8532357  71.7733442  53.4357267  64.4980034  70.9901630  52.7659967
  64.1724177  72.6235059  53.3931551  65.8493681  72.0904305  53.1270551
  63.4979477  70.8796419  55.3684428  63.5486747  70.5794316  56.4150577
  62.8476972  71.7490512  55.2714825  63.0967379  70.0584552  54.7744866
  65.3844446  68.8433327  54.1336378  65.5870321  68.8286991  52.9187855
  64.7527661  67.8659175  54.7772650  64.7259120  67.8617034  55.7868988
  64.0972967  66.7759775  54.0636316  64.7267763  66.4445300  53.2378003
  63.8553181  65.5922051  54.9986671  63.4821439  65.9980882  55.9389326
  63.0956615  64.9492353  54.5541317  65.1090531  64.7850538  55.2601018
  65.9034567  64.6031644  54.3134608  65.2855869  64.3211534  56.4077138
  62.7623918  67.2545003  53.5038149  61.8589288  67.6131182  54.2727453
  62.6491038  67.2573547  52.1755526  63.4621396  67.0567943  51.6108868
  61.3986646  67.6233142  51.4925530  60.7711796  68.2020976  52.1703225
  61.6750793  68.4648521  50.2424879  62.4142980  67.8805865  49.6945018
  60.7487205  68.5069784  49.6696137  62.2058279  69.8847236  50.4591464
  63.1541465  69.8363997  50.9943636  62.4153715  70.5701047  49.1184372
  61.4673324  70.6192192  48.5827989  62.7929986  71.5796043  49.2809464
  63.1362375  70.0035987  48.5289260  61.2649296  70.7070449  51.3207682
  61.1522597  70.2297589  52.2942172  61.6743071  71.7085643  51.4529430
  60.2915856  70.7741739  50.8347702  60.5743282  66.3938353  51.1329335
  59.4017053  66.5093264  50.7593385  61.2054236  65.2259125  51.2453291
  62.1958782  65.2224067  51.4430324  60.5234599  63.9397187  51.0941933
  59.4843334  64.1151947  50.8157629  61.0161108  63.3622173  50.3119615
  60.5610397  63.1490465  52.3901834  60.4297847  63.7217844  53.4806280
  60.7517395  61.8360053  52.2826188  60.8719081  61.4194944  51.3703812
  60.7942336  60.9596116  53.4584396  59.8122071  60.9611005  53.9314310
  61.0383843  59.9485686  53.1324307  61.8287930  61.4156421  54.4682104
  62.9290819  61.8180829  54.0817500  61.4900911  61.3437579  55.7581196
  60.6061878  60.9376678  56.0299747  62.3462061  61.9073555  56.8041247
  63.3814968  61.9427972  56.4649843  61.8888119  63.3341858  57.1322798
  61.7478050  63.8792479  56.1989398  60.9415261  63.2826788  57.6690262
  62.8487432  64.0061801  57.9314604  62.5401143  64.8948476  58.1228190
  62.4065220  61.0936958  58.1036703  63.4953024  60.8813354  58.6675199
  61.2443910  60.6589273  58.5857314  60.3903912  60.8147493  58.0694919
  61.1499517  60.0630782  59.9219705  61.9124960  60.4993782  60.5671587
  59.7674077  60.3166603  60.5527748  59.0539154  59.8037764  59.9078112
  59.7040781  59.9077391  61.5611759  59.4462347  61.7852993  60.5867245
  58.5616392  62.3435819  59.6621877  58.0736693  61.6905740  58.9386095
  58.2991759  63.7082183  59.6543445  57.5929595  64.1385988  58.9443214
  58.9401791  64.5253294  60.5798224  58.6985330  65.8743480  60.5820156
  58.0733372  66.1445313  59.9054576  59.8364756  64.0000319  61.4965449
  60.3412790  64.6471921  62.2138020  60.0892965  62.6338487  61.4955773
  60.7962458  62.2099142  62.2087409  61.4859854  58.5837231  59.9802126
  61.1280764  57.8146293  59.0854921  62.2095098  58.2121656  61.0320122
  62.6245040  58.9260779  61.6135692  62.4647243  56.8118653  61.3652591
  61.7726701  56.1421304  60.8547541  63.9255834  56.3713293  61.0288713
  64.0688821  55.3459936  61.3698279  64.1889116  56.4493016  59.5307369
  64.0462509  57.4745025  59.1891055  65.2127522  56.1373139  59.3245461
  63.4964475  55.7919682  59.0048967  64.9566859  57.2083120  61.8065464
  64.7950761  57.0817820  62.8770483  65.9627195  56.8765452  61.5497841
  64.8435844  58.2602535  61.5443862  62.1931904  56.6081154  62.8558668
  62.1680757  57.5742044  63.6245567  61.9911083  55.3613619  63.2664000
  62.0186662  54.5825740  62.6238820  61.7214559  55.0877374  64.6734672
  62.3996709  55.7030503  65.2646640  60.6924428  55.3849890  64.8756373
  61.9013847  53.6405750  65.0670299  62.2975073  52.8033203  64.2416230
  61.6061111  53.3287180  66.3387169  61.0992647  54.2599951  67.3592494
  60.4104384  54.9706419  66.9025222  61.9302396  54.8003670  67.8126564
  60.4243204  53.3474732  68.3205335  59.3805127  53.2298483  68.0294512
  60.4758066  53.7791441  69.3200888  61.1492010  52.0596884  68.2637148
  60.4337616  51.2498053  68.4063152  61.9337987  51.9875092  69.0169055
  61.7605887  51.9733348  66.8626245  62.8254041  51.7410543  66.8802951
  61.0251947  50.9276097  66.0225866  59.9163469  51.1870053  65.5350915
  61.6659502  49.7632953  65.8853191  62.5844440  49.7378407  66.3046286
  61.2479947  48.6187913  65.0340343  61.8893652  47.7546581  65.2072878
  59.7578249  48.1742201  65.1909561  59.6482236  47.1899170  64.7357250
  59.3226067  48.1084778  66.6644079  59.4314965  49.0925918  67.1202173
  58.2802132  47.7951620  66.7222712  59.9471867  47.3910153  67.1966183
  58.9018150  49.0421093  64.4335379  57.9896113  48.7611544  64.5362466
  61.6005600  48.7560239  63.5489370  61.4148265  47.8092431  62.7807272
  62.1202260  49.9135689  63.1456335  62.1763696  50.7023253  63.7739729
  62.5653272  50.0938879  61.7670052  62.0561627  49.3753329  61.1247207
  62.2541691  51.5073000  61.2634163  62.7952135  52.1968895  61.9113642
  62.6516475  51.5735797  60.2506390  60.7645873  51.8773606  61.2532941
  60.2391727  51.1822496  60.5984193  60.3675563  51.7933144  62.2649288
  60.5234306  53.2945785  60.7522165  61.4641213  54.0097116  60.4103866
  59.2557370  53.7078057  60.7154993  59.0408050  54.6398350  60.3911119
  58.5165686  53.0867822  61.0122504  64.0629655  49.7954366  61.6980818
  64.8789096  50.6686894  61.3987312  64.4179201  48.5421186  61.9646944
  63.7114040  47.8337123  62.1028786  65.8138619  48.1861122  62.2119327
  66.3067144  48.9797177  62.7735250  65.8916692  46.8905751  63.0246588
  65.3628615  46.0970101  62.4967228  66.9414467  46.6177026  63.1323978
  65.2848712  47.0407891  64.4084929  65.6298985  47.9654567  65.1533472
  64.3655457  46.1417239  64.7528769  63.9285280  46.1936089  65.6619552
  64.1092748  45.4118304  64.1035068  66.6952848  48.1122616  60.9691544
  67.9094877  48.3255980  61.0551949  66.0887482  47.8420076  59.8131349
  65.1087940  47.5981312  59.7954319  66.8513930  47.7552211  58.5591573
  67.7638357  47.1832303  58.7276031  66.0345098  47.0627027  57.4615257
  65.1266283  47.6449794  57.3040315  66.6309954  47.0668055  56.5492274
  65.6634625  45.6329893  57.8171552  66.5886653  45.0780839  57.9726568
  65.0949570  45.6583037  58.7468125  64.8392004  44.9506323  56.7381863
  63.8496622  45.4038986  56.6793403  65.3373236  45.0402846  55.7728184
  64.6861876  43.5301339  57.0568559  65.3947488  42.9045507  56.7009260
  63.6934319  43.0193895  57.7772983  62.7278356  43.8019176  58.2448243
  62.7473675  44.7931081  58.0517964  61.9783148  43.4023184  58.7913029
  63.6623707  41.7178590  58.0276493  64.3936166  41.1202415  57.6695532
  62.9076045  41.3299293  58.5753145  67.3920698  49.1061413  58.0795019
  68.5807673  49.2221734  57.7656294  66.5332333  50.1249262  58.0291533
  65.5421432  49.9693452  58.1459198  66.9860671  51.4662196  57.6501604
  67.6315187  51.4327110  56.7724540  65.7999724  52.4624817  57.3896621
  65.1933257  52.0699782  56.5735609  64.9263658  52.6379528  58.6364626
  65.5322574  53.0308885  59.4529168  64.1163981  53.3339523  58.4182018
  64.5081917  51.6740021  58.9263397  66.3075212  53.8182865  56.8822998
  65.4450736  54.4844418  56.8594523  67.0243556  54.1780063  57.6204391
  66.9641301  53.7913658  55.5087919  66.2477127  53.4321658  54.7699947
  67.2883989  54.7969014  55.2407487  67.8269939  53.1257280  55.5309811
  67.9891729  52.0184965  58.6676955  68.9546978  52.6779401  58.2977956
  67.7748077  51.7274359  59.9474038  66.9356824  51.2437444  60.2337787
  68.6990896  52.1826384  60.9825557  68.8755864  53.2527421  60.8738066
  68.1199949  51.9215341  62.3748027  67.8358837  50.8699760  62.3347340
  68.9156907  52.0547010  63.1077657  66.9041821  52.7642685  62.7815594
  66.1755060  52.7581576  61.9709456  66.2700385  52.1891065  64.0363169
  66.9980194  52.1953173  64.8475530  65.4077397  52.7934200  64.3180023
  65.9486630  51.1652708  63.8450609  67.2825491  54.2320198  62.9881474
  67.6879136  54.6372371  62.0610131  66.3970852  54.7990701  63.2753909
  68.0326323  54.3070636  63.7754483  70.0833104  51.5388742  60.8314348
  71.1017523  52.2143393  60.9866826  70.1051613  50.2422207  60.5240892
  69.2345065  49.7326061  60.4755878  71.3558935  49.4991388  60.3476345
  72.0285378  49.7067011  61.1798405  71.0829471  47.9830042  60.3013417
  70.7290452  47.7067586  61.2945894  70.2806351  47.8399125  59.5775183
  72.2866230  47.0934348  59.9180196  73.1993574  47.6264033  60.1844052
  72.2231602  46.1713361  60.4957813  72.3090209  46.7582355  58.4218466
  72.3668862  47.6846262  57.8504003  73.1840291  46.1445698  58.2076635
  71.1106035  46.0265392  58.0087774  70.5889523  45.5713862  58.7441787
  70.6633103  45.9285781  56.7579863  71.3101752  46.5047359  55.7511968
  72.1557175  47.0270065  55.9311737  70.9535632  46.4179543  54.8102417
  69.5613486  45.2379432  56.5088538  69.0672794  44.7902299  57.2675029
  69.2199769  45.1620565  55.5613279  72.1108842  49.9735480  59.1028177
  73.3243058  50.1919042  59.1520588  71.3925212  50.1221794  57.9897372
  70.4231053  49.8393277  57.9716476  71.9966126  50.6063276  56.7493441
  72.8421866  49.9730702  56.4808504  70.9761297  50.5763774  55.6002194
  70.7456037  49.5138733  55.5224887  70.0882040  51.1172872  55.9274877
  71.4201893  51.1045432  54.2299870  71.7101685  52.1486572  54.3476261
  72.6016757  50.3065690  53.6526161  72.3122852  49.2623748  53.5342506
  72.8793258  50.7183406  52.6823298  73.4518382  50.3727223  54.3315475
  70.2369573  51.0945716  53.2722639  69.4444865  51.7307856  53.6663721
  70.5533806  51.4699512  52.2990899  69.8645745  50.0758280  53.1646003
  72.5858635  52.0044817  56.9231560  73.7244894  52.2610962  56.5240871
  71.8146252  52.9084867  57.5230198  70.8659262  52.6771088  57.7809613
  72.2786630  54.2719917  57.7469929  72.5786144  54.6834100  56.7832174
  71.1629512  55.1248636  58.3107274  70.8579590  54.7307147  59.2801223
  71.5133647  56.1501024  58.4298744  70.3127480  55.1089641  57.6288176
  73.5111783  54.3120436  58.6619569  74.4607982  55.0521107  58.3977966
  73.4993760  53.5042599  59.7189939  72.6818549  52.9449144  59.9162023
  74.6210508  53.4513312  60.6605847  74.8301620  54.4539455  61.0335942
  74.3001988  52.5432948  61.8512169  73.3156105  52.8283188  62.2219545
  74.2654444  51.5192150  61.4795278  75.3179953  52.6384318  62.9855948
  76.2905963  52.3273059  62.6043486  75.3724403  53.6760295  63.3150318
  74.9295561  51.7586380  64.1534163  73.9206881  52.0207481  64.4721364
  74.9495314  50.7172023  63.8323058  75.8958324  51.9498879  65.3175428
  76.8732000  51.5669800  65.0238855  75.9733959  53.0156079  65.5327729
  75.4276036  51.2325796  66.5315608  75.3560767  50.2449848  66.3324624
  76.0863081  51.3776397  67.2833361  74.5221573  51.5875385  66.8040864
  75.9048685  52.9849890  59.9647551  76.9821971  53.5480266  60.1927655
  75.7810481  51.9735389  59.1109728  74.8907014  51.5086935  59.0046672
  76.9242063  51.4624143  58.3565307  77.7241456  51.1931870  59.0462502
  76.5399463  50.2231395  57.5458426  76.0398868  49.5277415  58.2199802
  75.8442440  50.5381604  56.7681151  77.7427092  49.5336219  56.9039003
  78.2824599  50.2754967  56.3153497  78.3807818  49.1782111  57.7130021
  77.3580219  48.3702323  56.0175932  77.9091758  48.2819534  54.8955677
  76.5184856  47.5445396  56.4425759  77.5069707  52.5303699  57.4303635
  78.7223802  52.5679927  57.2043058  76.6405286  53.4001694  56.9114752
  75.6516610  53.2687142  57.0694621  77.0634253  54.4827032  56.0201482
  77.9010203  54.1495766  55.4073183  75.9117962  54.8993277  55.0927726
  75.1335067  55.1855260  55.8002011  76.2205405  55.7736186  54.5197172
  75.3658430  53.8280528  54.1372904  75.2036593  52.9052548  54.6942833
  74.0512358  54.2854201  53.5195907  74.2127262  55.2079839  52.9620105
  73.6783882  53.5144689  52.8452616  73.3202776  54.4616509  54.3087316
  76.3865609  53.4554762  53.0486345  77.2911175  53.0661896  53.5158954
  75.9598288  52.6949310  52.3947446  76.6330992  54.3409056  52.4626886
  77.6301161  55.6882067  56.7751268  78.0730878  56.6610961  56.1625525
  77.6164650  55.6158077  58.1032281  77.1942082  54.8166398  58.5539266
  78.1964542  56.6616685  58.9464754  78.6088787  56.1661893  59.8253983
  79.0045793  57.1169736  58.3739979  77.2375168  57.7476642  59.3964512
  77.6727719  58.8284138  59.8115445  75.9380126  57.4576441  59.3291531
  75.6466923  56.5671991  58.9518740  74.9028510  58.4261038  59.7035172
  75.3031770  59.4380347  59.6415975  73.6979124  58.3158763  58.7561663
  73.3402505  57.3031250  58.9419406  72.9442417  59.0324299  59.0827109
  73.9601846  58.4981494  57.2548363  74.7015915  57.7686120  56.9289654
  72.6698567  58.2949149  56.4712881  71.9280666  59.0244434  56.7963025
  72.8658622  58.4262224  55.4071261  72.2909819  57.2884388  56.6489403
  74.5761661  59.8661427  56.9339030  75.5266437  59.9690485  57.4574507
  74.7429750  59.9471056  55.8597889  73.8971314  60.6555580  57.2561361
  74.4598686  58.2740648  61.1586226  74.6410595  57.2161298  61.7641698
  73.8888351  59.3445237  61.7102560  73.7933587  60.1803350  61.1513256
  73.3689543  59.3613493  63.0770924  73.3841539  58.3521578  63.4886756
  74.2226778  60.2661870  63.9688787  74.2832614  61.2271922  63.4580970
  73.6694293  60.3847275  64.9005248  75.6244669  59.7654045  64.2729299
  75.5482018  58.7465734  64.6527556  76.1943219  59.7645049  63.3437563
  76.3293624  60.6354979  65.2974869  76.3479745  61.8756813  65.1255550
  76.8668624  60.0798995  66.2797603  71.9502238  59.9152295  63.0640733
  71.5841062  60.6437829  62.1426245  71.1687016  59.5733879  64.0885655
  71.4965153  58.8923938  64.7585540  69.8213829  60.1253013  64.2609392
  69.5348760  60.7012859  63.3810217  68.7497155  59.0269267  64.5060420
  67.7720393  59.5058194  64.5599980  68.7451712  57.9832531  63.3863052
  69.7224444  57.5035741  63.3320398  67.9830757  57.2317214  63.5924838
  68.5267546  58.4702223  62.4359075  68.9867595  58.3810109  65.7659122
  68.3207291  57.7046089  65.9090348  69.7571684  61.1098709  65.4213569
  70.6603948  61.1615481  66.2688098  68.6855751  61.8948287  65.4427610
  68.1161396  61.9746924  64.6124211  68.3356214  62.7073032  66.6016395
  68.8129557  62.2950148  67.4906105  68.7993368  64.1573782  66.4246494
  68.7706978  64.6202662  67.4110640  69.8310872  64.1088612  66.0764577
  67.9788628  64.9822160  65.4566872  66.9122830  65.7658768  65.9053701
  66.6762023  65.7736027  66.9694686  66.1590831  66.5253985  65.0223431
  65.3289953  67.1326047  65.3833924  66.4704554  66.5118118  63.6780389
  65.7287371  67.2635515  62.8057176  65.0254587  67.7540844  63.2374312
  67.5194525  65.7446048  63.2023537  67.7592821  65.7312186  62.1391495
  68.2704314  64.9861400  64.0943222  69.1019043  64.3823411  63.7307568
  66.8276811  62.6229478  66.8250877  66.0850619  62.2630419  65.9112543
  66.3866895  62.9490736  68.0348292  67.0461450  63.2357344  68.7440847
  64.9746671  62.8535962  68.3996176  64.5105809  62.0261080  67.8629739
  64.8225900  62.6081478  69.9035773  65.4343153  63.3567380  70.4070693
  63.7728033  62.7758397  70.1442580  65.2333429  61.2224098  70.3696954
  64.5962053  60.4781400  69.8919727  66.2720613  61.0423867  70.0926436
  65.0865094  61.1200461  71.8837686  65.8191727  61.7837078  72.3429599
  64.0820389  61.4476314  72.1517730  65.3056406  59.7044745  72.3810819
  64.5659638  59.0517437  71.9174859  66.3059349  59.3823096  72.0917371
  65.1702811  59.6333126  73.8676998  64.2433122  59.9313877  74.1359899
  65.3201796  58.6827096  74.1742685  65.8558764  60.2377506  74.2974823
  64.1856879  64.0979120  68.0070224  64.5933917  65.2211360  68.3070251
  63.0535231  63.8774590  67.3377152  62.8789117  62.9464057  66.9873582
  62.0603496  64.9215186  67.0630103  62.4812617  65.7629066  66.5125573
  60.8719938  64.3278387  66.2367532  60.5068750  63.4395190  66.7521906
  59.7313870  65.3303976  66.0813131  60.0956523  66.2188577  65.5655124
  58.9264289  64.8787205  65.5015452  59.3564801  65.6105040  67.0657352
  61.3584150  63.8696616  64.8758574  62.1231622  63.1032532  65.0018806
  60.5223829  63.4584246  64.3101419  61.7799131  64.7174335  64.3357435
  61.5668246  65.4756847  68.4067700  61.3643781  64.7153954  69.3533530
  61.3967158  66.7938864  68.4975901  61.6107980  67.4005934  67.7190179
  60.9881921  67.4050967  69.7599880  61.6212651  67.0321527  70.5651156
  61.1143468  68.9236178  69.7045581  62.1367595  69.1677849  69.4161938
  60.4225110  69.3288323  68.9661379  60.8239392  69.5639133  71.0398301
  61.4830823  69.2614663  72.0310098  59.8158304  70.4372078  71.0798714
  59.5811018  70.8933051  71.9499159  59.2921247  70.6381210  70.2399505
  59.5768462  67.0339743  70.2162391  58.5967917  67.3576931  69.5409760
  59.4874060  66.3538516  71.3612534  60.3214877  65.9521581  71.7650468
  58.1983440  66.0689742  72.0009697  57.4653230  66.8086793  71.6790756
  57.6787183  64.6643222  71.6268003  58.0064979  64.4481868  70.6099694
  58.1305333  63.9485128  72.3135174  56.1483682  64.5533643  71.7056798
  55.8533723  64.8323066  72.7172476  55.7522290  65.2819244  70.9983093
  55.5949037  63.1785188  71.3786326  56.2618077  62.1563917  71.6536914
  54.4647083  63.1188068  70.8480606  58.2793809  66.2540358  73.5241408
  57.6201334  65.5457302  74.2887060  59.0867854  67.2223021  73.9535978
  59.6259333  67.7577207  73.2882063  59.2718830  67.4995605  75.3826779
  59.3891061  66.5801610  75.9563176  60.5095402  68.4038467  75.6357909
  60.3837164  69.3312973  75.0771291  60.6652531  68.7221124  77.1221766
  60.7915952  67.7951154  77.6814754  61.5395064  69.3563634  77.2688300
  59.7758887  69.2422116  77.4780270  61.7830613  67.7485164  75.1024465
  61.6848831  67.5822457  74.0296850  62.6350474  68.4014471  75.2919214
  61.9388202  66.7938060  75.6048089  58.0211779  68.1487234  75.9822521
  57.5491546  67.7466053  77.0465711  57.4943948  69.1517119  75.2859477
  57.9461999  69.4462068  74.4319897  56.3423617  69.9198848  75.7624306
  56.2662048  69.8472745  76.8473394  56.5067023  71.3999625  75.3793638
  56.3925270  71.4641060  74.2972599  55.6968792  71.9464996  75.8626689
  57.8593264  72.0160128  75.7906120  57.6890515  73.0783479  75.9654019
  58.1587892  71.5382665  76.7234462  58.9682991  71.8417747  74.7494210
  58.7771058  71.1101002  73.7488719  60.0503432  72.4490436  74.9362446
  55.0174656  69.3257891  75.2418475  55.0113621  68.2197720  74.7032697
  53.9060941  70.0485206  75.4055561  53.9644485  70.9877954  75.7722398
  52.5733535  69.4902295  75.1258433  52.5426083  68.4451577  75.4340298
  51.4866723  70.2588916  75.8895975  51.4667679  71.2672630  75.4762089
  50.5411988  69.7604097  75.6758324  51.6920058  70.3325053  77.3973181
  51.5498313  69.3364794  77.8166266  52.7107633  70.6667502  77.5935723
  50.7095020  71.2978355  78.0407944  49.6958644  71.0082949  77.7636589
  50.8187620  71.2443933  79.1239867  50.9355458  72.6786158  77.6145565
  51.7740477  72.8561348  77.0802335  50.1205670  73.6978868  77.8744357
  48.9984800  73.5152277  78.5677036  48.7596626  72.5926233  78.9021696
  48.3913368  74.3001214  78.7559019  50.4314950  74.9102215  77.4442330
  51.2840146  75.0542617  76.9221575  49.8148293  75.6857884  77.6399828
  52.2096378  69.4720184  73.6424673  52.5904836  70.3703809  72.8879454
  51.4648480  68.4413249  73.2454484  51.3040330  67.6834804  73.8934527
  50.8660194  68.3528317  71.9097080  51.5578223  68.7439902  71.1637168
  50.5543101  66.8907601  71.5698140  49.9390100  66.5974520  72.4203876
  49.9398509  66.9185018  70.6699416  51.6896566  65.8713168  71.3833824
  52.3786386  66.2689769  70.6382173  52.4493966  65.5932794  72.6836422
  51.7611171  65.1951333  73.4291955  53.2398370  64.8668411  72.4949835
  52.8887626  66.5196856  73.0535470  51.1273846  64.5719170  70.8151789
  50.6580497  64.7692622  69.8513952  51.9354638  63.8521508  70.6846187
  50.3863393  64.1646295  71.5029781  49.5751624  69.1669395  71.8932214
  49.0343742  69.4851352  72.9512798  49.0792156  69.5088794  70.7064060
  49.5837530  69.2891026  69.8595060  47.8064889  70.2330956  70.5907488
  47.3049232  70.2872543  71.5569775  48.0114858  71.6661832  70.0339927
  48.6528275  71.6126004  69.1542711  46.6696377  72.3004777  69.6498689
  46.0278820  72.3548276  70.5292416  46.8397011  73.3049070  69.2621822
  46.1859552  71.6933053  68.8846943  48.7443898  72.5578921  71.0422620
  48.0340333  72.8188717  71.8267262  49.5572757  71.9707548  71.4695627
  49.3102424  73.8353029  70.4222051  48.4978341  74.4232269  69.9950774
  49.8158998  74.4197866  71.1908329  50.0210752  73.5751097  69.6379118
  46.8283544  69.5013762  69.6751098  47.2059916  69.0775153  68.5839814
  45.5782153  69.3622861  70.1250787  45.3819704  69.5281828  71.1018415
  44.4757425  68.9292194  69.2573306  44.8724989  68.6230323  68.2893776
  43.7194013  67.7411546  69.8767716  44.4241071  66.9386255  70.0945699
  43.2227446  68.0476536  70.7973641  42.6593819  67.1533482  68.9923399
  41.5125582  66.5730058  69.4917185  40.7653378  66.1436252  68.4888846
  39.8140557  65.6467428  68.6793293  41.3811089  66.4310501  67.3568453
  41.0452928  66.2234306  66.4272101  42.5666414  67.0655271  67.6436632
  43.2217373  67.3882617  66.8344704  43.5609129  70.1324357  69.0547393
  43.0370722  70.6908052  70.0190569  43.4086104  70.5526417  67.8004332
  43.8871752  70.0686054  67.0542536  42.5840185  71.7134648  67.4582928
  42.3175040  72.2588472  68.3636255  43.3518542  72.6548218  66.5287530
  44.2975293  72.9005806  67.0118685  43.5479657  72.1967725  65.5593041
  42.6587958  73.9557002  66.2560783  42.8225688  75.0686454  67.0541061
  42.1123043  76.0686705  66.5629817  42.1007583  77.0375873  67.0621468
  41.5052443  75.6513443  65.4660428  40.8963671  76.2008952  64.8766684
  41.8356571  74.3344740  65.2483571  41.4366409  73.8086770  64.3809328
  41.3184536  71.2110432  66.7831371  41.3755632  70.6019088  65.7121284
  40.1810357  71.4570371  67.4241694  40.2043529  71.9310362  68.3157301
  38.9015071  70.9545061  66.9425054  38.8484041  70.8718743  65.8569404
  38.5638179  69.5621698  67.5663888  39.3441814  68.8588514  67.2757429
  38.4789671  69.6268144  69.0894277  37.6984474  70.3296373  69.3808549
  38.2424081  68.6382397  69.4829508  39.4353841  69.9587855  69.4933626
  37.2835189  68.9764603  66.9630665  37.4118902  68.8518715  65.8878454
  37.0767101  68.0079571  67.4184029  36.4495845  69.6521650  67.1530072
  37.8096320  72.0015806  67.1921648  37.7900316  72.6540438  68.2342653
  36.9332453  72.1677520  66.2005951  37.0581341  71.6240750  65.3586227
  35.8766824  73.1940881  66.2188998  35.5043819  73.3495102  65.2063113
  34.7051158  72.7687613  67.1117502  35.1193183  72.4757159  68.0764573
  34.0614876  73.6386864  67.2424140  33.8925791  71.6193514  66.5395919
  33.9713961  71.6455843  65.4527614  34.3073526  70.6822400  66.9109238
  32.4279850  71.7217170  66.9446589  31.9353321  70.7834032  66.6897874
  32.3803067  71.8753861  68.0227183  31.7224717  72.8767107  66.2339709
  32.3531793  73.7619940  66.3151007  31.6058383  72.6093375  65.1837294
  30.3854500  73.1642563  66.8242017  30.4933437  73.4124508  67.7972681
  29.9557395  73.9310886  66.3267912  29.8007255  72.3441941  66.7487412
  36.4002089  74.5844367  66.6027746  35.7820812  75.3140610  67.3860928
  37.5554045  74.9309217  66.0400666  38.0524688  74.2523759  65.4809583
  38.1384317  76.2568739  66.1969330  38.8697070  76.3615179  65.3954436
  37.3244870  76.9646901  66.0401226  38.8111626  76.5635662  67.5224446
  39.1260360  77.7230060  67.7800098  39.0289085  75.5397892  68.3530206
  38.7031220  74.6188105  68.0965821  39.6903508  75.7079005  69.6568786
  40.1364102  76.7007783  69.7145318  38.6874501  75.5545680  70.8041791
  38.2668567  74.5526515  70.7183667  39.2587119  75.6302262  71.7294011
  37.5583044  76.5801158  70.8188629  37.9847371  77.5794283  70.7315100
  36.8969702  76.3926404  69.9729361  36.7655473  76.4785297  72.1145783
  36.3751958  75.4646022  72.2021899  37.4381225  76.6816396  72.9479380
  35.6133050  77.4685164  72.1412606  35.9980154  78.4580370  71.8943851
  34.8783096  77.1682897  71.3944374  34.9693466  77.5073174  73.4834026
  35.6501358  77.7859108  74.1755091  34.2087481  78.1717548  73.4727777
  34.6124200  76.5906016  73.7121702  40.8281676  74.7019330  69.8446853
  40.7329122  73.5678263  69.3641154  41.8739020  75.1151957  70.5607708
  41.8979289  76.0704819  70.8878034  43.0323970  74.2547722  70.8376133
  43.0355504  73.4100057  70.1488037  44.3398816  75.0339023  70.6627613
  44.2558328  75.9884159  71.1823177  45.1570926  74.4563535  71.0948532
  44.6010248  75.2661931  69.2847478  45.4223437  75.7546049  69.1926121
  42.9831498  73.6373692  72.2318017  42.6783426  74.3201772  73.2151285
  43.3117743  72.3481930  72.2999478  43.5573521  71.8722212  71.4436525
  43.3118268  71.5793442  73.5461237  43.1626837  72.2462176  74.3953206
  42.1775178  70.5460198  73.5289796  42.3850508  69.8530027  72.7136536
  42.2162041  70.0115507  74.4781614  40.8031381  71.1434531  73.3437828
  40.2661065  71.3237069  72.0679021  40.8554058  71.0202930  71.2025895
  39.0030251  71.8792368  71.8892459  38.5966002  72.0187216  70.8875151
  38.2618752  72.2572923  72.9958116  37.0151810  72.8034115  72.8003060
  36.7758029  72.8694197  71.8729762  38.7669981  72.0866475  74.2729197
  38.1824837  72.3839861  75.1435707  40.0369134  71.5282583  74.4414210
  40.4420063  71.3880075  75.4435835  44.6589436  70.8717440  73.7204583
  44.9111147  69.8622605  73.0544540  45.5364402  71.4083181  74.5936787
  45.3548147  72.6388825  75.3840516  44.7832483  72.4169665  76.2852538
  44.8226879  73.3825735  74.7908706  46.7549294  73.0461169  75.6811309
  46.7723884  73.5606895  76.6418646  47.0944201  73.7256175  74.8993852
  47.5785209  71.8239434  75.7100810  47.6212553  71.4705152  76.7403049
  48.5911093  71.9757173  75.3362775  46.8456436  70.7957912  74.8353754
  47.3252788  70.6265845  73.8713124  46.7307792  69.4778131  75.5810863
  45.8012339  69.2905664  76.3736097  47.6730899  68.5763402  75.3237029
  48.3785866  68.7643733  74.6258367  47.6665259  67.2656125  75.9651668
  47.4434710  67.3783559  77.0261261  46.6000375  66.3505010  75.3322077
  46.4456131  65.4501212  75.9268241  45.6666756  66.9102811  75.2723593
  46.9205455  65.8909040  73.9253466  47.4721962  64.6318029  73.6997568
  47.6788748  63.9856200  74.5528872  47.7602057  64.1932590  72.4059161
  48.2057675  63.2109776  72.2487579  47.4769755  65.0141555  71.3129638
  47.6944246  64.6790786  70.2987946  46.9106833  66.2734515  71.5262821
  46.6867636  66.9246586  70.6813624  46.6312975  66.6972990  72.8285873
  46.1791941  67.6744513  72.9985159  49.0321369  66.6020541  75.9251669
  49.9401190  67.0652378  75.2275371  49.1567232  65.5138668  76.6810528
  48.4011801  65.2705424  77.3055903  50.3484867  64.6730444  76.6769771
  51.0226548  64.9933001  75.8826014  51.0828134  64.7764670  78.0111705
  50.3755400  64.5182021  78.7993094  51.8946163  64.0491831  77.9995825
  51.6477348  66.1604900  78.2725404  52.2088177  66.4739970  77.3921995
  50.8157532  66.8455888  78.4354767  52.5555056  66.1755331  79.4793084
  52.0011655  65.8347101  80.3537486  53.4015568  65.5109344  79.3043645
  53.0626690  67.5193893  79.7414798  52.5042748  68.1061676  80.3447927
  54.1957229  68.0122479  79.2480143  54.9663134  67.2761854  78.4538957
  54.6910035  66.3326965  78.2212301  55.8237089  67.6636697  78.0867056
  54.5564852  69.2498233  79.5491231  53.9705408  69.8112363  80.1504422
  55.4160109  69.6269226  79.1761480  49.9439296  63.2323256  76.4056641
  48.7982008  62.8471228  76.6572317  50.8904258  62.4413624  75.9019575
  51.8334542  62.7903447  75.8070467  50.6122303  61.0693435  75.4757540
  51.4853066  60.4390660  75.6448318  49.7629554  60.6688565  76.0293258
  50.2812247  61.0677629  73.9939521  50.0514381  62.1342990  73.4166974
  50.2774635  59.8795407  73.3597614  50.5162549  58.5553220  73.9642294
  49.9087954  58.4518745  74.8633355  51.5701989  58.4603221  74.2255263
  50.1081051  57.6034651  72.8813480  49.0518487  57.3564937  72.9882437
  50.7024872  56.6923648  72.9499602  50.3732294  58.3161679  71.6000889
  49.7421444  57.9774297  70.7784520  51.4213102  58.1943151  71.3266327
  50.0807160  59.7907561  71.9088663  50.8423526  60.4310311  71.4638315
  48.6950893  60.1993476  71.3796095  48.6107367  60.7190649  70.2621658
  47.6350628  59.9702854  72.1609924  47.7816592  59.5862232  73.0835460
  46.2520330  60.2486632  71.7312026  46.2377887  60.4977526  70.6701414
  45.3607351  59.0173945  71.9586410  45.3618494  58.7131695  73.0053239
  44.3459658  59.2774956  71.6574918  45.7501350  57.8044458  71.1572920
  46.5788663  56.8254060  71.7074605  46.9544974  56.9598709  72.7218176
  46.9275788  55.6887236  70.9801520  47.5819800  54.9366999  71.4209697
  46.4376102  55.5145110  69.6861691  46.7063632  54.6286832  69.1106859
  45.5990979  56.4813976  69.1284090  45.2135516  56.3539993  68.1168637
  45.2545090  57.6137711  69.8695533  44.5890185  58.3634916  69.4416030
  45.6355896  61.4255040  72.5002177  45.8250858  61.5279213  73.7112742
  44.8808305  62.3109146  71.8099432  44.6765282  62.3970981  70.3522605
  43.9842051  61.6165901  70.0366720  45.6313131  62.2623792  69.8439932
  44.1190890  63.7691583  70.1622330  43.4318622  63.7596350  69.3162261
  44.9369089  64.4600919  69.9575799  43.4202569  64.1320842  71.4266001
  42.3916122  63.7810797  71.3442296  43.4227693  65.1986432  71.6514228
  44.1470907  63.3613081  72.5368081  44.8639866  63.9695120  73.0883936
  43.1321687  62.7523535  73.5166660  42.3993500  61.8409837  73.1387137
  43.1099553  63.2283763  74.7771492  43.9751490  64.2716232  75.3544687
  44.0521302  65.1069862  74.6585213  44.9676291  63.8604897  75.5389997
  43.2647579  64.6419069  76.6224764  42.5416697  65.4339660  76.4278359
  43.9838971  64.9822240  77.3675431  42.5943264  63.3918997  77.0646841
  41.7124690  63.6474817  77.6521399  43.2396049  62.7337185  77.6465028
  42.1717218  62.6959144  75.7667917  42.2994948  61.6140197  75.8025163
  40.7165648  63.0257742  75.4330032  40.4238262  64.1002561  74.9021373
  39.8265467  62.0852775  75.7344278  40.1486196  61.2189256  76.1416164
  38.3970989  62.2445770  75.4880246  38.1657184  63.2368038  75.1006641
  37.8741150  61.1854290  74.4823494  37.9816248  60.1956221  74.9259969
  36.4143044  61.4340710  74.1485048  36.3060593  62.4235753  73.7043592
  36.0690290  60.6794333  73.4418172  35.8181140  61.3779975  75.0592816
  38.7174206  61.1848534  73.2066796  39.7528468  60.9518740  73.4551049
  38.3322883  60.4344657  72.5162514  38.6690795  62.1678124  72.7381120
  37.6699809  62.0960003  76.8195784  37.8223696  61.0758257  77.5001828
  36.8854124  63.1079131  77.1878646  36.7999634  63.9211270  76.5950062
  36.2577034  63.1436183  78.5090214  36.7234076  62.3984203  79.1539235
  36.4192947  64.5226936  79.1580695  36.2377631  65.3028013  78.4187606
  35.7400630  64.6557093  80.0001212  37.8043592  64.7454626  79.6851466
  38.8446302  65.3324392  79.0263236  38.6475939  65.6875505  78.0148037
  39.9653300  65.3463017  79.8237826  40.8639428  65.7300806  79.5682278
  39.6632327  64.7583567  81.0247455  40.4672447  64.5444749  82.1540636
  41.5036747  64.8807542  82.1252940  39.8927872  63.9200768  83.2325192
  40.4886094  63.7339503  84.1260810  38.5443449  63.5113764  83.2131697
  38.0955395  63.0164770  84.0744175  37.7432467  63.7280045  82.0908493
  36.7045481  63.3993582  82.1254537  38.3077231  64.3630491  80.9726441
  34.7977835  62.6924156  78.5559162  34.3784533  62.0810363  79.5405154
  34.0301749  62.9944901  77.5114441  34.3842143  63.5840775  76.7717535
  32.6424333  62.5394366  77.4313331  32.0989175  62.8669767  78.3175651
  31.9471853  63.1143498  76.1890606  31.9803950  64.2015676  76.2594445
  32.4820525  62.7921062  75.2956535  30.4890478  62.6774923  76.0689582
  30.1689690  61.4912775  76.1643250  29.6041049  63.6381062  75.8409538
  28.6247502  63.4076531  75.7523217  29.9134129  64.5959020  75.7569506
  32.5974576  61.0111512  77.4200649  33.2122504  60.3915777  76.5553605
  31.8861229  60.4031891  78.3930145  31.1386657  61.0742313  79.4746799
  30.2261177  61.5124678  79.0705696  31.7553718  61.8593643  79.9121028
  30.8626015  59.9533726  80.4438044  29.9427681  60.1521444  80.9938001
  31.6905453  59.8532159  81.1456441  30.7366386  58.7429084  79.5981377
  29.7490750  58.6646614  79.1435010  30.9501741  57.8339803  80.1605894
  31.7988023  58.9459225  78.5075527  32.7776168  58.5953898  78.8348863
  31.4056623  58.2257501  77.2150289  32.0607585  57.2405754  76.8628676
  30.3756421  58.7088931  76.5118666  29.8450410  59.4940828  76.8612074
  29.9274679  58.0612501  75.2625254  29.8747231  56.9773058  75.3644168
  28.5573890  58.6019044  74.7651385  28.6184770  59.6879728  74.6956830
  28.1881574  58.0178812  73.3835036  28.1264244  56.9318057  73.4522767
  27.2248178  58.4166332  73.0655814  28.9523278  58.2925272  72.6563775
  27.4558180  58.3413816  75.8045297  27.6913513  58.9592905  76.6710246
  26.5202803  58.6811061  75.3601695  27.3115749  56.8813900  76.2432259
  28.2466367  56.5410768  76.6881373  26.5097008  56.7994705  76.9769741
  27.0755678  56.2628917  75.3772811  30.9773725  58.2027051  74.1673359
  31.3328873  57.2185595  73.5046590  31.4754100  59.4239613  73.9984041
  31.0700054  60.1957936  74.5083269  32.5123612  59.7133506  73.0166062
  32.1927027  59.3382126  72.0443978  32.7656703  61.2370762  72.9003268
  33.2481447  61.5825947  73.8146220  33.6534885  61.5510868  71.7105935
  33.1714338  61.2062539  70.7958186  33.8157528  62.6273307  71.6516996
  34.6119659  61.0455694  71.8283803  31.5102679  61.9118220  72.7179871
  31.6625254  62.8568879  72.6454019  33.7894963  58.9306273  73.3513125
  34.4461692  58.3943970  72.4536089  34.1233029  58.8438374  74.6412685
  33.6340931  59.3964972  75.3307178  35.2706055  58.0441649  75.0787038
  36.1611456  58.3966584  74.5583329  35.5169460  58.1395800  76.5953756
  35.7260318  59.1686245  76.8876936  34.5981613  57.8051125  77.0771082
  36.6640671  57.2503863  77.0250052  36.4325708  55.9431516  77.4539457
  35.4054401  55.5812576  77.5001505  37.4805948  55.1072445  77.8183273
  37.2830191  54.0904184  78.1576359  38.7835120  55.5753232  77.7535895
  39.8229960  54.7422199  78.1184263  39.5267146  53.8724944  78.3966248
  39.0424116  56.8689859  77.3204223  40.0662065  57.2395375  77.2690804
  37.9830971  57.6950168  76.9500418  38.1792635  58.7066535  76.5947811
  35.1603253  56.5789327  74.6554592  36.1228316  56.0076937  74.1334501
  34.0009358  55.9661354  74.8948575  33.2740559  56.4398394  75.4119159
  33.7701702  54.5786688  74.4848335  34.5226544  53.9369200  74.9431186
  32.3838972  54.0915839  74.9152769  31.7315543  54.8544312  74.4902922
  32.2036381  53.1402051  74.4147922  32.0893898  53.9444275  76.4149620
  32.2832663  54.8934378  76.9148541  30.6315404  53.5507791  76.6207536
  30.4370073  52.6015676  76.1215010  30.4294081  53.4480720  77.6869124
  29.9840475  54.3207546  76.2012407  33.0156792  52.9410694  77.0911030
  34.0494192  53.2688110  76.9812555  32.7672756  52.8728962  78.1502297
  32.8938848  51.9627520  76.6261727  33.9381616  54.4055578  72.9708859
  34.5457413  53.4256868  72.5183898  33.4178296  55.3656324  72.2095677
  32.9000468  56.1129245  72.6495164  33.4867246  55.3360400  70.7468675
  33.1281334  54.3729193  70.3836731  32.6207255  56.4437694  70.1349893
  31.7333616  56.5697799  70.7553166  33.2092202  57.3610757  70.1529653
  32.1985162  56.1380668  68.6989112  31.8577015  54.9684468  68.3974095
  32.1960063  57.0743347  67.8803611  34.9310218  55.4327773  70.2482481
  35.3529042  54.6259195  69.4113318  35.6811193  56.4100775  70.7661883
  35.2603807  57.0830572  71.3908295  37.1021666  56.5719183  70.4211852
  37.2022719  56.7085204  69.3444225  37.7051741  57.7913807  71.1278395
  37.3072702  57.8818112  72.1385789  38.7887110  57.6817741  71.1729428
  37.4340006  59.0980825  70.4411247  38.4203939  59.8223859  69.8061461
  37.9022128  60.9322057  69.3118443  38.5269598  61.6471755  68.7764860
  36.6105433  60.9498751  69.5944015  35.9550951  61.6739459  69.3370900
  36.2938222  59.8150403  70.3019888  35.2686044  59.6467050  70.6316749
  37.9056351  55.3245135  70.7860943  38.6669123  54.7972684  69.9677774
  37.7268951  54.8431137  72.0150594  37.1304906  55.3209593  72.6754113
  38.4473867  53.6542342  72.4662914  39.5200178  53.8321506  72.3894302
  38.1107071  53.3123020  73.9219322  38.3843694  54.1511871  74.5618384
  37.0372837  53.1367952  73.9930644  38.8430947  52.0643887  74.4129574
  38.2294130  51.0188111  74.6518427  40.1577546  52.1659332  74.5524860
  40.6912836  51.3709203  74.8740465  40.6195762  53.0378272  74.3365636
  38.1677865  52.4505630  71.5720408  39.0952765  51.7356433  71.1814499
  36.8913516  52.2479555  71.2409002  36.1745031  52.8396100  71.6360869
  36.4800466  51.1397758  70.3873096  36.9101893  50.2140551  70.7695631
  34.9554974  50.9912856  70.3470308  34.5740851  50.8543473  71.3588964
  34.5384985  51.9045664  69.9226136  34.5094979  49.8113649  69.4953146
  33.9916683  49.9870991  68.3922715  34.7272612  48.6009604  69.9949916
  34.4502353  47.7838660  69.4699075  35.1689702  48.5026960  70.8979523
  37.0237117  51.2633423  68.9666180  37.3566098  50.2492238  68.3498444
  37.1176624  52.4908799  68.4471704  36.7573272  53.2976377  68.9364553
  37.6477133  52.6785521  67.0945898  37.0630309  52.0656669  66.4085742
  37.5943822  54.1361873  66.6170489  36.5709104  54.3651583  66.3201028
  37.9161207  54.8412162  67.3835466  38.4571954  54.3866176  65.4135212
  38.1065855  53.8577256  64.1691225  37.1833665  53.2857810  64.0761392
  38.9223517  54.0539201  63.0519143  38.6332503  53.6420096  62.0850375
  40.1051479  54.7762219  63.1747892  40.7464286  54.9298294  62.3068815
  40.4690466  55.3039388  64.4121148  41.3929964  55.8731982  64.5139012
  39.6438319  55.1013548  65.5276194  39.9303185  55.5063147  66.4982032
  39.0733935  52.1360516  66.9547718  39.3276384  51.2867131  66.1057285
  39.9950802  52.6327707  67.7799317  39.7410050  53.3339845  68.4609928
  41.3995434  52.2360789  67.6840417  41.7618814  52.4073166  66.6703909
  42.2587465  53.0519464  68.6554789  41.9084059  52.8998704  69.6763773
  43.3040349  52.7517987  68.5821062  42.2176934  54.5413517  68.4015803
  41.5617955  55.4802422  69.1425066  41.0132420  55.1211909  70.0132941
  41.7466950  56.7286368  68.6015814  41.3645721  57.5886393  68.9682928
  42.5378093  56.6203487  67.4869492  43.0035643  57.6097107  66.6093398
  42.7179811  58.6453044  66.7939652  43.7971567  57.2067534  65.5635910
  44.1824564  57.9459502  64.8612861  44.1271347  55.8493663  65.3764209
  44.7558592  55.5375458  64.5424106  43.6617357  54.8662548  66.2485709
  43.9418698  53.8303283  66.0575684  42.8553007  55.2524284  67.3281187
  41.5567081  50.7406773  67.9498202  42.2643283  50.0264243  67.2218084
  40.8686772  50.2690398  68.9860353  40.3436852  50.9122121  69.5611980
  40.8872137  48.8618312  69.3635288  41.9020851  48.5542927  69.6156304
  39.9903043  48.6399734  70.5861893  40.3416151  49.3172060  71.3646724
  38.9783632  48.9187594  70.2923296  39.9891755  47.2188144  71.1156783
  39.5648187  46.5566581  70.3609788  41.0143761  46.9161009  71.3288223
  39.1595321  47.1331712  72.3900578  39.2640656  46.1350147  72.8153286
  39.5265839  47.8715344  73.1029338  37.7400934  47.3894780  72.1381422
  37.4207381  47.3412647  71.1811746  36.8554413  47.6799366  73.0889006
  37.2403992  47.7533345  74.3584258  38.2069907  47.5879706  74.6002019
  36.5646736  47.9741541  75.0758749  35.5878909  47.8961281  72.7701890
  35.2964016  47.8397142  71.8048126  34.9188475  48.1163706  73.4940488
  40.4443350  47.9680123  68.2074525  41.0847319  46.9512985  67.9253784
  39.3642218  48.3620292  67.5352619  38.8631695  49.1822332  67.8456027
  38.7905255  47.5683028  66.4411070  38.7425488  46.5261225  66.7567929
  37.3603675  48.0402094  66.0704572  37.4169279  49.0703551  65.7187454
  36.7473633  47.1652638  64.9829600  36.6900447  46.1349792  65.3341406
  35.7455000  47.5248701  64.7483275  37.3676187  47.2094550  64.0877333
  36.5286254  47.9575456  67.2343617  35.6404850  48.2479956  67.0142578
  39.7187860  47.5345618  65.2236757  39.8626208  46.4891654  64.5741491
  40.3629714  48.6639643  64.9309024  40.1546129  49.5162931  65.4311241
  41.3553639  48.7152243  63.8549027  40.8687650  48.5174207  62.8998140
  42.0217756  50.0934617  63.7887573  42.3918681  50.3148354  64.7898189
  42.8635739  50.0057465  63.1018935  41.1015683  51.2224912  63.3248513
  40.2393583  51.2255470  63.9916985  41.6550560  52.1540228  63.4431831
  40.5289050  51.0834606  61.6114916  42.0840072  51.2830028  60.7525800
  42.7714113  50.4935479  61.0564476  41.9159600  51.2237150  59.6772449
  42.5141773  52.2535863  60.9996078  42.4117270  47.6352533  64.0688010
  42.7413981  46.8885062  63.1439427  42.9197555  47.5442864  65.2962805
  42.6608177  48.2176133  66.0031620  43.9440981  46.5555715  65.6237438
  44.6794785  46.5084485  64.8205661  44.6623620  46.9305683  66.9236382
  43.8950208  47.0978816  67.6794775  45.2898012  46.0911247  67.2232287
  45.5214003  48.1831265  66.7858774  46.1236948  48.4037431  65.7026749
  45.6080727  48.9467326  67.7685445  43.3857665  45.1304770  65.6841373
  44.0533884  44.1901522  65.2445656  42.1627541  44.9771039  66.2015832
  41.6879269  45.7816312  66.5854768  41.4751719  43.6759183  66.2417317
  42.0386839  42.9848987  66.8686650  40.0576605  43.8191147  66.8195241
  39.6003641  44.6778288  66.3280067  39.5018702  42.9167479  66.5647078
  40.0288492  44.0238746  68.3309752  41.0785788  43.9089375  69.0054671
  38.9138235  44.2960122  68.8378132  41.3600042  43.0743767  64.8333451
  41.7157534  41.9140270  64.5948415  40.8403851  43.8772440  63.9069228
  40.4801596  44.7807573  64.1789533  40.7045452  43.4690779  62.5101362
  40.1359761  42.5409885  62.4511596  39.9685573  44.5479227  61.7011190
  40.4965900  45.4893456  61.8527892  40.0250086  44.2655538  60.6498431
  38.4997718  44.7151814  62.1067575  37.9940823  43.7796730  61.8675858
  38.4823504  44.8715781  63.1853392  37.6400022  46.0781895  61.2959245
  37.0765984  45.3406810  59.7782880  36.4173914  44.5024340  60.0038699
  36.5330398  46.0824483  59.1931163  37.9336606  44.9846229  59.2066516
  42.0678632  43.1661805  61.8926872  42.2117318  42.1956195  61.1518990
  43.0614790  43.9978121  62.2086263  42.8735674  44.7907270  62.8053461
  44.4341414  43.8044768  61.7177744  44.4122698  43.9355939  60.6359107
  45.0505261  44.5841238  62.1653454  45.0414732  42.4474060  62.0397680
  45.7697609  41.8807829  61.2163451  44.7405628  41.9237092  63.2297414
  44.1833458  42.4586855  63.8804402  45.2898406  40.6303813  63.6780781
  46.3735386  40.6355664  63.5611548  44.9571896  40.3693697  65.1524438
  43.8845907  40.5136226  65.2821432  45.2131733  39.3330440  65.3729011
  45.7090241  41.2881835  66.0984639  46.7704285  41.1982308  65.8673145
  45.3787693  42.3070946  65.8963400  45.4801133  40.9623125  67.5723774
  44.4175862  40.8202484  67.7697422  46.0247290  40.0602677  67.8513190
  45.9639873  42.0733524  68.3901972  46.9582189  42.1065196  68.5648478
  45.1979688  43.0410041  68.8914565  43.8869031  43.0311518  68.7027279
  43.4615481  42.2833009  68.1736793  43.3186399  43.7715363  69.0887425
  45.7483799  44.0122351  69.6086818  46.7452416  44.0131452  69.7710580
  45.1679429  44.7461269  69.9889375  44.8498232  39.4511610  62.8134497
  45.4905920  38.4016738  62.8171741  43.7693462  39.6343531  62.0599525
  43.2234991  40.4782064  62.1602613  43.2772443  38.5954980  61.1637830
  43.5898684  37.6166226  61.5273328  41.7435397  38.6259007  61.0932639
  41.4620798  39.6452858  60.8291925  41.4532894  37.9495410  60.2892787
  41.0224683  38.2138759  62.3990781  41.2871909  38.9562200  63.1520376
  39.9505345  38.2586469  62.2065870  41.3922891  36.8144467  62.9087637
  41.8526804  35.9543656  62.1159987  41.2134415  36.5675092  64.1194963
  43.8940658  38.6668784  59.7608329  43.6072852  37.8192513  58.9070424
  44.7573465  39.6586167  59.5428913  44.9834731  40.2841154  60.3029686
  45.3591800  39.9131296  58.2312204  44.9287537  39.2709950  57.4627833
  45.1880108  41.4038957  57.8168976  45.6969482  42.0343488  58.5460149
  45.7814679  41.6476981  56.4316052  45.2726865  41.0178890  55.7018225
  45.6521616  42.6952627  56.1595959  46.8438750  41.4042593  56.4429161
  43.7089456  41.8083180  57.8649361  43.2147972  41.2979037  57.0382588
  43.3107442  41.4383802  58.8097541  43.4562172  43.3072127  57.7597637
  43.8537587  43.6778147  56.8149279  42.3841359  43.4993230  57.8025968
  43.9497080  43.8182916  58.5864226  46.8503701  39.5514488  58.2045161
  47.6625528  40.2274688  58.8365645  47.2171063  38.4813817  57.4731400
  46.3575573  37.5305188  56.7446043  46.1266978  37.9226869  55.7541456
  45.4312480  37.3699218  57.2962007  47.2133854  36.2978499  56.6916542
  46.9296259  35.6727638  55.8449860  47.1148044  35.7257215  57.6141792
  48.6149231  36.8316670  56.5366143  48.7867908  37.0570705  55.4841155
  49.3890314  36.1522078  56.8932530  48.6369758  38.1292409  57.3589236
  49.0357860  37.9841001  58.3629071  49.4395411  39.2217508  56.6442691
  49.0236012  39.7024377  55.5810424  50.5684087  39.6168191  57.2328445
  50.8305990  39.2166787  58.1223631  51.4115032  40.6793693  56.6722673
  50.8242211  41.5906666  56.5594128  52.5994604  40.9740485  57.5884545
  53.0772461  40.0326806  57.8598332  53.3115635  41.6008177  57.0516403
  52.1743810  41.6415411  58.7603470  52.9331667  41.8173853  59.3215269
  51.9125135  40.3702805  55.2665068  52.0000350  41.2684848  54.4206894
  52.2353712  39.1037791  55.0186235  52.1829938  38.4129590  55.7535545
  52.7940775  38.7015964  53.7265498  53.2335283  39.5689410  53.2339083
  53.8868438  37.6308669  53.9052287  54.2736249  37.3961093  52.9135692
  54.6830376  38.0611608  54.5127010  53.3760396  36.3542254  54.5669398
  52.2338088  36.3284542  55.0758374  54.1371047  35.3594840  54.5856869
  51.7483660  38.2406558  52.7113459  52.0949676  37.8823053  51.5812794
  50.4724445  38.2578504  53.1055712  50.2462521  38.5530418  54.0446124
  49.3827654  37.7954710  52.2409986  49.5421705  38.2000501  51.2414963
  49.3906267  36.2623494  52.1567519  49.2230750  35.8425810  53.1486294
  48.5995645  35.9308516  51.4841227  50.3548290  35.9237234  51.7776139
  48.0142417  38.2998333  52.7281027  47.1720172  37.4998448  53.1508335
  47.7772921  39.6259358  52.6651669  48.6671988  40.6829859  52.1555638
  49.1945731  40.3210015  51.2729858  49.3904184  40.9526493  52.9251962
  47.7297975  41.7936378  51.8447905  47.3599202  41.6853777  50.8251977
  48.2477866  42.7476050  51.9434582  46.6146981  41.6817396  52.8484922
  45.6701049  42.0425703  52.4414983  46.8574771  42.2406644  53.7522405
  46.5056138  40.1827151  53.1722566  46.4954559  40.0021991  54.2471562
  45.2337637  39.5958497  52.5434337  44.1829478  39.5565283  53.1966425
  45.3347185  39.1472578  51.2951295  46.2048835  39.2845715  50.8011081
  44.2179355  38.5309216  50.5760033  43.3345435  39.1658786  50.6434366
  44.5817665  38.3509147  49.0923923  43.8389617  37.7131829  48.6131861
  44.6305958  39.3064843  48.5702789  45.9181276  37.6815703  48.8929278
  46.1613469  36.3384111  48.8336189  45.2986576  35.6785922  48.9258466
  47.5050906  36.1060279  48.6625169  47.9376363  35.1971708  48.5789545
  48.1626392  37.3079762  48.6152299  49.5251944  37.5879057  48.4534500
  50.2174104  36.7531209  48.3435858  49.9048062  38.9045002  48.4434644
  50.9578246  39.1584358  48.3219377  48.9657710  39.9411179  48.5867113
  49.2774301  40.9855620  48.5764860  47.6075269  39.6643536  48.7461683
  46.9192097  40.5015189  48.8622481  47.1907838  38.3265538  48.7569300
  43.8021257  37.1893930  51.2007587  42.7659957  36.6233376  50.8371659
  44.6038007  36.6875272  52.1399695  45.4928798  37.1290706  52.3261877
  44.2862092  35.4398763  52.8428925  43.6028450  34.8452120  52.2366855
  45.5499933  34.6163634  53.1058494  46.2685116  35.2824368  53.5835281
  45.2726982  33.8235389  53.8005701  46.1774472  34.0025468  51.8587741
  45.4326162  33.3929330  51.3472092  46.5097986  34.8014504  51.1959033
  47.3670383  33.1339639  52.2420518  48.0547329  33.7369775  52.8349681
  47.0034353  32.3010709  52.8438671  48.0902994  32.5968518  51.0194386
  47.4715480  31.8200414  50.5702028  48.2169847  33.4150346  50.3104767
  49.4287123  32.0281092  51.3681201  49.3115122  31.2696646  52.0247217
  49.8761424  31.6827006  50.5311021  50.0023655  32.7478674  51.7840158
  43.5092109  35.6521416  54.1443467  43.1824609  34.6838865  54.8416089
  43.2108515  36.9064042  54.4812919  43.5855999  37.6892793  53.9647945
  42.3745249  37.1823952  55.6479678  42.8421597  36.7803646  56.5467382
  42.1761652  38.6869260  55.8317631  41.7004322  39.1024069  54.9434198
  41.5427537  38.8669866  56.7003644  43.1436672  39.1657195  55.9827460
  41.0248281  36.4644425  55.4799898  40.4863888  36.3996815  54.3665891
  40.4838053  35.8937709  56.5735972  41.0430243  35.8511437  57.9387060
  40.9457980  36.8316405  58.4048319  42.0960927  35.5733407  57.8943054
  40.2008801  34.8028517  58.6160471  40.1351382  35.0111544  59.6839362
  40.6412287  33.8172539  58.4650784  38.8759887  34.8943352  57.9654485
  38.2810933  35.7112343  58.3739512  38.3175214  33.9619688  58.0485558
  39.2088629  35.1766221  56.4916433  39.3979632  34.2570043  55.9378902
  38.0770963  35.9597020  55.8107407  37.2911955  35.3688592  55.0680122
  38.0102403  37.2684624  56.0493335  38.6669300  37.6845354  56.6941134
  36.9769975  38.1209603  55.4667884  36.2452995  37.5083323  54.9400967
  36.2541707  38.9124246  56.5653905  37.0382903  39.5605704  56.9567507
  35.4804892  39.5209620  56.0972035  35.6417020  38.1022178  57.7127322
  36.4258320  37.5002459  58.1719390  35.0292136  39.0087897  58.7532250
  34.2446268  39.6107892  58.2948376  34.6024678  38.4062071  59.5550248
  35.7977456  39.6647840  59.1620409  34.6101195  37.1114222  57.1946883
  35.0858961  36.4221543  56.4970883  34.1923351  36.5506027  58.0307738
  33.8119317  37.6505800  56.6844881  37.5504452  39.0716293  54.4181874
  37.0300625  40.1732188  54.2211303  38.6023559  38.6271613  53.7337438
  38.9780396  37.7127759  53.9407717  39.3129322  39.4672670  52.7666074
  39.7681331  40.2647780  53.3538616  40.4196275  38.6813549  52.0715982
  39.9788760  37.8847066  51.4722738  40.9891424  39.3490416  51.4251095
  41.0830299  38.2477642  52.8199266  38.3919575  40.1285925  51.7418972
  38.4766192  41.3356734  51.5191553  37.5077868  39.3485332  51.1250660
  37.4798999  38.3554220  51.3068674  36.6494503  39.8838282  50.0724314
  37.2520004  40.4694571  49.3781178  35.9555061  38.7629805  49.2930607
  35.4183229  38.1428469  50.0106732  35.2439789  39.2254384  48.6089833
  36.9321776  37.8952454  48.5013879  37.7630844  38.5298828  48.1932807
  37.2986357  37.1177257  49.1716646  36.3049349  37.2528347  47.2763997
  35.1175872  36.8593867  47.3383206  37.0097395  37.1444103  46.2459199
  35.6497565  40.9046447  50.6184050  35.5201938  42.0001618  50.0733567
  34.9788199  40.5555674  51.7147267  35.0767156  39.6174374  52.0758746
  34.0617630  41.4690036  52.3964744  33.2102294  41.6927415  51.7538774
  33.5460361  40.8256672  53.6851253  33.0950446  39.8736081  53.4053232
  34.4147073  40.6436006  54.3178671  32.5326871  41.6609023  54.4458059
  33.0108332  42.6080757  54.6954852  31.6839476  41.8454308  53.7872547
  32.0479272  40.9864975  55.7203219  31.5498447  41.7060285  56.6123796
  32.1702004  39.7462360  55.8337616  34.7283354  42.8100873  52.7182537
  34.1724055  43.8722224  52.4290134  35.9168089  42.7529568  53.3109990
  36.3117945  41.8638007  53.5820840  36.6280355  43.9710746  53.6901662
  35.9294737  44.6791216  54.1360137  37.7299257  43.6643692  54.7077240
  38.3620765  42.8816620  54.2883743  38.3379751  44.5409642  54.9312351
  37.2170050  43.1428631  56.0345652  35.9138891  43.0703178  56.4471813
  35.1556053  43.4114262  55.7423759  35.8467939  42.5563468  57.7261817
  35.0003493  42.3900666  58.2515215  37.1208653  42.3094434  58.1696982
  37.5666270  41.7969544  59.3951848  36.8251247  41.5388743  60.1512720
  38.9212718  41.6512640  59.5669334  39.3033816  41.2538307  60.5072199
  39.8327217  42.0037766  58.5548884  40.9065147  41.8866477  58.7010015
  39.3899275  42.5133090  57.3351855  40.1331851  42.7511881  56.5742109
  38.0122890  42.6751125  57.1336770  37.1949494  44.7427518  52.4944589
  37.2506229  45.9775343  52.5217136  37.6068848  44.0234357  51.4501263
  37.5881579  43.0145110  51.4927831  38.1655644  44.6601387  50.2480841
  38.8527495  45.4546593  50.5389668  38.9290336  43.6391044  49.3994277
  39.4168944  42.9226671  50.0603427  38.1879643  43.1232212  48.7888698
  39.9692261  44.2851704  48.4959448  40.6050525  45.2837593  48.9203549
  40.1665789  43.7725951  47.3720856  37.1075924  45.3503141  49.3907102
  37.4273896  46.2667109  48.6253791  35.8556170  44.9093382  49.5214887
  35.6721451  44.1394000  50.1488902  34.7454893  45.4322915  48.7200211
  35.1128831  45.7891883  47.7578644  33.7157146  44.3224395  48.4705946
  33.4330925  43.8872060  49.4291330  32.8373128  44.7631749  47.9991471
  34.2475113  43.2127680  47.5692759  35.3281277  43.3218524  46.9751692
  33.4818652  42.1305290  47.4654022  33.7782042  41.3599829  46.8835588
  32.6075069  42.0840455  47.9688281  34.0800923  46.6632961  49.3419723
  33.0415027  47.1451476  48.8661026  34.7137333  47.1628777  50.3979905
  35.6322676  46.7864381  50.5842358  34.2411134  48.2592775  51.2192844
  33.2506991  48.5934826  50.9102768  34.1546832  47.7355851  52.6501981
  34.1358786  46.6488715  52.5677407  35.0793903  48.0466125  53.1362832
  32.9954697  48.1900940  53.4565526  32.9351290  49.2784146  53.4608096
  32.0678837  47.7768410  53.0604361  33.2337497  47.6001106  55.1531104
  33.1244887  45.8367693  54.9441831  33.9049550  45.5022980  54.2607357
  33.2533788  45.3473151  55.9095444  32.1480910  45.5787725  54.5340777
  35.3227137  49.3306320  51.1930062  36.5089364  48.9952046  51.2189678
  34.9362619  50.6063831  51.1507788  33.9766761  50.8630297  50.9679484
  35.9219635  51.6831530  51.3460838  36.8903199  51.3766154  50.9505844
  35.5107974  53.0109439  50.6710878  36.3254948  53.7252278  50.7901125
  35.2144946  52.8154835  49.1716126  34.3995360  52.1016301  49.0517987
  34.9286008  53.7700212  48.7297735  36.1054534  52.4363374  48.6710716
  34.3531091  53.5482942  51.3296859  34.0994872  54.3729911  50.9087924
  36.1198527  51.9444252  52.8434193  35.3025739  51.5213400  53.6688890
  37.1864585  52.6604795  53.1997610  37.9407105  52.8509728  52.5556217
  37.3440479  53.0739884  54.5938256  37.2335520  52.2018637  55.2382542
  38.7170792  53.7046601  54.8540778  38.9902353  54.2721762  53.9644652
  38.6098254  54.3844509  55.6993477  39.8119577  52.6781079  55.1605882
  39.9324671  52.0592281  54.2714504  40.7322721  53.2325626  55.3441734
  39.4639779  51.6135683  56.5844194  39.4804053  52.8186920  57.9190834
  38.7128088  53.5713680  57.7391575  39.2809913  52.3161557  58.8655463
  40.4573898  53.3000472  57.9626695  36.2116125  53.9956471  55.0527855
  35.8631612  53.9905507  56.2360863  35.6281693  54.7638994  54.1329423
  35.9984165  54.8246658  53.1952197  34.4761585  55.6105144  54.4847423
  34.7475621  56.2510879  55.3238518  34.0381630  56.4979813  53.3119271
  34.9194681  57.0378990  52.9656763  33.6823133  55.8386624  52.5202393
  32.9340196  57.5014399  53.6769864  32.1113852  56.9509147  54.1333803
  33.3421948  58.2085376  54.3991414  32.4256596  58.2552872  52.4640135
  33.2447376  58.8537937  52.0652651  32.1106463  57.5274571  51.7162639
  31.2518529  59.1673760  52.8120552  30.7592240  59.4480154  51.8811101
  30.5589603  58.5984795  53.4320194  31.6757103  60.3998577  53.5418983
  32.3174313  60.9273721  52.9674225  30.8644387  60.9654465  53.7469533
  32.1318337  60.1400416  54.4047691  33.3069357  54.7579255  54.9753941
  32.7006671  55.0552397  56.0100374  32.9916285  53.7010921  54.2291626
  33.4663193  53.5374674  53.3528094  31.9327576  52.7728497  54.6286717
  30.9881677  53.3102776  54.7124595  31.7699194  51.6603774  53.6035648
  32.7217622  51.1309835  53.5607086  30.9994004  50.9910413  53.9861738
  31.3928331  52.1213236  52.2286625  30.4430217  52.6531562  52.2844591
  32.1685571  52.8002629  51.8745538  31.2642843  50.9620958  51.2715052
  30.4255626  50.0667580  51.5475655  31.9903368  50.9565119  50.2522660
  32.2030146  52.1475795  55.9890787  31.2817209  52.0040130  56.7991791
  33.4562331  51.7650919  56.2349741  34.1613395  51.8267710  55.5144743
  33.8155426  51.1367528  57.5033419  33.0926818  50.3522132  57.7271030
  35.2197718  50.5141975  57.4651805  35.1424948  49.7837302  56.6598575
  35.9456944  51.2800190  57.1919522  35.6784608  49.8096852  58.7539283
  35.7542279  50.5578175  59.5430152  34.6984449  48.7056830  59.1868644
  34.6225021  47.9568912  58.3984215  35.0612360  48.2349325  60.1005807
  33.7162402  49.1418979  59.3687737  37.0779910  49.2449382  58.6054350
  37.7752172  50.0534918  58.3858534  37.3724524  48.7537820  59.5328827
  37.0936825  48.5210375  57.7906832  33.6727326  52.1147425  58.6664873
  33.1156844  51.7556104  59.7030400  34.1494309  53.3481245  58.4882495
  34.6803091  53.5718598  57.6586651  34.0173213  54.3746405  59.5268610
  34.3798222  53.9769281  60.4747624  34.8280082  55.6340044  59.1803448
  34.4163004  55.9285390  58.2150234  34.5949799  56.3976443  59.9224040
  36.3492415  55.4838573  59.0623996  36.5792350  54.8301554  58.2210450
  36.9972226  56.8441744  58.8399047  36.7680426  57.4983259  59.6811307
  38.0774204  56.7235966  58.7578405  36.6105871  57.2854888  57.9212889
  36.9493386  54.7996801  60.2865700  36.5158910  53.8056716  60.3968860
  38.0287719  54.7130544  60.1623882  36.7327752  55.3907245  61.1764384
  32.5548090  54.7284069  59.8086750  32.1766943  54.9230983  60.9689342
  31.7381125  54.7858427  58.7547543  32.1224701  54.6949100  57.8251846
  30.3015124  55.0467800  58.8905809  30.1491006  55.9935069  59.4088260
  29.6261034  55.1272869  57.5112581  29.9760940  54.2798860  56.9217519
  28.5497120  55.0446857  57.6617860  29.9379772  56.4257239  56.7704923
  30.4535022  57.3828795  57.3900147  29.6592247  56.4840453  55.5508113
  29.6189024  53.9832474  59.7528397  28.7048845  54.2901078  60.5173251
  30.0724998  52.7367091  59.6336017  30.7872871  52.5274371  58.9514114
  29.5319485  51.6353211  60.4328424  28.4498700  51.7371987  60.5154644
  29.8479474  50.2876646  59.7783748  30.9182221  50.2779198  59.5721800
  29.6125863  49.5157917  60.5111212  29.0828282  50.0166616  58.4944764
  28.0152245  50.0622233  58.7095286  29.3396450  50.7869484  57.7672864
  29.4268663  48.6500639  57.9269400  30.4920384  48.6235037  57.6971537
  29.1981637  47.8914753  58.6754972  28.6276446  48.3707215  56.6609437
  27.6412236  48.8217213  56.7689868  29.1454209  48.8282765  55.8179430
  28.4804930  46.9054949  56.4181055  28.0003508  46.4813937  57.1989394
  27.9471458  46.7561254  55.5735172  29.3944068  46.4874683  56.3175359
  30.0711233  51.6345753  61.8647432  29.3357221  51.3685610  62.8151201
  31.3577765  51.9334550  62.0076545  31.8828534  52.2488791  61.2045971
  32.0694040  51.7449915  63.2705016  31.6695282  50.8836335  63.8055351
  33.5563731  51.4985206  62.9865545  33.5101563  50.6908251  62.2560812
  33.8975470  52.4109384  62.4974797  34.5318527  51.1226669  64.0993219
  34.5876940  51.9472716  64.8099621  34.0741010  49.8593809  64.8217296
  34.0184615  49.0341710  64.1117776  34.7857105  49.6127338  65.6096877
  33.0906024  50.0273400  65.2606152  35.9187241  50.9265817  63.4877366
  36.2400905  51.8523160  63.0104117  36.6271338  50.6574299  64.2711996
  35.8794444  50.1299566  62.7448070  31.9114547  52.8981182  64.2593231
  31.8367463  52.6714866  65.4731689  31.8725196  54.1240808  63.7455256
  31.9056154  54.2490035  62.7438279  31.8734739  55.3145330  64.5923666
  32.2747424  55.0684974  65.5754990  32.7411303  56.4129884  63.9704581
  32.3533137  56.7022833  62.9937257  32.7777907  57.2876542  64.6198545
  34.4699203  55.9130750  63.6991418  34.8691071  57.0699920  63.1784777
  30.4606848  55.8173368  64.8582917  29.7565780  56.2446338  63.9417292
  30.0559300  55.7508782  66.1255604  30.6483088  55.3071227  66.8127778
  28.7286469  56.1988381  66.5408872  28.0423819  56.1491928  65.6955027
  28.1857459  55.3103918  67.6651005  28.9649502  55.1133493  68.4013845
  27.3361591  55.7865802  68.1545359  27.7069260  53.9734273  67.1782090
  28.4616241  52.9985085  66.5861971  29.5234916  53.2101571  66.4607301
  27.6770615  51.9163585  66.2652332  27.9955726  51.0712213  65.8131342
  26.3881042  52.1728702  66.6565652  25.2369379  51.3802641  66.5473962
  25.3238033  50.3954297  66.0884253  24.0615540  51.9014011  67.0309486
  23.1462151  51.3128331  66.9689620  24.0102754  53.1821696  67.6068658
  23.0709360  53.5882318  67.9821715  25.1525432  53.9697942  67.7159790
  25.0588432  54.9572258  68.1679744  26.3683815  53.4618756  67.2355447
  28.6939773  57.6735241  66.9413247  27.6175686  58.2200061  67.1923700
  29.8653653  58.3045650  66.9948721  30.7200182  57.7749567  66.8990452
  29.9650879  59.7472915  67.2399959  28.9674134  60.1853240  67.2695318
  30.6931349  60.0754670  68.5790573  30.6569043  61.1529226  68.7399206
  30.0334572  59.3645382  69.7538248  30.0697198  58.2869462  69.5938871
  30.5632884  59.6128700  70.6734493  28.9946801  59.6843927  69.8358975
  32.0734123  59.6803798  68.5050413  32.5103974  59.8873311  69.3343878
  30.6947451  60.4405127  66.0921972  31.5735605  59.8425120  65.4632038
  30.3278452  61.6954873  65.8263360  29.5066896  62.0822077  66.2693372
  31.0366258  62.5161585  64.8375645  31.1229887  61.9602947  63.9039393
  30.2932025  63.8307864  64.5590302  29.9525080  64.2130980  65.5212487
  31.0192661  64.5217088  64.1305937  29.1013878  63.6954751  63.6147725
  28.3679618  63.0527234  64.1016580  28.6758472  64.6889072  63.4729734
  29.4740719  63.1051460  62.2609279  30.3441461  63.6741728  61.5644106
  28.8872259  62.0677552  61.8982296  32.4742001  62.8031871  65.2685407
  33.3683119  62.8723879  64.4284922  32.6828800  62.9605965  66.5754974
  31.8913342  62.9623740  67.2028342  34.0132826  63.1975183  67.1366446
  34.4205961  64.1305060  66.7471207  33.9328051  63.2980717  68.6633477
  33.3779872  64.2001197  68.9213899  33.4003181  62.4245401  69.0395128
  35.2247147  63.3533426  69.2499358  35.1404537  63.4157643  70.2041913
  34.9972475  62.0981591  66.7200759  36.0834689  62.3857903  66.2100442
  34.6024716  60.8438782  66.9185609  33.7287171  60.6518044  67.3873468
  35.4519112  59.7125520  66.5432604  36.4347539  59.8792427  66.9840934
  34.8903667  58.4106295  67.0875438  33.9101445  58.2253425  66.6483021
  35.5622764  57.5905401  66.8343817  34.7950850  58.4802881  68.1711342
  35.6400732  59.6230313  65.0312653  36.7630027  59.4211297  64.5564496
  34.5484174  59.7823705  64.2830669  33.6438733  59.8989360  64.7170158
  34.6120865  59.6978675  62.8210852  35.0743110  58.7533826  62.5340382
  33.2147565  59.7699313  62.1942673  32.5899989  59.0404250  62.7096291
  32.8282860  60.7725001  62.3775604  33.1978611  59.4837403  60.6893636
  33.9931619  60.0655358  60.2234115  33.3920452  58.4212283  60.5428613
  31.8633779  59.8479452  60.0529099  31.5744076  60.8416934  60.3950499
  31.9857841  59.8584712  58.9698562  30.7885055  58.8538036  60.4284972
  31.1749803  57.8497811  60.2533499  30.5643018  58.9765420  61.4881043
  29.5446179  59.0531609  59.6313803  29.7520652  58.9390463  58.6495233
  28.8529968  58.3721903  59.9107353  29.1861033  59.9833036  59.7938636
  35.5245442  60.7772789  62.2387263  36.2763983  60.5143703  61.2960130
  35.4639407  61.9812654  62.8050740  34.7603398  62.1786285  63.5022776
  36.3351230  63.0745514  62.3690736  36.2464696  63.2058797  61.2906522
  35.9472066  64.3837185  63.0537314  35.7486754  64.1541760  64.1006292
  36.8064147  65.0509263  62.9852094  34.7324051  65.0597695  62.4452651
  35.0154039  65.4774729  61.4790683  33.9489946  64.3153187  62.3032681
  34.1865664  66.1791923  63.3174507  34.7561090  66.5111625  64.3614766
  33.0716956  66.7666126  62.8933630  32.6632642  67.5167504  63.4324164
  32.6383683  66.4599957  62.0341104  37.8214115  62.7775393  62.5836905
  38.6317668  63.0010561  61.6822303  38.1745032  62.2728766  63.7666680
  37.4885394  62.1571878  64.4989038  39.5729156  61.9596118  64.0694135
  40.2037188  62.7915956  63.7563808  39.7857235  61.7204184  65.5724576
  39.3830700  62.6253381  66.0275287  39.1948558  60.8610683  65.8894634
  41.2457747  61.5299374  66.0161350  41.6611450  60.6818093  65.4718492
  42.0932566  62.7785867  65.7405295  41.6787439  63.6270893  66.2848835
  43.1177623  62.6026285  66.0684432  42.0862870  62.9945172  64.6721541
  41.3116279  61.1440977  67.4865880  40.7705211  60.2108193  67.6424538
  42.3526200  61.0136629  67.7822625  40.8589814  61.9310314  68.0898670
  40.0463996  60.7596480  63.2519634  41.1742657  60.7463174  62.7539610
  39.1703536  59.7659546  63.0995764  38.2817846  59.8037711  63.5782353
  39.4758325  58.5793159  62.2928372  40.3762110  58.1061523  62.6846714
  38.3322494  57.5788709  62.3605396  37.4256351  58.0351543  61.9631027
  38.5840050  56.6979844  61.7699821  38.1663785  57.2854736  63.3971225
  39.7521316  58.9636255  60.8405635  40.6456954  58.4032526  60.1993787
  38.9794611  59.9227660  60.3311649  38.2062194  60.2785665  60.8748584
  39.1445855  60.4067663  58.9625150  39.1724476  59.5639822  58.2718357
  37.9732871  61.3360113  58.5619604  37.9145856  62.1504743  59.2839746
  38.1728238  61.9110586  57.1616837  38.2311570  61.0971520  56.4390130
  37.3328405  62.5590233  56.9113460  39.0971254  62.4881027  57.1336286
  36.7482212  60.5795200  58.5904307  36.0152603  61.1480384  58.3431344
  40.5023917  61.0875917  58.7862826  41.2139770  60.8230444  57.8165372
  40.8644276  61.9405628  59.7426843  40.2093267  62.1792359  60.4734218
  42.1674786  62.5992270  59.7389968  42.2926036  63.1761362  58.8226897
  42.2756239  63.5540944  60.9394758  41.4037773  64.1917311  60.7931809
  42.1421129  62.9585355  61.8425730  43.5328181  64.4299161  61.0841588
  43.8971074  64.7000230  60.0929795  43.2032572  65.6923951  61.8638737
  42.8393153  65.4230890  62.8553974  44.0997354  66.3048535  61.9604265
  42.4340546  66.2558574  61.3357279  44.6953652  63.6913644  61.7343400
  44.9612672  62.8256192  61.1278083  45.5537796  64.3588267  61.8099704
  44.4042259  63.3603395  62.7312149  43.2895483  61.5522059  59.7589803
  44.2546825  61.6465711  59.0023799  43.1419071  60.5535220  60.6318248
  42.3860810  60.6065930  61.2996643  44.0812886  59.4236598  60.7289534
  45.0642813  59.7756797  61.0418536  43.5686283  58.4183453  61.7651137
  43.5935974  58.8317667  62.7733590  42.5409431  58.1696839  61.5002919
  44.3288876  57.1163696  61.8135992  45.6723301  57.0781001  62.1746444
  46.1869538  58.0105691  62.4065148  46.3648334  55.8583998  62.2422050
  47.4197424  55.8437063  62.5161609  45.7008786  54.6639797  61.9580945
  46.2323620  53.7133719  62.0024802  44.3505759  54.6918063  61.6161512
  43.8216785  53.7629244  61.4027360  43.6719959  55.9167679  61.5467300
  42.6151709  55.9400637  61.2808763  44.3287884  58.7494287  59.3732781
  45.4795398  58.5385821  58.9878488  43.2543410  58.4276725  58.6510997
  42.3265820  58.5308962  59.0367259  43.3926726  57.8107972  57.3259471
  44.0697337  56.9573378  57.3619250  42.0271874  57.3379918  56.7510852
  41.3333449  58.1784540  56.7685524  42.1746140  56.8289475  55.3168054
  42.8680009  55.9881240  55.2986019  41.2027521  56.5059152  54.9436633
  42.5583349  57.6294122  54.6842580  41.4314448  56.2462407  57.6418356
  41.2791764  56.6395451  58.6469367  40.4755135  55.9222800  57.2303208
  42.1145677  55.3979008  57.6838284  44.1066727  58.7627856  56.3622065
  45.0873438  58.3764603  55.7186205  43.6482878  60.0118653  56.3012373
  42.8558026  60.2849244  56.8647134  44.2559373  61.0204742  55.4144362
  44.1183429  60.7158487  54.3769535  43.6157311  62.4071931  55.6090965
  43.7648937  62.7148887  56.6440714  44.1340634  63.1000997  54.9462903
  42.1124794  62.4574073  55.2936180  41.4400416  63.4095187  55.6998448
  41.5865035  61.4642804  54.5699521  40.6012176  61.4722408  54.3480332
  42.1767581  60.7104361  54.2483635  45.7604005  61.1729345  55.6510126
  46.5352436  61.2990080  54.7032634  46.1578441  61.1794352  56.9231582
  45.4634622  61.0821568  57.6501176  47.5503022  61.3940903  57.3181539
  47.9924809  62.1956456  56.7264730  47.6052944  61.7895825  58.7964515
  46.9906070  62.6893681  58.8218388  47.0966127  60.9874757  59.3312108
  48.9495278  62.0728820  59.4632529  49.5140709  61.1415460  59.5080320
  49.7568708  63.1234080  58.6882036  49.1931311  64.0552283  58.6433998
  50.7067159  63.2979470  59.1936056  49.9448869  62.7641045  57.6764470
  48.6818078  62.5399959  60.8849102  48.1492749  61.7605131  61.4298090
  49.6282576  62.7492511  61.3834544  48.0756578  63.4456275  60.8622674
  48.4432437  60.1801082  57.0620699  49.6200700  60.3346341  56.7101670
  47.8870831  58.9816662  57.2588266  46.9295386  58.9268962  57.5753832
  48.6227950  57.7371288  57.0619138  49.5769189  57.7885348  57.5864176
  47.8297916  56.5447539  57.6044244  46.7707164  56.6694457  57.3787901
  48.1909918  55.6214545  57.1514864  47.9351833  56.3028969  59.3780319
  47.1501310  55.2300886  59.4189416  48.9373807  57.4782876  55.5947363
  50.0501673  57.0656846  55.2608533  47.9535344  57.7126261  54.7221947
  47.0790260  58.1101100  55.0341899  48.0465829  57.2379114  53.3392424
  49.0745575  57.0517402  53.0282638  47.2095672  55.9304268  53.1124060
  47.2845030  55.6420442  52.0639217  47.7317544  54.7902391  53.9942265
  47.6567017  55.0777221  55.0429503  47.1365076  53.8938488  53.8202545
  48.7738550  54.5873309  53.7473334  45.7165080  56.1614612  53.3442128
  45.3543760  56.9222277  52.6526950  45.1740187  55.2310282  53.1765836
  45.5548928  56.4961196  54.3689006  47.7291269  58.3003293  52.2716479
  47.5218414  57.9694970  51.0990509  47.6959981  59.5660537  52.6941465
  47.6789854  59.7209610  53.6920512  47.5103543  60.7287052  51.8015599
  47.1028265  61.5651958  52.3692780  48.8401039  61.1808745  51.1364081
  48.6353191  62.0104167  50.4596341  49.8426062  61.6277086  52.2011496
  50.0482544  60.7984982  52.8780681  50.7689035  61.9414765  51.7198781
  49.4262669  62.4621102  52.7655395  49.3931567  60.1006925  50.3775764
  50.2140895  60.3843101  49.9686378  46.3904766  60.5272626  50.7732741
  46.5185205  60.8802432  49.5950969  45.2801480  59.9770754  51.2553389
  45.2391256  59.7294683  52.2336575  44.1307176  59.6681183  50.4161701
  44.0714202  60.3718926  49.5859384  44.2517580  58.2493988  49.8480519
  44.3029652  57.5324615  50.6674900  43.3824143  58.0303225  49.2280943
  45.1560778  58.1752514  49.2440594  42.8479095  59.8209911  51.2296007
  42.8748223  59.7975873  52.4677073  41.7255992  59.9859033  50.5354231
  41.7507953  60.0110098  49.5260499  40.4317577  60.1609207  51.2031386
  40.5578175  60.7760026  52.0941394  39.4334333  60.8485543  50.2721937
  39.2626893  60.1661370  49.4395759  38.5099696  60.9677271  50.8388617
  39.8792099  62.2078588  49.7333045  40.8728532  62.0521079  49.3131671
  39.1937348  62.5098491  48.9414554  39.9420136  63.2982991  50.7924218
  39.1610446  63.2655274  51.7711268  40.7598010  64.2216825  50.6341121
  39.8764535  58.8101832  51.6335090  40.2031256  57.7864180  51.0428348
  39.0250371  58.8064259  52.6540270  38.7558979  59.6641503  53.1144314
  38.5090524  57.5425219  53.1839963  39.3388054  56.8832647  53.4389259
  37.6483078  57.7583358  54.4411900  37.1897453  56.8095671  54.7198627
  38.4986069  58.2728266  55.6014916  38.9571552  59.2218647  55.3237154
  37.8678688  58.4175967  56.4785950  39.2783238  57.5466137  55.8311804
  36.6136189  58.7052998  54.1504258  36.0752530  58.8415272  54.9334997
  37.7037394  56.7785296  52.1417507  37.7088155  55.5434961  52.1265961
  37.0134018  57.5199474  51.2732350  36.9681921  58.5213057  51.3970778
  36.2248222  56.9148432  50.1879594  35.7481415  56.0010000  50.5425935
  35.1338015  57.8846041  49.7126389  34.5485875  57.4029655  48.9292819
  34.4741631  58.1803536  50.5284265  35.6788471  59.1458241  49.1248919
  35.7160524  60.3334027  49.8237207  36.2589536  61.2679539  49.0636836
  36.3683546  62.2874305  49.4335454  36.5883531  60.7266590  47.9051134
  37.0279628  61.2034606  47.1308373  36.2367508  59.3993727  47.9154914
  36.4294088  58.7776854  47.0411407  37.0561347  56.4349957  48.9877662
  36.5147430  55.7809015  48.0900196  38.3517395  56.7639406  48.9618138
  38.7329250  57.3435867  49.6958487  39.2330530  56.3707474  47.8584138
  38.6587713  56.3031522  46.9344384  40.3556986  57.4079881  47.6655207
  40.7775046  57.6097005  48.6501481  41.1138929  56.9450480  47.0339134
  39.8922569  58.7291954  47.0257372  39.5870743  58.4835501  46.0085731
  39.0306637  59.0939329  47.5849535  40.9688562  59.8120375  46.9864581
  41.9499199  59.7455615  47.7614115  40.8149556  60.7596435  46.1796256
  39.8483764  54.9756367  48.0439593  40.1920724  54.3124921  47.0605868
  39.9891451  54.5478889  49.3018837  39.5854631  55.0806897  50.0590254
  40.8101348  53.3779456  49.6348129  41.2695923  52.9413475  48.7480321
  41.9363777  53.7355214  50.6556202  42.6077380  52.8817092  50.7471591
  42.7244176  54.9526601  50.1992033  42.0537646  55.8070515  50.1078756
  43.5015154  55.1778493  50.9296206  43.1838418  54.7470726  49.2323710
  41.3687053  53.9738308  52.0573258  40.8636118  53.0720774  52.4034812
  42.1805539  54.2203274  52.7416070  40.6572030  54.7989986  52.0262871
  40.0116009  52.1776812  50.1507120  38.9841407  52.3392368  50.8308269
  40.5014376  50.9811047  49.8280053  41.2848819  50.9291468  49.1926985
  39.9538184  49.7352068  50.3543632  38.8911036  49.6632312  50.1229418
  40.6756770  48.5448608  49.7152375  40.2267490  48.3458920  48.7421114
  41.7264394  48.8032913  49.5840432  40.5715447  47.3855934  50.5305237
  41.0308693  46.6556012  50.1089409  40.1299117  49.6537878  51.8707959
  41.1928136  50.0023956  52.3954656  39.0973843  49.1654368  52.5617129
  38.1979455  49.0485971  52.1173507  39.2051187  48.8855019  53.9920268
  39.5742236  49.7969872  54.4621919  37.8474881  48.5469487  54.5876154
  37.4689167  47.6313560  54.1332217  37.9476853  48.4035128  55.6634811
  37.1513568  49.3629635  54.3936556  40.2229785  47.7782280  54.2888350
  41.0330112  47.9229367  55.2050343  40.1849114  46.6865270  53.5192975
  39.4491144  46.5575090  52.8395501  41.1745548  45.6102000  53.6892391
  41.0918935  45.2079013  54.6989034  40.9613827  44.4673398  52.6868713
  39.9767416  44.0780819  52.9458299  40.9380841  44.8680466  51.6734655
  41.9992620  43.3315632  52.7658841  42.9951525  43.7659296  52.6785412
  41.8905396  42.5642260  54.0907728  40.8950025  42.1291548  54.1786245
  42.6368423  41.7701158  54.1136190  42.0624554  43.2477178  54.9222681
  41.8488029  42.3907756  51.5723547  42.0018481  42.9480989  50.6481970
  42.5887617  41.5934594  51.6419907  40.8482569  41.9583351  51.5737933
  42.6054029  46.1302626  53.5646903  43.4416368  45.8669538  54.4341858
  42.8793366  46.8675117  52.4864875  42.1938537  46.9964935  51.7560245
  44.2259568  47.3952806  52.2742332  44.9416155  46.5758235  52.3407305
  44.3766087  48.0690010  50.9000309  44.3811404  47.2979468  50.1296063
  43.6046416  48.8042556  50.6729461  45.6907558  48.7823916  50.8003648
  46.9108816  48.2350840  50.5002306  46.9340450  47.1677650  50.2802459
  47.8865721  49.2061505  50.5458374  48.8686189  49.0653231  50.3564931
  47.3058176  50.3982419  50.8930152  47.8781045  51.6608568  51.0693507
  48.9527609  51.7711380  50.9242633  47.0414091  52.6906318  51.4173211
  47.4537389  53.6897386  51.5582810  45.6649222  52.4915936  51.5971706
  45.0105258  53.3173302  51.8764983  45.0949176  51.2381041  51.4250207
  44.0179091  51.1367508  51.5587402  45.9244357  50.1654432  51.0681459
  44.6624366  48.3381160  53.4081638  45.7805096  48.2376625  53.8981770
  43.7839552  49.2464869  53.8386144  42.8778923  49.3688409  53.4094537
  44.1799293  50.1741208  54.9037758  45.1441263  50.6132478  54.6476687
  43.1669456  51.3012739  55.1011610  43.0552095  51.8395069  54.1599280
  42.1939734  50.9326466  55.4260289  43.6074048  52.3097202  56.1230854
  44.5288356  53.2996467  55.7901817  44.9106089  53.3519306  54.7705664
  44.9646997  54.2206612  56.7481565  45.6861731  54.9920674  56.4788808
  44.4748244  54.1501189  58.0473281  44.8013306  54.8730415  58.7949085
  43.5680068  53.1564412  58.3919101  43.1923643  53.0911479  59.4130514
  43.1373597  52.2406099  57.4295859  42.4251355  51.4608695  57.6994776
  44.4319254  49.4573916  56.2300832  45.3715123  49.7891108  56.9596363
  43.6008597  48.4633672  56.5326826  42.7978318  48.2613195  55.9543902
  43.7864356  47.6853299  57.7593723  43.8751334  48.3591363  58.6115559
  42.5999457  46.7560427  57.9942172  42.5031848  46.2053278  57.0585625
  42.8642534  46.0661248  58.7956251  41.2671489  47.4376133  58.3258741
  41.1268905  48.3010525  57.6755656  40.1357707  46.4562657  58.1116238
  40.2750991  45.5927080  58.7619734  39.1867392  46.9381245  58.3466813
  40.1292072  46.1299406  57.0716386  41.2522811  47.9680999  59.7534163
  42.0530068  48.6968927  59.8791096  40.2929088  48.4448564  59.9544368
  41.4002725  47.1427571  60.4498408  45.0960029  46.8955077  57.7136647
  45.7842913  46.7784541  58.7248415  45.4346808  46.3772123  56.5347736
  44.7840393  46.4046631  55.7627557  46.7234783  45.7157789  56.3322892
  46.8327427  44.9109888  57.0592509  46.8373423  45.1218739  54.9228532
  46.2262321  44.2226903  54.8446725  46.5199065  45.8429148  54.1695706
  48.2633215  44.7133955  54.5628285  48.9071410  43.5592839  54.9255924
  48.3438058  42.8522882  55.5346164  50.1917813  43.5483206  54.4126819
  50.8686346  42.8086704  54.5346929  50.3978376  44.7089338  53.7109065
  51.5320771  45.1553067  53.0206907  52.4171453  44.5191976  53.0098263
  51.4559184  46.3791579  52.3948935  52.3183954  46.7582116  51.8466675
  50.2836876  47.1576595  52.4463042  50.2327206  48.1272438  51.9509173
  49.1534010  46.7123069  53.1319012  48.2669171  47.3465357  53.1327284
  49.2047950  45.4681749  53.7826864  47.8577492  46.7009210  56.5708548
  48.8080555  46.3960739  57.2945421  47.7438545  47.8796600  55.9543249
  46.9335944  48.0556145  55.3775944  48.7902715  48.9029091  56.0124506
  49.7067626  48.5242848  55.5599168  48.3475354  50.1548049  55.2477704
  47.9317727  49.8225339  54.2965414  47.5689614  50.6443409  55.8328147
  49.4734718  51.1302639  54.9918678  50.2924240  50.9940517  53.8663135
  50.1019889  50.1728172  53.1753665  51.3358554  51.8839188  53.6200525
  51.9741525  51.7582298  52.7454777  51.5750327  52.9225561  54.5110187
  52.6008315  53.8094477  54.2598347  53.0765948  53.6129478  53.4495035
  50.7763775  53.0847815  55.6330599  50.9588288  53.9056850  56.3265508
  49.7294819  52.1851199  55.8724605  49.1012418  52.3024538  56.7554369
  49.1721737  49.2500868  57.4496073  50.3529388  49.3035253  57.7878116
  48.1679319  49.4690887  58.2950034  47.2167819  49.4593442  57.9554181
  48.3996599  49.8102922  59.6975764  49.1499111  50.5937016  59.8047776
  47.0968852  50.2818752  60.3679469  46.3232907  49.5357315  60.1865072
  47.2823251  50.4669391  61.8726514  48.0554962  51.2133276  62.0548918
  46.3443162  50.8003728  62.3165677  47.5796943  49.5193755  62.3218690
  46.6297028  51.5833560  59.7201714  46.4506170  51.4172492  58.6578913
  45.7071488  51.9159150  60.1959846  47.3973872  52.3472480  59.8435831
  49.0124758  48.6308416  60.4564625  49.9887021  48.8002567  61.1947284
  48.4534549  47.4383549  60.2552263  47.6407489  47.3529987  59.6616585
  48.9320694  46.2399024  60.9574120  48.9079981  46.4018649  62.0350427
  48.0317602  45.0458988  60.6213648  47.0286317  45.3134900  60.9533699
  48.0408832  44.9492235  59.5356987  48.4382973  43.7204475  61.2522122
  49.0247135  43.9292982  62.1469738  47.5342710  43.1781715  61.5292955
  49.2678785  42.8693016  60.2854874  48.6608287  42.6460060  59.4081456
  50.1459505  43.4401225  59.9834070  49.7090848  41.5699817  60.9400877
  50.2611803  40.9851961  60.2043452  50.3644138  41.8123944  61.7766755
  48.5544266  40.7829235  61.4299671  47.9472804  40.5578265  60.6548513
  48.8855236  39.9296838  61.8571166  48.0429532  41.3244560  62.1120496
  50.4077881  45.9306957  60.6488955  51.1764875  45.5576273  61.5491467
  50.8029233  46.1037722  59.3902337  50.1293331  46.3392376  58.6754389
  52.1716361  45.7689062  58.9742913  52.5133999  44.8949751  59.5288552
  52.2419546  45.4546079  57.4685387  53.2736089  45.1732108  57.2573415
  51.5901306  44.5976147  57.2988679  51.8281726  46.5983263  56.5469083
  51.3328010  46.1828076  55.6693823  51.1294681  47.2337378  57.0911200
  52.9986965  47.4478525  56.0863551  54.1077787  46.9457283  55.8763198
  52.7547552  48.7390683  55.9159808  53.4956056  49.3538249  55.6105032
  51.8290897  49.1025640  56.0923773  53.2130062  46.8108266  59.4247522
  54.4207085  46.6102987  59.2512100  52.7404132  47.9097869  60.0132384
  51.7524642  48.1145255  59.9669969  53.6193040  48.8729159  60.6841770
  54.6324000  48.7762184  60.2938115  53.1389440  50.3097379  60.4494984
  52.0860226  50.3948971  60.7182059  53.7254342  50.9984278  61.0576394
  53.2722192  50.9074101  58.7431114  52.7770623  52.1186637  58.9809825
  53.7147911  48.6031859  62.1887529  54.4849278  49.2683514  62.8963017
  52.9335015  47.6386385  62.6747003  52.3265971  47.1264610  62.0506486
  52.9216528  47.2897916  64.0939679  52.9775591  46.2034149  64.1629559
  53.8119738  47.7282565  64.5447188  51.6945409  47.7713716  64.8525211
  51.6298742  47.6370925  66.0769583  50.7240637  48.3346437  64.1314160
  50.8484929  48.4784671  63.1394828  49.4569341  48.7604654  64.7440255
  48.6614764  48.4084797  64.0871752  49.3888074  48.2476077  65.7034186
  49.2884653  50.2521002  64.9683081  50.2065388  51.0449387  64.7011466
  48.1121346  50.6276894  65.4782227  47.4277009  49.9209450  65.7066130
  47.7235110  52.0387660  65.6008628  47.8412476  52.5332738  64.6366536
  46.2539864  52.2273902  66.0807371  46.0678038  53.2909861  66.2297338
  45.2651828  51.6758310  65.0481046  45.4504593  50.6121046  64.8989120
  44.2461110  51.8197596  65.4070982  45.3946452  52.2027470  64.1027477
  46.0588583  51.5590118  67.3323166  45.1514224  51.6796844  67.6214508
  48.6657261  52.8534976  66.4824461  49.1207253  53.9107559  66.0614004
  48.9612986  52.3729944  67.6918975  48.5385882  51.5187715  68.0261406
  49.8334323  53.1214520  68.6049506  49.4028901  54.1102606  68.7630331
  49.9683199  52.4195698  69.9691943  50.4361040  51.4460864  69.8221972
  50.8237021  53.2573401  70.9207652  50.3562818  54.2308676  71.0686238
  50.9082378  52.7460630  71.8796962  51.8170884  53.3930229  70.4931271
  48.6675005  52.2648419  70.5422932  48.7428596  51.8277291  71.3936766
  51.2151000  53.3698649  67.9940010  51.7217337  54.4928532  68.0226813
  51.8151582  52.3300896  67.4222409  51.3767778  51.4201901  67.4244571
  53.1562592  52.4526018  66.8498706  53.8345142  52.8740788  67.5917779
  53.6926047  51.0786094  66.4186580  53.5422519  50.4031129  67.2607968
  53.0813768  50.7514805  65.5775354  55.1708330  51.0659369  66.0112974
  55.3724197  50.1278637  65.4941104  55.3425370  51.8997247  65.3305495
  56.1040788  51.1932380  67.2198484  57.0976488  51.4807670  66.8759813
  55.7169332  51.9592217  67.8917760  56.2091886  49.9345064  67.9556010
  55.7811628  49.1253905  67.5287232  56.8229706  49.7845378  69.1271880
  57.3958411  50.8233661  69.7263617  57.3656838  51.7337897  69.2901057
  57.8587158  50.6976181  70.6152003  56.8580869  48.5855934  69.7017097
  56.4196890  47.7977950  69.2464284  57.3229897  48.4683923  70.5906574
  53.1854558  53.4354317  65.6714488  54.1128111  54.2389388  65.5522873
  52.1661738  53.3855827  64.8168722  51.4585544  52.6704048  64.9057248
  52.1476164  54.2370749  63.6239939  53.1291979  54.3989756  63.1785895
  51.1650269  53.6874885  62.5354106  51.2517779  52.6011334  62.5152315
  49.6962907  54.0823714  62.8272591  49.6086531  55.1686611  62.8471360
  49.0495942  53.6804146  62.0473136  49.3953949  53.6763712  63.7930359
  51.6192131  54.0863984  61.1253742  51.5357766  55.1707625  61.0526165
  52.6651219  53.7955985  61.0273451  50.7980697  53.4327056  60.0008461
  49.7520550  53.7234367  60.0979474  51.1780589  53.7625365  59.0339341
  50.8813986  52.3482720  60.0726776  51.9123918  55.7257139  63.9368412
  52.4608322  56.5968633  63.2582568  51.1211939  56.0161418  64.9693084
  50.6743933  55.2772484  65.4932409  50.7725966  57.4116854  65.2927335
  50.9385811  58.0833216  64.4504431  49.2994779  57.5634865  65.7979876
  49.0901129  58.6221254  65.9514490  48.3149096  56.9936416  64.7904888
  48.5233663  55.9348499  64.6368442  47.2990226  57.1124681  65.1672573
  48.4151053  57.5242741  63.8436577  49.1081708  56.9465161  67.1912838
  48.3038558  56.2148280  67.1150556  50.0368255  56.4389814  67.4522599
  48.7702152  57.9541858  68.2582716  47.8413679  58.4618351  67.9982046
  48.6499926  57.4450883  69.2145485  49.5743371  58.6859903  68.3354073
  51.7116980  58.0967249  66.2776718  51.6140574  59.3107187  66.4806752
  52.6051052  57.3317891  66.8982287  52.6659972  56.3451760  66.6908976
  53.4424959  57.8675327  67.9688214  52.9204725  58.6840731  68.4676726
  53.7640303  56.7808655  69.0096514  54.1843262  55.9144785  68.4989418
  54.4934531  57.1736079  69.7180269  52.5875115  56.3946808  69.7068557
  52.8052693  55.7172761  70.3512967  54.7225754  58.5197784  67.4703348
  55.3484237  58.0513790  66.5079721  55.0878641  59.6212650  68.1234967
  54.4015894  60.1125360  68.6782753  56.4103783  60.2166873  67.9737556
  56.7714419  60.0255785  66.9632064  56.3672254  61.7489975  68.2027740
  55.9577182  61.9366521  69.1953413  57.7525382  62.3730486  68.0992470
  58.1625276  62.1861949  67.1067279  57.6807862  63.4478698  68.2657103
  58.4072304  61.9323701  68.8510988  55.5290697  62.3360742  67.1944383
  55.4920296  63.2867294  67.3228245  57.3522634  59.4606798  68.9194527
  58.0414458  58.5392505  68.4802072  57.3444845  59.7957365  70.2118139
  56.8671507  60.6261609  70.5321996  58.0658573  58.9867485  71.1956730
  59.1295445  58.9873004  70.9576218  57.8799092  59.5336419  72.6341402
  56.8172648  59.5206007  72.8764560  58.6447603  58.6871592  73.6519078
  59.7076121  58.7000996  73.4104992  58.4946676  59.0958540  74.6511775
  58.2780816  57.6611605  73.6206992  58.3600351  60.8814372  72.6986693
  58.2447569  61.2198714  73.5896090  57.5565968  57.5427700  71.1022829
  56.3461791  57.3065313  71.1668450  58.4907750  56.6031059  70.9275814
  59.4359235  56.9259891  70.7774477  58.2103312  55.1634337  70.7705172
  59.1458646  54.6383374  70.5777731  57.5592397  54.5619333  72.0255200
  58.0110596  55.0231262  72.9037336  56.4901354  54.7740185  72.0138631
  57.7558005  53.0507557  72.1126004  58.8477740  52.5301810  71.8336167
  56.6958289  52.3371135  72.4899385  56.7679601  51.3324857  72.5649052
  55.8250504  52.8040400  72.6992828  57.4244124  54.7675257  69.5098596
  56.8086409  53.6921230  69.4472153  57.4604582  55.6238807  68.4942603
  57.9683877  56.4947023  68.5557157  56.7566981  55.3190938  67.2515168
  56.6102224  54.2394270  67.2204742  55.7874903  55.8154803  67.2998510
  57.4707046  55.7552671  65.9917563  58.6471544  56.1358040  66.0246116
  56.7333370  55.7174170  64.8798914  55.7534033  55.4843241  64.9540333
  57.2810967  55.9992459  63.5520075  58.0511028  55.2502080  63.3672591
  56.4646465  55.8628177  62.8428560  57.8797149  57.3823927  63.3568275
  58.7089375  57.5812898  62.4688912  57.4689464  58.3470122  64.1796473
  56.7467562  58.1707769  64.8633736  57.9645701  59.7213286  64.0288199
  58.5028946  59.8175163  63.0859234  56.7942511  60.7221930  64.0316085
  56.1736373  60.4802324  64.8943906  57.2270046  61.7139827  64.1626719
  55.9301196  60.7038347  62.7566670  55.2010157  61.5119788  62.8150749
  56.5909491  60.8721378  61.9063256  55.1885382  59.3955512  62.5435652
  55.4374040  58.6853223  61.5671423  54.2847474  59.0633248  63.4622892
  53.7644655  58.2029601  63.3664727  54.1233006  59.6730896  64.2511004
  59.0285972  60.1167589  65.0683948  59.3164780  61.3036589  65.2435383
  59.6433287  59.1309583  65.7249041  59.4382708  58.1631904  65.5212477
  60.5645358  59.4302763  66.8299453  60.0655600  60.0798832  67.5490651
  61.0110695  58.1524105  67.5512190  60.1420254  57.5023594  67.6526846
  61.7612514  57.6611443  66.9315540  61.6004997  58.4369924  68.9373864
  62.4421264  59.1184463  68.8133468  60.8248881  58.9224032  69.5297563
  62.0657343  57.1864939  69.6454198  61.3155441  56.6772919  70.5069034
  63.1800300  56.7054642  69.3373343  61.7959242  60.2291618  66.4172255
  62.2564483  61.1065062  67.1621397  62.3352436  59.9229525  65.2401790
  61.8645624  59.2979612  64.6014737  63.6621687  60.4173575  64.8748758
  63.9059860  61.3046266  65.4591751  64.7166896  59.3374803  65.1590990
  64.3625197  58.4099093  64.7093491  65.6405281  59.6477911  64.6709089
  64.9762315  59.1154491  66.6379479  65.6307295  59.9099811  66.9963501
  64.0240610  59.1637407  67.1662863  65.6260799  57.7743221  66.8926799
  65.0204836  56.9917531  66.4355828  66.6210804  57.7696204  66.4476503
  65.7512808  57.4944808  68.3249727  64.9676110  57.0386106  68.7701058
  66.8170537  57.7945829  69.0661210  67.8670376  58.4030085  68.5277371
  67.8601220  58.6418281  67.5464027  68.6679214  58.6242609  69.1019603
  66.8324354  57.4872468  70.3582966  66.0354837  57.0268836  70.7742697
  67.6410105  57.7153379  70.9189029  63.7948594  60.8854383  63.4329480
  62.9894283  60.5230579  62.5773944  64.8279803  61.6889061  63.1893050
  65.3270953  62.0722165  63.9792776  65.2757309  62.0491817  61.8459842
  64.7649784  61.4283919  61.1098788  64.9645998  63.5204801  61.5465991
  65.3679797  64.0994310  62.3773817  65.5030164  63.7730625  60.6331388
  63.4799226  63.8479084  61.3703913  63.1730097  63.5118154  60.3799637
  62.9191041  63.3016808  62.1288239  63.1994360  65.3494800  61.5100910
  62.1241552  65.4959154  61.4079788  63.5137344  65.6530800  62.5086614
  63.9312685  66.1970527  60.4651508  64.1271178  67.1718896  60.9117341
  64.8771786  65.7022107  60.2449584  63.1619169  66.3745368  59.2084991
  62.2855656  66.8334400  59.4122539  63.6959341  66.9395744  58.5637836
  62.9807026  65.4713748  58.7943024  66.7891088  61.8179662  61.7592675
  67.4688049  61.6883926  62.7852235  67.3181295  61.7771068  60.5428200
  66.7239522  61.7959217  59.7263038  68.7614851  61.6549314  60.3468642
  69.1914485  61.0708522  61.1605485  69.0799798  60.9551396  59.0196737
  68.5094711  61.4193590  58.2152363  70.1446820  61.0265075  58.7973769
  68.7341413  59.4913892  59.0033247  67.7401158  59.0084686  58.1595717
  67.2142772  59.7035222  57.5049770  67.4120614  57.6490449  58.1440328
  66.6327902  57.2820180  57.4761044  68.0807261  56.7668283  58.9810844
  67.8328819  55.7054112  58.9729070  69.0753317  57.2449671  59.8366187
  69.5994188  56.5574305  60.5004910  69.3970925  58.5968785  59.8418641
  70.1761788  58.9690992  60.5071281  69.4450932  63.0202347  60.3776672
  68.9711143  63.9753340  59.7653412  70.5585292  63.1056666  61.1054767
  70.8427914  62.3361239  61.6946272  71.3769918  64.3107766  61.1006944
  70.7837349  65.1957460  61.3308562  72.5427625  64.2196266  62.1142344
  73.1323755  63.3303458  61.8914442  73.4393589  65.4610931  62.0310664
  72.8505095  66.3507933  62.2542050  74.2510701  65.3727244  62.7531581
  73.8546410  65.5433650  61.0266393  72.0096880  64.0426598  63.5308950
  71.4215234  63.1266541  63.5865549  72.8446967  63.9806421  64.2287589
  71.3810166  64.8939278  63.7920769  71.9225393  64.5095695  59.6891377
  72.5953247  63.6314192  59.1479900  71.6020769  65.6508220  59.0880216
  71.0317319  66.3341766  59.5653396  72.0565983  65.9529330  57.7356987
  72.2158248  67.0304043  57.6932532  73.0093652  65.4399401  57.6046528
  71.1170781  65.5468323  56.6108818  71.3912733  65.8504974  55.4533640
  70.0287533  64.8473652  56.9467331  69.9065917  64.5478888  57.9035454
  68.9877383  64.4916883  55.9644304  68.0215681  64.6881081  56.4292243
  69.1159885  65.1472869  55.1031280  69.0264257  63.0487205  55.4967113
  70.0971059  62.4309681  55.4607978  67.8627078  62.5164340  55.1171183
  67.0210434  63.0721155  55.1711426  67.7466119  61.1138927  54.6841246
  68.3197610  60.4761572  55.3570977  66.2875578  60.6534777  54.6985481
  66.2527989  59.5828254  54.4970665  65.8642589  60.8512688  55.6833307
  65.5392000  61.3412041  53.7180686  64.6279364  61.0401266  53.7415374
  68.3384271  60.8591538  53.3005352  68.6743731  59.7183744  52.9675656
  68.4469949  61.9132459  52.4935254  68.1312693  62.8192463  52.8090883
  69.0140217  61.8059270  51.1494312  68.3718861  61.1549371  50.5561579
  69.0333262  62.8004854  50.7038076  70.4272821  61.2374183  51.1543208
  70.8822351  60.6667659  50.1573441  71.1172753  61.3942260  52.2835275
  70.7029004  61.9257072  53.0358045  72.4717014  60.8713937  52.4674764
  73.1280932  61.2667722  51.6922830  73.0240695  61.2818563  53.8306778
  72.3070847  60.9430175  54.5784881  73.9662090  60.7502282  53.9642621
  73.2567664  62.7686231  53.9925713  74.0333477  63.0741873  53.2913918
  72.3382060  63.3144429  53.7770957  73.7086022  63.1161007  55.3976313
  74.8555725  63.5223577  55.6131570  72.8184198  62.9412762  56.3666688
  73.0669395  63.1572256  57.3215014  71.8966757  62.5931131  56.1446967
  72.5596030  59.3575250  52.3449168  73.6215701  58.8284458  52.0188875
  71.4655747  58.6539629  52.6297318  70.6422531  59.1045182  53.0028816
  71.4565392  57.1970031  52.4909059  72.2831001  56.7639221  53.0542328
  70.1365846  56.5590648  52.9813754  69.3027008  57.0195275  52.4515536
  70.1376047  55.0606252  52.7198821  70.9709960  54.5993686  53.2497898
  69.2005213  54.6292193  53.0718256  70.2420306  54.8779866  51.6503776
  69.9358897  56.8186070  54.4675896  69.8965617  57.8929768  54.6472694
  69.0015662  56.3617513  54.7938138  70.7656091  56.3872343  55.0275753
  71.7339826  56.8164658  51.0369384  72.6813901  56.0751743  50.7562967
  70.9359152  57.3474425  50.1135245  70.1441146  57.9139870  50.3821848
  71.1182287  57.0396418  48.6983472  71.2410758  55.9646140  48.5667309
  69.9015095  57.4949049  47.8913765  69.7602933  58.5671307  48.0273516
  70.0698353  57.2821240  46.8356821  68.7428674  56.8058329  48.3334559
  67.9835219  57.0963296  47.8229600  72.4112394  57.6357583  48.1379067
  73.0870105  57.0023308  47.3162686  72.7685683  58.8322033  48.6082092
  72.1743358  59.3041524  49.2747308  73.9696282  59.5265624  48.1341019
  73.9578417  59.5802006  47.0454867  74.0266480  60.9525071  48.6942621
  73.8711862  60.8832599  49.7708937  75.0268439  61.3378119  48.4961496
  72.9871228  61.8979835  48.0889897  73.3489599  62.2054988  47.1078632
  72.0594967  61.3372400  47.9742041  72.7321700  63.1291345  48.9433919
  73.3325641  63.2440289  50.0381851  71.9285645  63.9880296  48.5172272
  75.2418605  58.7582833  48.4987636  76.1304385  58.5668015  47.6557187
  75.3229737  58.3023309  49.7448680  74.6155183  58.5429286  50.4243671
  76.5143470  57.5890746  50.2066343  77.4040640  58.0978386  49.8356061
  76.5826894  57.5361803  51.7358764  75.6270694  57.1698779  52.1109928
  77.3742314  56.8434237  52.0216203  76.8696513  58.9086996  52.3322913
  77.7386707  59.3135621  51.8136465  76.0022983  59.5379564  52.1326996
  77.1386443  58.8797012  53.8166190  76.2880570  58.4446393  54.3413296
  78.0320284  58.2900618  54.0222638  77.3499387  60.2391538  54.3129105
  77.0856332  60.9896155  53.6907777  77.8477465  60.5498408  55.5064829
  78.2049363  59.6014989  56.3619975  78.0990030  58.6298959  56.1073098
  78.5812453  59.8552463  57.2642743  77.9984452  61.8258010  55.8437015
  77.7345294  62.5515578  55.1927594  78.3762520  62.0643437  56.7494929
  76.6630222  56.2072841  49.5692155  77.7923242  55.7307490  49.3700134
  75.5406855  55.5738076  49.2228217  74.6430594  55.8867047  49.5640872
  75.5959098  54.3258820  48.4548842  76.3838535  53.7030865  48.8784049
  74.2562103  53.5454573  48.4704581  73.4668706  54.1925616  48.0879673
  74.3511888  52.2874812  47.6007386  75.1400630  51.6396242  47.9829157
  73.4004059  51.7550566  47.6259719  74.5807579  52.5716271  46.5737730
  73.9105876  53.1350151  49.9056930  74.6579694  52.4047282  50.2158579
  73.9997858  54.0295936  50.5220310  72.5108026  52.5360773  50.0751281
  72.4209976  51.6411364  49.4594044  72.3512074  52.2743340  51.1211296
  71.7628137  53.2660016  49.7655751  76.0868424  54.6003104  47.0290977
  76.9033563  53.8366867  46.4974776  75.6290929  55.7005227  46.4293743
  74.8851747  56.2372931  46.8519409  76.1265136  56.1170815  45.1154487
  75.9497176  55.3206093  44.3926248  75.4197799  57.3857709  44.6284521
  74.3711984  57.1347071  44.4686299  75.4980800  58.1285377  45.4223454
  76.0065676  57.9527085  43.3443384  76.9757402  58.3824752  43.5975297
  76.1482560  57.1160126  42.6602577  75.0018148  59.1975259  42.5493747
  74.9402556  60.5122824  43.7733105  75.9511642  60.8619037  43.9829002
  74.3426954  61.3391010  43.3893918  74.4895200  60.1343165  44.6909599
  77.6430515  56.3200601  45.1531128  78.3575137  55.9008778  44.2319961
  78.1275181  56.9458122  46.2251615  77.4931459  57.3328735  46.9091606
  79.5645267  57.1607189  46.4108722  79.9572394  57.7359790  45.5724501
  79.8465113  57.9308303  47.7093618  79.3771210  57.3784764  48.5234117
  80.9255005  57.9548605  47.8620215  79.3047379  59.3573715  47.6842082
  79.0315106  59.8850675  46.5835480  79.1626384  59.9515030  48.7733448
  80.3192945  55.8303015  46.3974956  81.3644846  55.7069855  45.7485797
  79.7759488  54.8342329  47.0931168  78.9473067  55.0075900  47.6439334
  80.3708809  53.4968177  47.1360389  81.4141115  53.5685548  47.4436470
  79.6271062  52.6052677  48.1333306  78.5993143  52.6704196  47.7762614
  80.0035150  51.5949552  47.9730647  79.6695160  52.9339359  49.6268019
  79.3778250  53.9731244  49.7788033  78.7093600  52.0246070  50.3734862
  79.0007025  50.9851988  50.2223279  78.7395928  52.2588066  51.4375996
  77.6976613  52.1762252  49.9972176  81.0828802  52.8005770  50.1938301
  81.7503671  53.4865843  49.6723372  81.0727698  53.0419313  51.2567257
  81.4347046  51.7779919  50.0573083  80.3922553  52.8074515  45.7722848
  81.3551677  52.1100870  45.4416528  79.3306634  52.9957484  44.9923433
  78.5705726  53.5763492  45.3167877  79.1773288  52.3039473  43.7138701
  79.6477205  51.3221572  43.7678999  77.6921567  52.1181816  43.3742955
  77.3041411  53.1349469  43.4353820  77.6157052  51.7617755  42.3470517
  76.8753024  51.2038711  44.2940544  77.0844842  51.4695671  45.3302732
  75.3782332  51.3565854  44.0212317  75.1681938  51.0906009  42.9852614
  74.8183251  50.6982965  44.6855053  75.0796835  52.3898560  44.1982071
  77.3021406  49.7455627  44.1577468  78.3549595  49.6483110  44.4227259
  76.7015470  49.1268150  44.8244850  77.1553155  49.4181534  43.1285022
  79.9066791  52.9877858  42.5565913  80.1418058  52.3654114  41.5193997
  80.2479877  54.2634988  42.7345089  80.0019525  54.7279940  43.5969532
  80.9744619  55.0275974  41.7165572  81.1704019  56.0204966  42.1213510
  81.9201766  54.5189881  41.5293688  80.2228540  55.1679383  40.4086459
  79.0364725  55.5163690  40.3940813  80.9128295  54.8691858  39.3078432
  81.8781609  54.5836376  39.3896787  80.3567454  55.0588990  37.9677323
  79.8135969  56.0030495  37.9268820  81.4759867  55.0885347  36.9091333
  81.0199152  55.3710254  35.9602935  82.1964213  55.8505356  37.2065029
  82.1911832  53.7449094  36.7509338  81.8690015  52.7754132  37.4756476
  83.0954790  53.6596594  35.8889480  79.2810772  54.0380891  37.5895762
  78.7597364  54.0784561  36.4789574  78.9662504  53.1235555  38.5070152
  79.4879841  53.0885592  39.3711151  77.9350962  52.1070991  38.2759562
  78.0508972  51.6879652  37.2764483  78.0507907  50.9744075  39.2973780
  78.0164643  51.4319129  40.2861195  77.1789838  50.3340011  39.1634660
  79.3221215  50.1369928  39.1679451  79.2842421  49.5833827  38.2297651
  80.1835556  50.8048098  39.1606182  79.4475835  49.1615675  40.3266473
  79.3397801  49.7101407  41.2623529  78.6545548  48.4178451  40.2486606
  80.7390330  48.4713707  40.3335565  80.7740788  47.5665458  39.8861605
  81.8533468  48.9506277  40.8884353  81.8650045  50.1347512  41.4895073
  81.0193096  50.6854403  41.5300249  82.7195119  50.4791923  41.9033636
  82.9714609  48.2394862  40.8369817  82.9733388  47.3396200  40.3783561
  83.8160190  48.6010012  41.2566569  76.5191283  52.6869737  38.2974576
  75.5901689  52.0787334  37.7636035  76.3621218  53.8492972  38.9243004
  77.1308910  54.2483843  39.4437451  75.0784783  54.5575449  38.9284924
  74.2484478  53.8667318  38.7804186  74.8408690  55.3437960  40.2476615
  75.6419641  56.0721830  40.3733526  73.4877353  56.0722577  40.2098355
  72.6860566  55.3444298  40.0846207  73.3412611  56.6164371  41.1428492
  73.4750549  56.7731724  39.3751742  74.9103596  54.4112294  41.4521492
  75.8940284  53.9435189  41.4939155  74.7412158  54.9825467  42.3648850
  74.1455780  53.6400682  41.3598436  75.0312667  55.5091911  37.7366779
  75.9036976  56.3717760  37.5896213  74.0160330  55.3315445  36.8928437
  73.3476371  54.5985960  37.0829295  73.8401613  56.1325916  35.6845218
  74.7269821  56.7449831  35.5213506  73.6286759  55.2369920  34.4539406
  72.5943463  54.8957044  34.4961823  73.7644880  55.8761617  33.5815202
  74.5610526  54.0271462  34.3498689  74.4852119  53.4589667  35.2769725
  74.2245337  53.4094474  33.5172193  76.0107137  54.4380600  34.1235624
  76.0625034  55.0636014  33.2324313  76.3521593  55.0082980  34.9874738
  76.8990112  53.2187295  33.9385335  76.7535809  52.5425824  34.7810154
  76.6190735  52.7126352  33.0146274  78.3311792  53.6234086  33.8684357
  78.5908943  54.0920045  34.7246282  78.9072201  52.8029308  33.7455814
  78.4662357  54.2496076  33.0875813  72.6438859  57.0586592  35.8588029
  71.4969617  56.6036081  35.8700483  72.9199311  58.3527229  35.9888150
  73.8833878  58.6550757  36.0096302  71.8719069  59.3608549  36.1630450
  71.0325676  58.9273159  36.7067846  72.3999713  60.5622794  36.9544294
  73.2191411  60.9102702  36.3251739  71.6116799  61.3148458  36.9728787
  72.9146937  60.3270682  38.3787789  73.7262452  59.6000297  38.3487761
  73.4234548  61.6305585  38.9789489  72.6122877  62.3579927  39.0097108
  73.7858892  61.4482781  39.9906385  74.2369324  62.0199133  38.3667745
  71.8374536  59.7027732  39.2681374  71.5307679  58.7441431  38.8497219
  72.2369481  59.5499112  40.2707035  70.9761483  60.3688970  39.3184492
  71.3129014  59.8303637  34.8263804  72.0091266  59.7945238  33.8095712
  70.0580322  60.2834593  34.8484174  69.5493303  60.2326993  35.7194772
  69.3334996  60.7095417  33.6417371  68.2831435  60.8650442  33.8880503
  69.9031937  62.0168108  33.0768140  70.9737595  61.8758228  32.9281177
  69.4242653  62.1996483  32.1148899  69.6716267  63.2083120  33.9924862
  68.6099530  63.2260531  34.2387281  70.2529307  63.0639543  34.9031703
  70.0616933  64.5209664  33.3481970  71.2538603  64.8810761  33.4151067
  69.1696676  65.1919816  32.7916481  69.2633368  59.6000128  32.5928897
  69.4538577  59.8327910  31.3939998  68.9876620  58.3895358  33.0777070
  68.9625887  58.2747411  34.0808485  68.7536468  57.2182044  32.2419554
  68.7761625  57.5049087  31.1905787  69.8369907  56.1579683  32.4846038
  70.1900825  56.3039200  33.5054484  69.3447986  55.1885998  32.4060437
  71.0247592  56.2054281  31.5232331  71.5814417  55.2735995  31.6227358
  70.6382429  56.2904690  30.5076174  71.9417171  57.3738231  31.8130958
  71.4641942  58.2960331  31.4820378  72.1282590  57.4266416  32.8857149
  73.2213305  57.2349251  31.1216960  73.2646781  56.5639440  30.3680351
  74.3161141  57.9298429  31.4162942  74.3060047  58.8265768  32.3994479
  73.4596213  58.9822866  32.9281156  75.1447605  59.3473579  32.6124629
  75.4291891  57.7230782  30.7249878  75.4382703  57.0404763  29.9806274
  76.2624802  58.2491990  30.9461699  67.3749413  56.6228139  32.5324073
  67.2814233  55.5772996  33.1844496  66.2959284  57.2816467  32.0577878
  66.1961959  58.5812617  31.3666292  66.3690072  58.4442981  30.2991661
  66.9392554  59.2697471  31.7690588  64.7979914  59.0106084  31.6710294
  64.4295651  59.6490616  30.8680733  64.7826048  59.5635324  32.6102523
  63.9967210  57.7515470  31.7792848  63.6334723  57.5204344  30.7779175
  63.1531991  57.8070775  32.4673886  64.9820188  56.6628302  32.2428513
  64.8649656  56.3885048  33.2912512  64.8473366  55.4164120  31.3737693
  65.1337270  55.4658518  30.1787587  64.4376002  54.3082732  31.9864278
  64.3326084  54.3127641  32.9909455  64.2170992  53.0524195  31.2723944
  64.9454038  52.8882453  30.4782165  64.2602643  51.8435063  32.2417513
  63.5850485  52.0437981  33.0736564  63.8384404  50.5476247  31.5429455
  64.5135196  50.3464113  30.7111509  63.8805871  49.7212669  32.2524925
  62.8205701  50.6515943  31.1671371  65.6575542  51.7053433  32.8619446
  65.9015472  52.6124665  33.4148434  65.6718692  50.8521571  33.5401541
  66.3928891  51.5531587  32.0718666  62.8966066  53.1028822  30.5000176
  61.8624350  53.5035568  31.0466408  62.9507931  52.7063978  29.2264443
  63.8351486  52.3880341  28.8567699  61.7979351  52.7680838  28.3181237
  60.8931675  53.0936727  28.8314333  62.0737452  53.7103141  27.0999596
  61.2625254  53.6023273  26.3799862  62.1619267  55.1629169  27.5510816
  62.9732807  55.2717885  28.2707707  62.3541482  55.8008024  26.6883802
  61.2215284  55.4568502  28.0172933  63.3418652  53.2787373  26.3414327
  64.1956340  53.5831521  26.9468344  63.3170761  52.1913683  26.2699230
  63.4710482  53.8791054  24.9393645  63.4963708  54.9665125  25.0101055
  64.3910832  53.5242108  24.4749459  62.6178110  53.5747303  24.3331946
  61.3667108  51.3980517  27.7810904  60.2380047  51.2499344  27.3067437
  62.2630207  50.4123751  27.8604319  63.1175198  50.5518275  28.3805123
  62.0778099  49.1419324  27.1580073  61.0309656  48.8399989  27.1904472
  62.4972532  49.3061059  25.6852196  61.9131305  50.1297822  25.2747843
  63.5482727  49.5920020  25.7267102  62.3401041  48.0823625  24.7975877
  61.0765058  47.5760611  24.4776828  60.1933595  48.0659936  24.8877050
  60.9346624  46.4600478  23.6464333  59.9434029  46.0741871  23.4084879
  62.0633869  45.8452673  23.1213143  61.9213847  44.7422573  22.3014617
  61.0047315  44.4917259  22.1651516  63.3257651  46.3299232  23.4176398
  64.2127176  45.8464905  23.0081176  63.4590685  47.4487403  24.2493445
  64.4493615  47.8413346  24.4801899  62.8607264  48.0190175  27.8227312
  64.0456427  48.1701604  28.1312942  62.1815363  46.8997733  28.0596432
  61.1778013  46.8909099  27.9476749  62.8318806  45.6954578  28.5662926
  63.9130015  45.7803038  28.4563926  62.4839342  45.4138664  30.0518172
  61.3999797  45.4039001  30.1660264  63.0567892  44.0596500  30.4915105
  64.1408243  44.0690132  30.3780164  62.8028934  43.8790358  31.5360277
  62.6340852  43.2677366  29.8732115  63.0151828  46.5397689  30.9485405
  64.1020796  46.5185219  30.8691386  62.6393628  47.4753425  30.5343414
  62.6137304  46.4355848  32.4047268  62.9896213  45.5004131  32.8197687
  63.0352472  47.2739989  32.9592398  61.5269037  46.4572315  32.4849712
  62.4659460  44.5086096  27.6798112  61.2860935  44.2310370  27.4563417
  63.4942950  43.8275867  27.1756137  64.4313154  44.1059775  27.4297607
  63.3313793  42.7182709  26.2394733  62.2734219  42.5468962  26.0408382
  64.0344149  43.0503660  24.9096602  63.6641912  44.0270468  24.5980062
  65.1073592  43.1103885  25.0921096  63.7620734  42.0279585  23.8083473
  63.4162010  40.8646912  24.1045153  63.9221652  42.3988575  22.6223686
  63.9112348  41.4522493  26.8648562  65.1063867  41.3924752  27.1663328
  63.0534678  40.4520165  27.0694022  62.0759999  40.5855475  26.8530105
  63.4675477  39.1726198  27.6547405  64.5190568  39.2201905  27.9378744
  62.6398636  38.8585598  28.9009087  61.6120871  38.7271078  28.5625375
  63.0172343  37.9131673  29.2906837  62.6811970  39.9058953  29.9918852
  63.7138835  40.2275540  30.1267743  62.0684086  40.7620730  29.7098350
  62.1696958  39.3570930  31.3069835  62.8993204  38.6851409  32.0387037
  60.9031441  39.6263957  31.6070830  60.5088051  39.2852870  32.4720935
  60.3408992  40.1709013  30.9687290  63.3644195  37.9898324  26.6825252
  63.3379762  36.8326102  27.1126838  63.3188784  38.2724295  25.3833216
  63.3421728  39.2318758  25.0686482  63.1423252  37.2139311  24.3791841
  62.4856805  36.4384192  24.7735166  62.5308579  37.7580934  23.0593605
  62.4555753  36.9391386  22.3439964  61.1442732  38.3492309  23.3035719
  61.2188224  39.1686048  24.0185324  60.7376187  38.7233936  22.3640329
  60.4851952  37.5782613  23.7027243  63.3821580  38.7669530  22.5067201
  62.9981332  39.0984424  21.6917109  64.4318613  36.4557615  24.0570187
  64.3912848  35.4208223  23.3872901  65.5664727  36.9687319  24.5301943
  65.5400574  37.8264967  25.0627740  66.8757289  36.3844124  24.2167601
  66.7456299  35.4815171  23.6201416  67.7263626  37.3807486  23.4189427
  67.9075919  38.2440346  24.0592493  68.6741372  36.8935151  23.1899738
  67.0644982  37.8392177  22.1230111  66.9861720  36.9754094  21.4628589
  66.0657162  38.2013826  22.3666772  67.8482869  38.9434188  21.4234482
  68.1179752  39.7097310  22.1501757  68.7540883  38.5217576  20.9877589
  67.0593819  39.5652307  20.3562496  66.5649077  40.4135776  20.5926858
  66.9565689  39.0943404  19.1130888  67.5921997  37.9842433  18.7521804
  68.1602271  37.4897148  19.4251488  67.5042629  37.6403221  17.8066198
  66.2083189  39.7362936  18.2232669  65.7202721  40.5786556  18.4922217
  66.1307607  39.3791848  17.2816955  67.6037323  35.9065793  25.4756018
  67.0942729  36.0609813  26.5903270  68.7866273  35.3197096  25.2896679
  69.1422797  35.2242164  24.3491937  69.5548136  34.7221124  26.3880014
  68.9754766  33.9215024  26.8478832  70.8760254  34.1371742  25.8720512
  70.6319332  33.4268679  25.0821252  71.4557773  34.9599535  25.4536949
  71.6918888  33.4382131  26.9470124  71.8428332  34.1451987  27.7627869
  71.0988594  32.5954904  27.3023063  73.0362458  32.9385129  26.4567095
  73.6242695  33.5521619  25.5364481  73.5075850  31.9249745  27.0081840
  69.8202980  35.6976640  27.5328516  69.6130534  35.3634254  28.7002124
  70.2919052  36.8934320  27.1875770  70.5518894  37.0591813  26.2257897
  70.4837983  37.9719488  28.1518906  70.4588672  37.5713617  29.1653044
  71.8358755  38.6522980  27.9282140  71.8742762  39.0114995  26.8998177
  71.9241293  39.4972123  28.6111717  73.0112864  37.7151896  28.1599424
  72.9836576  36.8700336  29.0557472  74.0558586  37.8669449  27.3538853
  74.8644525  37.2715856  27.4626194  74.0368301  38.5770117  26.6358715
  69.3635585  38.9999213  28.0353006  68.8611225  39.2540609  26.9402348
  68.9772003  39.5862633  29.1658984  69.3714411  39.2867917  30.0462337
  67.9445309  40.6221017  29.1851008  67.1206411  40.3665807  28.5187573
  67.3768109  40.8425166  30.6148561  68.1840758  41.1838406  31.2628688
  66.2574627  41.8817403  30.6060883  65.4495765  41.5408790  29.9586051
  65.8782330  42.0165948  31.6190541  66.6446491  42.8304182  30.2343377
  66.8650391  39.5331732  31.1962015  67.6825398  38.8141012  31.2484527
  66.4717100  39.7087362  32.1974855  66.0736578  39.1371893  30.5597951
  68.5109063  41.9291466  28.6317939  69.6335304  42.3141094  28.9677057
  67.7341955  42.5946212  27.7793181  66.8572313  42.1889587  27.4852581
  68.1340294  43.8758526  27.1998841  69.1728740  44.0833197  27.4565131
  68.0011124  43.8550143  25.6690204  66.9497612  43.6014292  25.5331732
  68.1790677  44.8688354  25.3104135  68.8711858  42.8713965  24.8741837
  68.7918443  41.8822365  25.3251474  68.4086658  42.8061290  23.4196936
  68.4881628  43.7948936  22.9678932  69.0356769  42.1044157  22.8696424
  67.3716733  42.4724427  23.3822721  70.3516784  43.2354659  24.9525230
  70.6764604  43.2165767  25.9928399  70.9342727  42.5157778  24.3774282
  70.5028768  44.2343588  24.5433153  67.2964499  45.0055950  27.7965144
  66.0640071  44.9468903  27.7822818  67.9743616  46.0221492  28.3286791
  68.9838888  45.9946109  28.3426738  67.3021368  47.1739663  28.9368209
  66.2198933  47.1047062  28.8270427  67.6407540  47.3117587  30.4495967
  68.7075660  47.5088231  30.5553182  66.8444924  48.4588337  31.0819538
  65.7775142  48.2622414  30.9770258  67.0967098  48.5371510  32.1394760
  67.0922372  49.3939391  30.5796570  67.3659238  46.0054021  31.1871913
  67.9788547  45.2111065  30.7611488  67.6098069  46.1252987  32.2427696
  66.3124147  45.7448507  31.0855428  67.7057323  48.4497938  28.2041758
  68.8871523  48.8045310  28.1706333  66.7209080  49.1354490  27.6266482
  65.7749123  48.7827272  27.6545553  66.9833871  50.3593329  26.8665436
  68.0576915  50.4788383  26.7262308  66.3120216  50.3033322  25.4878075
  66.5445499  49.3313676  25.0527045  65.2365530  50.3816703  25.6469630
  66.7679917  51.4097708  24.5358857  66.4145651  52.3590270  24.9385061
  67.8579451  51.4011523  24.5307498  66.2538124  51.2392609  23.1163436
  65.2497088  50.5255054  22.9101325  66.8622389  51.8336751  22.2008514
  66.5412523  51.6026499  27.6316323  65.5228892  51.5879459  28.3312610
  67.3195794  52.6741974  27.4921979  68.1813243  52.5929347  26.9717255
  67.0155652  53.9504164  28.1326986  66.1604036  53.8342167  28.7985030
  68.2157721  54.4707627  28.9563637  67.9271901  55.4002953  29.4470672
  68.6391493  53.4501572  30.0093148  68.9283363  52.5204478  29.5193035
  69.4851607  53.8405496  30.5749627  67.8067324  53.2595747  30.6867076
  69.3222642  54.7306405  28.0858048  70.0654771  55.0534967  28.6005852
  66.5760313  55.0119527  27.1132832  66.7863176  54.8529480  25.9105849
  65.9699110  56.0890762  27.6114610  65.7918220  56.1269790  28.6049131
  65.4642635  57.1791591  26.7729988  64.8074221  56.7778591  26.0012366
  64.6703356  58.1819569  27.6194882  63.9874588  57.5264386  28.1599272
  65.3758521  58.6281419  28.3203915  63.8704345  59.2913994  26.9233952
  64.5580298  59.8690792  26.3056577  62.7485243  58.7313263  26.0492782
  62.0602244  58.1538690  26.6664372  62.2102687  59.5532475  25.5772325
  63.1739110  58.0869063  25.2799477  63.3064204  60.2556573  27.9512166
  64.1236660  60.7057123  28.5148297  62.7411627  61.0378842  27.4445550
  62.6488665  59.7167459  28.6333430  66.5722572  57.8910698  25.9890713
  66.3452033  58.3509504  24.8696472  67.7558967  57.9841889  26.5915996
  67.8298643  57.7243225  27.5647890  68.9234606  58.5961972  25.9435430
  68.5886771  59.3473072  25.2281040  69.8439320  59.2758311  26.9769448
  70.6358853  59.8123146  26.4543602  69.2381121  59.9838459  27.5424511
  70.4837137  58.2914762  27.9539948  71.6998302  58.3220661  28.1712643
  69.6709026  57.4324710  28.5605541  70.0473908  56.7620058  29.2154073
  68.6804784  57.4541105  28.3638501  69.6896631  57.6206875  25.0392984
  70.8801143  57.8187596  24.7560912  68.9857780  56.5678213  24.6147990
  68.1800551  56.3306413  25.1757407  69.4049504  55.6241729  23.5546027
  68.5763920  54.9575806  23.3153437  69.8215046  56.3690754  22.2753905
  70.6136625  57.0872289  22.4871464  70.1706959  55.6524107  21.5320486
  68.7046081  57.1383575  21.6377256  68.8838158  58.3846907  21.0774006
  67.7297421  58.8195015  20.6007725  67.6616622  59.7912564  20.1117361
  66.8091665  57.9013999  20.8368234  65.8327487  57.9611946  20.5855612
  67.3920001  56.8405905  21.4843213  66.7898850  55.9770717  21.7669763
  70.4217666  54.5304168  23.9221370  70.8308174  53.7431762  23.0575708
  70.7966243  54.4535862  25.1959492  70.4540086  55.1275959  25.8655945
  71.7687236  53.4572135  25.6493490  72.5435960  53.3293257  24.8934940
  72.4298260  53.9021029  26.9577629  71.6326922  54.1098264  27.6715752
  73.0319041  53.0682624  27.3187505  73.3106340  55.1363944  26.8071023
  74.1322911  54.8611028  26.1458950  72.7114860  55.9157289  26.3361897
  73.8710482  55.6538555  28.1235319  73.4081444  55.2272307  29.2045321
  74.7822611  56.5075022  28.0737279  71.1428797  52.0720525  25.8140708
  69.9574234  51.9501800  26.1324583  71.9500128  51.0383617  25.5836961
  72.8910001  51.2139207  25.2614830  71.5259346  49.6511734  25.7610861
  70.4730975  49.6274218  26.0422785  71.7063482  48.8451182  24.4706478
  72.7471283  48.9802572  24.1763460  71.5386193  47.8030329  24.7427237
  70.7971698  49.2183414  23.3064389  70.9358013  50.2879842  23.1491294
  71.1769831  48.6723915  22.4428518  69.0327955  48.8696961  23.5014534
  68.9929587  47.4506421  24.6034206  69.4679116  47.7110512  25.5493095
  67.9582623  47.1598515  24.7849280  69.5285072  46.6191033  24.1453460
  72.3309396  48.9848988  26.8681827  73.5628992  49.0780090  26.8986952
  71.6326945  48.3021638  27.7695665  70.6239290  48.3516361  27.7629328
  72.2801779  47.5487704  28.8349708  73.3605046  47.5644563  28.6909311
  71.9595427  48.1587611  30.2050122  70.8740739  48.2223260  30.2812752
  72.3400274  47.4990492  30.9848274  72.5573843  49.5355929  30.3747548
  71.8957541  50.6725925  29.8996523  70.9255949  50.5554413  29.4167795
  72.4567676  51.9381347  30.0353757  71.9362858  52.8200562  29.6619923
  73.6909495  52.0716484  30.6563088  74.2575649  53.3142327  30.8012818
  73.7154707  54.0183773  30.4380822  74.3648047  50.9613800  31.1324069
  75.3347730  51.0699575  31.6176624  73.7976106  49.7025507  30.9887629
  74.3232114  48.8224558  31.3592718  71.8863192  46.0821890  28.7721348
  70.7269642  45.7493805  28.5265102  72.8697170  45.2105737  28.9743734
  73.8013559  45.5546605  29.1580924  72.6679267  43.7727882  28.9017133
  71.6300616  43.5491168  28.6549215  73.5657205  43.1849628  27.8146749
  73.6347281  43.9287236  27.0208505  74.5498126  43.0363647  28.2591763
  73.0711654  41.8787086  27.2388267  73.1363459  41.1235529  28.0221480
  72.0286757  42.0131368  26.9503073  73.8757050  41.4270807  26.0325621
  74.2229727  40.2304743  25.9747310  74.1616410  42.2635984  25.1459101
  72.9706400  43.1377821  30.2565705  74.0161469  43.4098009  30.8585548
  72.0527183  42.3001299  30.7367502  71.2150856  42.1089503  30.2057877
  72.1800040  41.7081526  32.0678859  73.2470731  41.6282709  32.2754469
  71.5445075  42.6252095  33.1174171  70.4742336  42.7078042  32.9282296
  71.7061184  42.2076135  34.1111956  72.0003144  43.6137058  33.0607221
  71.5884325  40.3055000  32.1638949  70.7939547  39.8949339  31.3185468
  71.9841697  39.5776902  33.2059055  72.7273328  39.9174174  33.7995327
  71.4103950  38.2675324  33.4967118  71.2879599  37.7068474  32.5700289
  72.3234635  37.4703462  34.4344142  72.4727641  38.0836869  35.3230208
  71.7807370  36.5648014  34.7055907  73.6802159  37.0925648  33.8430859
  73.5196249  36.4887140  32.9499591  74.2134282  38.0042476  33.5736027
  74.5077122  36.2984839  34.8522149  74.6441517  36.9124725  35.7424402
  73.9548554  35.3965388  35.1147866  75.8722717  35.9120863  34.2868829
  76.3418856  35.2223390  34.9881760  75.7091798  35.4066216  33.3350396
  76.7640076  37.0925899  34.0771846  76.9156071  37.5608564  34.9591391
  77.6499022  36.7831581  33.7036306  76.3292287  37.7316467  33.4270516
  70.0179443  38.4096317  34.1186602  69.1048784  37.6458801  33.7864113
  69.8745995  39.3867404  35.0157137  70.6729813  39.9675678  35.2286108
  68.6142057  39.6513602  35.7195075  67.7843835  39.2264134  35.1547824
  68.6259513  39.0257314  37.1179637  69.3855122  39.5496483  37.6982030
  67.6432573  39.2193074  37.5480113  68.9040578  37.5453811  37.1478429
  70.2029787  37.0694870  37.2974703  71.0188740  37.7864348  37.3891233
  70.4695703  35.7036113  37.3310899  71.4921438  35.3436126  37.4444308
  69.4285343  34.8022707  37.2161631  69.6940569  33.4499509  37.2494806
  70.6277885  33.2535119  37.3551053  68.1235693  35.2503610  37.0716758
  67.3004673  34.5411118  36.9846752  67.8698851  36.6180704  37.0382497
  66.8480960  36.9802303  36.9247272  68.3718651  41.1493629  35.8653019
  69.2990823  41.9535445  35.7437897  67.1209462  41.5085882  36.1464659
  66.4059246  40.7964651  36.1879887  66.7288692  42.8985633  36.3738571
  67.5903771  43.5577871  36.4802871  65.8394617  43.4271181  35.2147652
  65.0133382  42.7310708  35.0693782  65.2851689  44.8185152  35.5205785
  66.1107589  45.5152636  35.6656427  64.6681076  45.1555054  34.6876479
  64.6808385  44.7783261  36.4268187  66.6162702  43.4401810  33.8992691
  66.9420393  42.4281252  33.6590200  65.9744317  43.8137443  33.1014010
  67.4873462  44.0880051  33.9975103  65.9650432  43.0108227  37.6926401
  65.1551256  42.1412895  38.0250338  66.2396838  44.0731440  38.4483642
  67.0596309  44.6331043  38.2633493  65.3891617  44.4411090  39.5818544
  64.6411722  43.6645676  39.7418367  66.1903374  44.6607329  40.8854790
  67.0124526  45.3480278  40.6858476  65.2854054  45.2492102  41.9773775
  64.4632562  44.5622146  42.1778983  65.8644713  45.3978987  42.8887913
  64.8851495  46.2058788  41.6416996  66.8107505  43.3427047  41.3706214
  65.9817738  42.6839392  41.6293228  67.3562772  42.9243641  40.5247542
  67.7591833  43.4737896  42.5793662  67.2142119  43.8916607  43.4258234
  68.1459990  42.4904156  42.8466644  68.5887145  44.1320879  42.3212553
  64.6269253  45.7218444  39.2359973  65.2342310  46.7415547  38.9181739
  63.2999272  45.6505946  39.2913558  62.8536332  44.7534159  39.4178129
  62.4518446  46.8311618  39.1404544  62.9489231  47.5653075  38.5063864
  61.1147432  46.4497892  38.4931673  61.3151903  46.0447578  37.5012652
  60.6398682  45.6852774  39.1080784  60.2501606  47.5706728  38.3805625
  59.4248039  47.2984626  37.9727784  62.2352121  47.4411061  40.5243685
  61.5325902  46.8629728  41.3517973  62.8507332  48.5967707  40.7734048
  63.4331370  49.0163152  40.0628504  62.7879227  49.2402287  42.0906886
  62.2401269  48.5691477  42.7522543  64.1975743  49.4383553  42.6530677
  64.7555414  50.1153749  42.0062159  64.1333028  49.8639762  43.6544748
  64.7091952  48.4770126  42.6995814  62.0191312  50.5665338  42.0552142
  62.3530310  51.5149798  42.7743631  60.9862762  50.6110017  41.2174331
  60.7929026  49.7895977  40.6624544  60.1580013  51.8058547  41.0052327
  60.5095053  52.6489464  41.5999937  60.1395888  52.2070072  39.4912952
  59.5444844  53.1120281  39.3692768  61.5650170  52.4627094  38.9930216
  62.1606426  51.5579316  39.1142977  61.5377832  52.7406447  37.9394035
  62.0125739  53.2717978  39.5702288  59.4450758  51.1329824  38.6369092
  59.9897135  50.2020758  38.7946539  58.4305921  51.0295036  39.0218956
  59.3927402  51.4455944  37.1395493  60.4069381  51.5487626  36.7537271
  58.8861405  50.6347801  36.6160648  58.8478183  52.3761922  36.9809691
  58.7272301  51.5589582  41.5335715  58.3130893  50.4037221  41.6769556
  57.9681350  52.6344253  41.8433004  58.3650063  54.0539004  41.9035053
  58.5974903  54.4066222  40.8986975  59.2463283  54.1557557  42.5367478
  57.1559054  54.7328865  42.4891990  57.0493407  55.7231029  42.0462379
  57.2842926  54.8295937  43.5672833  55.9911137  53.8670114  42.1692338
  55.6558810  54.1019166  41.1590172  55.1520992  53.9546524  42.8595042
  56.5573350  52.4431693  42.2124434  56.5200859  51.9838989  43.2002600
  55.8233333  51.5501793  41.2068489  56.0438566  51.6863547  40.0125140
  54.9675714  50.6239717  41.6873246  54.5708837  50.3870589  43.0860098
  53.9322521  51.2019364  43.4269272  55.4605301  50.3363540  43.7137495
  53.8376446  49.0638791  43.0157558  53.0612977  49.0312255  43.7801629
  54.5387524  48.2447078  43.1754667  53.2578143  49.0059966  41.6523742
  52.3232297  49.5619023  41.5774111  53.0945887  47.9769905  41.3320566
  54.3270445  49.6637532  40.7735112  55.0927170  48.9429574  40.4866359
  53.7152267  50.2857457  39.5147478  53.9638326  49.7922237  38.4090846
  52.9487978  51.3692921  39.6634489  52.7111635  51.7098986  40.5841098
  52.2896142  51.9840820  38.5006887  51.8315749  51.2112150  37.8834564
  51.1936444  53.0138755  38.9030262  50.5524228  52.5546521  39.6553884
  51.7996041  54.2991279  39.4663070  52.4406316  54.7591969  38.7142964
  51.0010147  54.9907740  39.7345973  52.3899004  54.0652450  40.3522809
  50.3906029  53.3245632  37.7580338  49.7141250  53.9595959  38.0044303
  53.2807410  52.5772699  37.4900543  52.9765503  52.6899355  36.2997944
  54.4631172  52.9631323  37.9660727  54.6345705  52.9813207  38.9612472
  55.4839674  53.5215615  37.0747419  55.0150768  54.2162296  36.3778366
  56.5598499  54.2708181  37.8620541  56.8357724  53.5838912  38.6621150
  57.4240107  54.4478948  37.2217650  56.0926536  55.5988279  38.4678662
  55.3703731  55.3968303  39.2588205  57.2770734  56.3560963  39.0452130
  57.9996205  56.5588760  38.2547037  56.9333098  57.2979219  39.4728715
  57.7489937  55.7553938  39.8227399  55.3539831  56.4670080  37.4671223
  54.4736372  55.9361107  37.1048536  55.0454786  57.3950469  37.9484433
  56.0112765  56.6946190  36.6279218  56.0875147  52.4854453  36.1218238
  56.8166214  52.8403447  35.1934883  55.7576068  51.2122540  36.3378741
  55.2734389  50.9517978  37.1851305  56.0793342  50.1609841  35.3712091
  57.1598273  50.1339315  35.2301342  55.7413307  49.2041727  35.7691601
  55.4100587  50.4019921  34.0256615  55.8691872  49.8915831  33.0061613
  54.3353554  51.1931518  34.0252055  53.9574362  51.5059722  34.9080530
  53.6306887  51.5703774  32.7935579  53.3457628  50.6741260  32.2425135
  52.3620867  52.3681719  33.1216081  52.6315847  53.1110815  33.8723114
  52.0511559  52.8729231  32.2069232  51.2232469  51.5180092  33.6400984
  51.6205951  50.8306461  34.3869233  50.4890093  52.1751790  34.1060650
  50.4254171  50.5730122  32.3306614  49.4907426  51.8656478  31.5036125
  50.1746725  52.6302908  31.1352920  48.9402014  51.4374048  30.6659891
  48.7895443  52.3145154  32.2071321  54.5034459  52.3665332  31.8225807
  54.2249989  52.4003949  30.6230897  55.5509313  53.0008256  32.3480153
  55.7205461  52.9443712  33.3420692  56.4408609  53.8363699  31.5379190
  55.8573776  54.3980494  30.8084243  57.2006769  54.8279036  32.4252100
  57.7603278  54.2411969  33.1536778  57.8963247  55.3654752  31.7808568
  56.3120169  55.8230007  33.1521146  55.4012161  55.9752131  32.5729997
  56.0557944  55.4207684  34.1322479  57.0326878  57.1526553  33.3223791
  57.4547747  57.1829486  34.3268810  57.8378120  57.1978806  32.5890108
  56.1021231  58.3409340  33.1274867  55.3899888  58.3177569  33.9523674
  56.7190476  59.2361254  33.2058161  55.3650300  58.3591888  31.8377225
  54.7929822  57.5299772  31.7651337  54.7763064  59.1789002  31.7980024
  56.0247237  58.3810978  31.0732466  57.4306309  53.0076793  30.7273265
  58.2029834  53.5504486  29.9298981  57.4060383  51.6965401  30.9473158
  56.7594485  51.3281702  31.6301955  58.2943122  50.7654722  30.2647523
  59.0217634  51.2830434  29.6394251  59.0383333  49.8495028  31.2735920
  58.3001649  49.3083291  31.8654863  59.9390205  48.8506025  30.5453154
  60.6777959  49.3910684  29.9535315  60.4485923  48.2210903  31.2748027
  59.3334559  48.2267774  29.8878712  59.8392257  50.6807103  32.2890128
  60.6791552  51.1204105  31.7511623  59.1807243  51.4734543  32.6440231
  60.3619892  49.8792629  33.4832299  61.0209783  49.0865671  33.1290174
  60.9153286  50.5399367  34.1506315  59.5225469  49.4396088  34.0218771
  57.4771481  49.9102068  29.2965592  56.4045959  49.4035604  29.6523459
  57.9766293  49.7756862  28.0698645  58.7846942  50.3164722  27.7965864
  57.3587708  48.9043525  27.0755736  56.2959370  48.7980266  27.2927791
  57.5151344  49.4867944  25.6633633  58.5694430  49.6559440  25.4444542
  57.0958096  48.8049696  24.9235109  56.8203514  50.8050614  25.4753270
  55.7677861  50.9766649  24.6028606  55.3582943  52.2331885  24.6466533
  54.5356223  52.5721089  24.0170164  56.0996005  52.8812698  25.5271065
  56.0082172  53.8546828  25.7805153  57.0271201  52.0139135  26.0520423
  57.7443834  52.3661705  26.7933583  58.0160940  47.5360439  27.2029584
  59.2463068  47.4363402  27.2701417  57.1994721  46.4892676  27.2951710
  56.1980723  46.6104960  27.2441673  57.7243993  45.1459728  27.5570423
  58.7894369  45.2057544  27.7811411  57.0078385  44.5051227  28.7510012
  55.9274921  44.5849855  28.6302833  57.2870883  43.4546911  28.8329345
  57.3408057  45.1417990  30.0681960  56.5735059  46.1965819  30.5579438
  55.7263446  46.5539517  29.9725342  56.8783685  46.7953595  31.7833900
  56.2721383  47.6203317  32.1575645  57.9644841  46.3327855  32.5291461
  58.2101668  46.7962311  33.4846345  58.7356313  45.2750424  32.0485325
  59.5838689  44.9065858  32.6254493  58.4169843  44.6872502  30.8219427
  59.0157447  43.8592483  30.4424713  57.6474264  44.2064566  26.3591369
  56.6409133  44.1662769  25.6516434  58.7310444  43.4525878  26.1608998
  59.5657541  43.6615635  26.6897553  58.7864099  42.3742490  25.1770126
  57.7775476  42.1305590  24.8439791  59.6171405  42.7893490  23.9588022
  59.2910223  43.7745321  23.6253948  60.6643558  42.8357115  24.2576176
  59.4857471  41.8165283  22.7996294  58.5079854  41.0729940  22.6998858
  60.4725974  41.8250188  21.9094926  60.4393644  41.1994364  21.1172540
  61.2512586  42.4570159  22.0293559  59.3694931  41.1193203  25.8385692
  60.5051033  41.1506601  26.3181442  58.5811461  40.0261623  25.9209196
  59.0818073  38.7573449  26.4859167  59.6134781  38.9605326  27.4155087
  59.7612908  38.2880839  25.7744426  57.8338426  37.9537596  26.7000286
  57.4456706  38.1343291  27.7024338  58.0530372  36.8926210  26.5815382
  56.8849858  38.4169337  25.6609455  55.8783413  38.2768512  26.0548273
  56.9693561  37.9184879  24.6952680  57.1808427  39.9181060  25.5042181
  57.0885736  40.2792666  24.4799390  56.2761880  40.7493315  26.4219926
  56.7524635  41.2605745  27.4459312  54.9877143  40.9017896  26.0615523
  54.3160633  40.3964066  24.8465795  54.1624694  39.3211432  24.9377812
  54.9390417  40.6013599  23.9759527  53.0327193  41.1586611  24.8203055
  52.2530865  40.5410578  24.3743932  53.1610200  42.0646627  24.2280206
  52.7195550  41.4901980  26.2376402  52.1901095  40.6344240  26.6564925
  52.1220326  42.3908915  26.3784163  54.0774536  41.6508657  26.9275867
  54.4292759  42.6801532  26.9974914  54.0194207  41.0370660  28.3258771
  54.2621112  39.8380725  28.4913035  53.7024744  41.8509725  29.3262582
  53.5817354  42.8412952  29.1688343  53.5371501  41.3405432  30.6847853
  54.4452456  40.8245562  30.9965852  53.2649820  42.4846345  31.6624078
  52.4255689  42.9943005  31.1894115  52.9385052  42.0461443  32.6054026
  54.3857823  43.4891086  31.9290057  54.7164246  43.9259039  30.9866754
  53.8684067  44.5901255  32.8444357  53.5379888  44.1541250  33.7872116
  54.6656324  45.3082191  33.0364606  53.0306608  45.0974156  32.3659600
  55.6331741  42.8164988  32.5169773  56.0066522  42.0681310  31.8180072
  56.4038776  43.5675045  32.6904936  55.3764225  42.3353466  33.4607305
  52.3741749  40.3484104  30.7372939  51.4455025  40.4485109  29.9319011
  52.4146542  39.3954330  31.6879239  53.5193026  39.0496222  32.6026412
  53.5855202  39.7954851  33.3947297  54.4580302  39.0237345  32.0492703
  53.1220431  37.7023193  33.1144739  53.5116341  37.5639137  34.1230183
  53.5246004  36.9286296  32.4606748  51.6400898  37.6886309  33.1001578
  51.3172758  38.1729759  34.0217326  51.1763158  36.7050446  33.0255163
  51.2438202  38.5452743  31.8960558  51.0472281  37.9790663  30.9856393
  50.0213404  39.4014501  32.2377212  50.1702757  40.4958753  32.7901093
  48.8338033  38.9057194  31.8912841  48.8069807  38.0063437  31.4324777
  47.5741981  39.6345606  32.0658758  47.5170161  40.4636362  31.3605652
  46.3952740  38.6908485  31.8086377  46.2659849  38.6468744  30.7272266
  46.6984759  37.7111558  32.1779219  45.0743586  39.0954425  32.4634073
  45.2907463  39.5059248  33.4497041  44.6050306  39.8617580  31.8464844
  43.9456091  37.7007621  32.6366387  44.5178729  36.6945969  31.2747130
  45.5677278  36.4426507  31.4244688  43.9284210  35.7790276  31.2259265
  44.4069519  37.2476475  30.3420111  47.4045565  40.3121298  33.4315492
  47.0234594  41.4805920  33.5113685  47.6680466  39.5753299  34.5017178
  47.9508483  38.6096604  34.4145112  47.4003034  40.0988858  35.8344971
  46.4021701  40.5364413  35.8538443  47.4740850  39.0008243  36.8997944
  48.4504997  38.5236473  36.8160351  47.3867221  39.4796292  37.8750962
  46.3720192  37.9411073  36.7493956  46.5117682  37.4654599  35.7786585
  46.5220425  37.2049262  37.5390997  44.6797182  38.5952902  36.8560867
  44.6138829  38.9689296  38.5857668  45.3885183  39.6955689  38.8307861
  43.6363701  39.3839321  38.8314134  44.7761790  38.0576028  39.1613053
  48.2856201  41.2955438  36.1738879  47.7834080  42.2953035  36.6858827
  49.5801285  41.2176415  35.8696297  50.0077130  40.3475300  35.5864746
  50.4487809  42.3840555  36.0826378  50.2310295  42.8001374  37.0662837
  51.9483625  42.0464136  36.0125662  52.1393877  41.1457326  36.5959891
  52.2269699  41.8714520  34.9734000  52.7751758  43.2001601  36.5732192
  52.6062168  44.0385017  35.8973958  52.3415996  43.4263499  37.5473609
  54.2811146  42.9642794  36.7272241  54.4868817  42.0822918  37.3337360
  54.7698720  42.8605223  35.7584877  54.8311596  44.1405367  37.4071523
  55.1673345  44.8894568  36.8187609  54.9056920  44.2881026  38.7272452
  54.5240844  43.3085812  39.5368004  54.1743036  42.4442010  39.1487279
  54.5851356  43.4318471  40.5373891  55.3757855  45.4199018  39.2442708
  55.6752599  46.1651641  38.6318989  55.4311039  45.5288354  40.2468535
  50.1063655  43.5422939  35.1363093  50.1129283  44.7082954  35.5512641
  49.8004349  43.2139710  33.8791910  49.8758520  42.2508703  33.5844901
  49.4142856  44.2192558  32.8809149  50.2635216  44.8671578  32.6638423
  48.9671591  43.5442436  31.5781431  49.7800095  42.9130099  31.2190925
  48.0915712  42.9276672  31.7813164  48.6135744  44.5473676  30.4901292
  49.3873206  45.4673812  30.2007164  47.4331616  44.3786900  29.8818993
  47.1488351  45.0164625  29.1521702  46.8322131  43.6144132  30.1554730
  48.3063935  45.1393950  33.3967018  48.3945288  46.3659903  33.2793218
  47.2681797  44.5407935  33.9767744  47.1866501  43.5342095  33.9612519
  46.1609090  45.3161150  34.5262725  46.0135842  46.2175246  33.9314152
  44.8657624  44.5010498  34.5080224  45.0949900  43.5104977  34.9009098
  44.1551865  44.9978600  35.1685992  44.2560306  44.3668532  33.1130172
  44.4231847  45.2952715  32.5669404  44.7510176  43.5462861  32.5936334
  42.7604335  44.0870853  33.1503590  42.3047834  43.1684896  33.8409362
  41.9894661  44.8812037  32.4063441  40.9893405  44.7409225  32.3932462
  42.4092456  45.6192580  31.8593869  46.4414154  45.8853994  35.9246288
  45.9587314  46.9772144  36.2513172  47.1994029  45.1561828  36.7437522
  47.5252457  44.2453847  36.4532825  47.5225821  45.6114947  38.1069049
  46.5974017  45.7232051  38.6722907  48.4317050  44.6220422  38.8454713
  47.9083672  43.6662357  38.8709837  49.3413816  44.5219112  38.2533884
  48.7992308  45.0470433  40.2870818  47.9158759  45.5289730  40.7060431
  49.0091776  44.1311038  40.8394218  50.2212624  46.1732139  40.4335020
  51.5732722  45.0420488  40.1142388  51.4583959  44.6089449  39.1205973
  52.5191028  45.5811446  40.1679128  51.5660992  44.2468344  40.8596808
  48.1692967  46.9881366  38.0984611  47.8157396  47.8417835  38.9162871
  49.1006927  47.2045151  37.1699785  49.3686274  46.4642663  36.5372526
  49.8884858  48.4439369  37.1649300  50.0964202  48.7946033  38.1758185
  51.2247465  48.2988279  36.3816416  51.7234309  49.2672367  36.3416589
  52.1398925  47.2797777  37.0815855  51.6420420  46.3109385  37.1215371
  53.0724270  47.1858252  36.5251208  52.3546467  47.6193926  38.0948187
  50.9778309  47.9333388  34.9096095  50.4996026  46.9540297  34.8908433
  50.2968049  48.6776372  34.4969076  52.2608659  47.8919872  34.0681796
  52.9422401  47.1475334  34.4800262  52.0133563  47.6278810  33.0400327
  52.7394438  48.8711410  34.0860926  49.0930050  49.6820146  36.7173275
  49.6103832  50.7996197  36.7676544  47.8358479  49.4686755  36.3130623
  47.5206298  48.5138934  36.2175215  46.8906919  50.5540388  35.9840038
  47.4189095  51.4967457  35.8412130  46.0737733  50.2430827  34.6993422
  45.5056676  51.1321291  34.4255675  46.9897507  49.8468091  33.5402741
  47.5578815  48.9575027  33.8131498  46.3876822  49.6356981  32.6565067
  47.6773751  50.6644272  33.3240013  45.1347640  49.1916685  34.9735240
  44.6295934  48.9989160  34.1802716  45.8817510  50.8164446  37.1088493
  45.0234147  51.6946686  36.9824127  45.9965968  50.0626453  38.2037142
  46.7776904  49.4278107  38.2872445  44.9833041  50.0558167  39.2554029
  44.1884293  50.7635193  39.0199666  44.3714433  48.6486763  39.3674809
  45.1935388  47.9338038  39.3326174  43.8771714  48.5861890  40.3369604
  43.3671604  48.3239160  38.2621459  42.4098405  48.7725584  38.5273995
  43.7283801  48.7630344  37.3322010  43.1893755  46.8139856  38.0780459
  43.9843307  46.4464402  37.4291580  43.2655544  46.3330535  39.0532385
  41.8946152  46.4636180  37.4805576  41.2017265  46.0713430  38.1019471
  41.5739509  46.6360597  36.1973868  42.4434366  47.1586200  35.3344317
  43.3630022  47.4309442  35.6511945  42.1792604  47.2801864  34.3672025
  40.3732803  46.2690115  35.7763351  39.7152655  45.8642376  36.4269308
  40.1210847  46.3955296  34.8065468  45.5070092  50.5223462  40.6142521
  44.8021631  50.4118702  41.6236222  46.7292014  51.0586248  40.6316741
  47.2179886  51.1975058  39.7588062  47.4511350  51.3124274  41.8791424
  46.7785312  51.4061956  42.7317330  48.5001376  50.1831061  42.1886408
  49.1704870  50.5327760  42.9737916  47.8046345  48.9034355  42.6463565
  47.1344157  48.5528804  41.8614878  48.5518646  48.1375742  42.8542125
  47.2303507  49.1049153  43.5506272  49.4040080  49.8984148  40.9916804
  49.9483607  50.8038225  40.7233168  50.1130584  49.1119237  41.2500965
  48.7968570  49.5759506  40.1458167  48.0919714  52.7169565  41.9313678
  49.2969989  52.8728552  41.7266648  47.2697517  53.7457145  42.2122604
  45.8263656  53.6433230  42.4969332  45.6714751  52.9465453  43.3207111
  45.3105605  53.2764336  41.6095571  45.4314521  55.0494179  42.8486510
  45.3893588  55.1440901  43.9337152  44.4474402  55.2563852  42.4279532
  46.4582873  55.9510337  42.2647192  46.5700210  56.8184495  42.9152608
  46.2327575  56.2839740  41.2516118  47.7509507  55.1266116  42.2687820
  48.3925964  55.2942841  41.4037531  48.5295260  55.4218829  43.5414114
  48.4165369  54.6744445  44.5230118  49.3117684  56.5031971  43.5185543
  49.5091897  56.9564566  42.6378274  49.9558478  57.0233757  44.7270546
  49.9432436  56.2525945  45.4976626  51.4135436  57.4351568  44.4681952
  51.3560181  57.9983432  43.5367388  51.7266703  58.0984543  45.2744756
  52.4334076  56.2984176  44.3161507  52.1360136  55.4764949  44.9673808
  52.5043529  55.8044233  42.8745150  52.8021580  56.6257349  42.2227035
  53.2357575  54.9995741  42.8012643  51.5259035  55.4345080  42.5680843
  53.8162906  56.7416687  44.7909034  53.7655954  57.0291467  45.8410871
  54.5221373  55.9194187  44.6734873  54.1491404  57.5931222  44.1973237
  49.1618698  58.2041974  45.2800521  48.4201616  58.8728401  44.5485175
  49.3236848  58.4594612  46.5791238  49.9638064  57.8971858  47.1215166
  48.6007238  59.5357187  47.2566239  47.5449350  59.4190150  47.0121052
  48.7426694  59.3951267  48.3281577  49.0434894  60.9395447  46.8791465
  49.9397095  61.1180626  46.0511938  48.4083464  61.9305906  47.5036466
  47.7397721  61.7038990  48.2259475  48.6222913  63.3439618  47.1725478
  49.4297044  63.4376590  46.4463219  47.3436032  63.9470138  46.5664585
  46.5571381  63.8973738  47.3195240  47.5455724  64.9896272  46.3209676
  46.9228028  63.2576213  45.3958424  46.1247200  63.6665537  45.0531501
  49.0117458  64.1330563  48.4195507  48.2914778  64.1144465  49.4217252
  50.1423768  64.8338020  48.3555349  50.7214625  64.7951771  47.5289351
  50.6277985  65.5922601  49.5068628  49.8424827  66.1601728  50.0057149
  51.3114153  64.6576720  50.5560221  50.5808877  63.9238111  50.8964289
  52.5219841  63.9313363  49.9490011  53.2532042  64.6645870  49.6087633
  52.9764204  63.2887220  50.7030800  52.1962087  63.3247753  49.1039829
  51.7091935  65.4216515  51.8217053  50.8203379  65.8568523  52.2784744
  52.1812383  64.7372380  52.5265822  52.4096125  66.2155728  51.5624700
  51.5716868  66.7236198  49.0953824  52.3385224  66.5919031  48.1375292
  51.4688867  67.8471832  49.8070387  50.6670940  67.9766450  50.4074280
  52.4757250  68.9110696  49.7532308  53.2639482  68.6761629  49.0379530
  51.8605918  70.3023877  49.4100415  51.2414939  70.6317953  50.2444927
  52.9735763  71.3370839  49.1570053  53.5928541  71.0085713  48.3223346
  52.5260180  72.3020324  48.9189580  53.5904488  71.4337677  50.0504368
  50.8959955  70.2132694  48.2151365  51.4874647  69.9012039  47.3543927
  50.1672778  69.4388510  48.4546070  50.1546954  71.5351646  47.8811344
  50.8827940  72.3099878  47.6410898  49.4972914  71.3776262  47.0260902
  49.5626085  71.8476362  48.7413056  53.1302866  68.9713290  51.1375786
  52.4310820  69.1214104  52.1439476  54.4537178  68.8165032  51.1885785
  54.9615661  68.5519524  50.3565915  55.2002701  68.9543571  52.4455773
  54.5262034  68.7924084  53.2867109  56.3459013  67.9315763  52.5298357
  55.9178608  66.9534473  52.3104177  57.0664739  68.1942954  51.7553334
  57.0527807  67.8865852  53.8919760  57.5738072  68.8322690  54.0413555
  56.2977849  67.7617613  54.6681863  58.0604751  66.7296884  53.9675530
  57.5354655  65.7940390  53.7751364  58.8250449  66.8800829  53.2053759
  58.7197665  66.6695601  55.3451609  59.2701098  67.5994173  55.4886474
  57.9255953  66.5995972  56.0884619  59.6501571  65.5117429  55.5007333
  60.3863713  65.5766137  54.8123438  60.0529721  65.5256365  56.4268257
  59.1403064  64.6500030  55.3682358  55.7218637  70.3813536  52.5542154
  56.4159582  70.8587060  51.6537079  55.3750808  71.0583479  53.6536208
  54.8852031  70.5854481  54.3996000  55.6604366  72.4840747  53.8063957
  56.2725760  72.8322704  52.9744437  54.3542657  73.2858259  53.8225710
  53.8139430  73.0958950  54.7499743  54.5717243  74.3507902  53.7409450
  53.1991522  72.9051191  52.4816068  52.2618748  73.7715846  52.8553005
  56.4312690  72.7617314  55.0905913  56.0445085  72.2943020  56.1664737
  57.5180951  73.5254794  54.9897946  57.8626065  73.8176312  54.0864350
  58.3066988  73.8680064  56.1792535  57.7528190  73.5606541  57.0662997
  59.7181856  73.1918387  56.1856908  60.3148631  73.6077216  55.3738301
  60.4206209  73.4422729  57.5099084  59.8247260  73.0262340  58.3222640
  61.4006964  72.9654019  57.4977901  60.5409543  74.5150536  57.6607748
  59.6135966  71.6753198  55.9566916  60.4179205  71.2087358  56.5254299
  58.6522024  71.3556803  56.3587501  59.7154759  71.2625901  54.5135821
  60.6768659  71.5815013  54.1109351  59.6323325  70.1783632  54.4384921
  58.9111486  71.7284480  53.9442547  58.4244693  75.3855350  56.3307723
  58.9650672  76.0648702  55.4606420  57.9016911  75.9005979  57.4434017
  57.4451549  75.2827270  58.0990766  57.9287132  77.3344622  57.7434264
  58.2358370  77.9261544  56.8810607  56.5345389  77.8421447  58.2253323
  56.2590168  77.2947081  59.1267200  56.5609948  79.3392282  58.5273623
  56.8360080  79.8873981  57.6262639  55.5742258  79.6606698  58.8606231
  57.2916590  79.5394507  59.3110348  55.4387535  77.5294727  57.1917968
  55.3809696  76.4520056  57.0374342  54.4791834  77.8956817  57.5567844
  55.6786143  78.0188779  56.2478424  58.9804320  77.6109564  58.8189415
  58.9504341  77.0064714  59.8970862  59.8970011  78.5301602  58.5141029
  59.8462254  78.9936141  57.6181500  61.0268682  78.8450585  59.3978135
  61.1427037  78.0538649  60.1385523  62.3362506  78.9641661  58.5961915
  62.1449375  79.6869780  57.8030701  63.1325514  79.3355763  59.2412182
  62.7552797  77.6483623  57.9869257  62.2049952  77.2123710  56.7783527
  61.4854220  77.8511226  56.2661904  62.5608977  75.9877837  56.2287407
  62.1236313  75.6570173  55.2866719  63.4692254  75.1792508  56.8924910
  63.8181540  73.9679433  56.3411428  63.3747889  73.7935175  55.5077145
  64.0327109  75.5849421  58.0915959  64.7555820  74.9529584  58.6074974
  63.6666747  76.8152221  58.6379061  64.0938718  77.1388198  59.5870569
  60.7959599  80.1116924  60.2035555  60.2188748  81.0811589  59.6971194
  61.2792908  80.0967674  61.4483456  61.7481100  79.2611175  61.7677157
  61.1237342  81.2076199  62.3887401  60.8140315  82.1065491  61.8557207
  60.0564257  80.8665376  63.4357627  60.3625999  79.9381020  63.9178042
  60.0652536  81.6749685  64.1668315  58.6542228  80.7068785  62.8750490
  58.0927485  79.4388056  62.6803478  58.6810418  78.5562702  62.9316280
  56.7935750  79.2940779  62.1701908  56.3639404  78.3031590  62.0232357
  56.0535967  80.4267537  61.8511647  54.7695341  80.3135876  61.3466227
  54.4816908  79.4024094  61.2544263  56.5922731  81.6907110  62.0345383
  56.0110097  82.5775275  61.7819720  57.8852113  81.8252930  62.5451286
  58.3122545  82.8171892  62.6930346  62.4465105  81.5441999  63.0827220
  63.3880428  80.7523153  63.0584605  62.5137290  82.7208052  63.7026218
  61.7467908  83.3749474  63.6393521  63.7340319  83.1448634  64.3979406
  64.5891259  83.0340294  63.7311352  63.6408261  84.6120794  64.8358308
  63.3540986  85.1962010  63.9613661  62.8563938  84.6786043  65.5897144
  64.9448906  85.1612957  65.4089961  65.1725911  84.6189374  66.3266566
  65.7385510  84.9922954  64.6812297  64.8430711  86.6478265  65.7112776
  64.7105180  87.1826747  64.7708170  63.9732905  86.8115666  66.3474932
  66.0963469  87.1646089  66.4189254  65.8795660  88.1660781  66.7906324
  66.3008739  86.5018918  67.2598023  67.2910592  87.2141997  65.5219926
  67.1019035  87.8285735  64.7429774  68.0861306  87.5612884  66.0391878
  67.4923609  86.2862438  65.1777913  64.0749541  82.2447246  65.5872842
  65.2521718  81.9546653  65.8305534  63.0429693  81.8116266  66.3127383
  62.1147061  82.0982075  66.0365171  63.1830403  80.9596202  67.4928031
  64.1242861  80.4121517  67.4434698  63.1756097  81.8065257  68.7694887
  62.2587896  82.3958296  68.7533306  63.1461988  81.1127297  69.6096566
  64.3764633  82.7379487  68.9206699  65.2381741  82.1164352  69.1641369
  64.5425319  83.2288550  67.9617479  64.1884074  83.7924239  70.0050448
  63.2570435  83.6662671  70.8309407  64.9781719  84.7618743  70.0236717
  62.0333534  79.9550315  67.5418087  60.9758215  80.2098343  66.9512913
  62.2328774  78.8100224  68.2301991  63.4868718  78.3240298  68.8470745
  63.8315198  79.0555409  69.5779709  64.2425060  78.2029235  68.0708984
  63.0991903  77.0173061  69.4776109  62.9655018  77.1679719  70.5488374
  63.8967719  76.2935706  69.3097658  61.8324903  76.5736383  68.8278857
  61.2495071  76.0595385  69.5920395  61.9481262  75.9231438  67.9609458
  61.1263377  77.8693284  68.4183657  60.5719437  77.7707056  67.4850817
  60.1895687  78.3873388  69.5161649  60.1259201  77.8314153  70.6217032
  59.4688822  79.4579825  69.1854412  59.5174240  79.7986150  68.2358558
  58.6892186  80.2302668  70.1640446  59.3295046  80.5302624  70.9935840
  58.1114670  81.4892175  69.5118367  57.5713995  82.0841859  70.2483413
  58.9153691  82.0866196  69.0817760  57.1437380  81.2032597  68.3963446
  57.5768547  81.1714504  67.0779486  58.6278957  81.3626388  66.8614776
  56.6889312  80.8998785  66.0376171  57.0439210  80.8804767  65.0072256
  55.3443557  80.6527585  66.3170799  54.6451462  80.4342407  65.5099517
  54.8964384  80.6864853  67.6381713  53.8469391  80.5004099  67.8662662
  55.7974308  80.9597031  68.6696997  55.4515862  80.9845519  69.7030796
  57.5768972  79.4403574  70.8594878  57.1977461  79.7593282  71.9861236
  57.0644730  78.4124112  70.1871442  57.3397729  78.2534444  69.2284791
  56.0265199  77.5463533  70.7674668  55.1678173  78.1499895  71.0613247
  55.5626316  76.4965822  69.7516528  54.9770729  75.7227602  70.2480596
  54.9551651  76.9741453  68.9828758  56.6918776  75.7914811  69.0346877
  57.2634312  74.5992938  69.3746069  56.8717157  74.1017032  70.2617722
  58.2578885  74.2743121  68.4755587  58.8213273  73.4364172  68.4993978
  58.3487142  75.2676293  67.5364482  59.1985255  75.3876202  66.4311115
  59.9228036  74.5950585  66.2430534  59.0638277  76.5086539  65.6456812
  59.7110550  76.6398606  64.7785126  58.0997665  77.5011813  65.9381217
  57.9990263  78.3889854  65.3138182  57.2494564  77.3725448  67.0346263
  56.5196783  78.1615869  67.2161126  57.3706262  76.2411690  67.8540425
  56.4575347  76.8654719  72.0658954  55.6295675  76.6322910  72.9469000
  57.7503728  76.5582138  72.1808831  58.3741129  76.7395996  71.4074837
  58.2894095  75.8843969  73.3643928  57.7291648  74.9687515  73.5536510
  59.7602951  75.5228850  73.1555849  60.3048113  76.4504210  72.9787282
  60.1190966  75.0612934  74.0755277  59.9874143  74.5694095  71.9864390
  59.3881161  73.6738990  72.1507657  59.6597137  75.0623749  71.0711797
  61.4502780  74.1823970  71.8567156  62.0544146  75.0821713  71.7404224
  61.7646812  73.6476157  72.7529628  61.6667590  73.3192962  70.6958302
  60.8469896  73.0543450  70.1686886  62.8511090  72.8650962  70.2977416
  63.9589567  73.1908898  70.9604127  63.9006095  73.7881956  71.7727681
  64.8526372  72.8392391  70.6477203  62.9311499  72.0825057  69.2270957
  62.0922582  71.8366611  68.7212090  63.8305199  71.7370173  68.9239949
  58.1184663  76.7183549  74.6320771  57.9029450  76.1722868  75.7076729
  58.1979554  78.0422307  74.4848349  58.4466615  78.4220960  73.5826448
  57.9896268  78.9783625  75.6036608  58.6641515  78.7309804  76.4233666
  58.2687555  80.4134915  75.1575678  57.5774256  80.6278045  74.3425634
  58.0379517  81.0557505  76.0074695  59.6914245  80.6765167  74.6964393
  60.3751180  80.3886648  75.4950665  59.8890378  80.0691572  73.8131695
  59.8994721  82.1603657  74.3544271  59.6277304  82.7557130  75.2261019
  60.9532845  82.3156530  74.1232026  59.0454336  82.5896391  73.1566928
  59.3615681  81.9801020  72.3101563  58.0110780  82.3541151  73.4071647
  59.1532333  84.0327395  72.7973916  60.1115367  84.2510912  72.5648475
  58.5612446  84.2268679  72.0024302  58.8599355  84.5977184  73.5815309
  56.5807662  78.9083891  76.1980609  56.3842266  79.2205407  77.3788033
  55.6126010  78.5152258  75.3679051  55.8356962  78.3855394  74.3914271
  54.2217316  78.3242528  75.7950886  54.0200502  78.9281324  76.6798220
  53.2590020  78.7487857  74.6832016  53.5899577  78.2538748  73.7701678
  52.2716775  78.3784789  74.9591782  53.1898646  80.2499936  74.4492271
  53.0495326  80.7528797  75.4060517  54.1245611  80.5829370  73.9980141
  52.0351220  80.5882143  73.5267661  52.2613662  80.1943841  72.5359028
  51.1363508  80.1066902  73.9120508  51.8049459  82.0976646  73.4347834
  50.8299891  82.2630302  72.9762925  51.8027838  82.5010180  74.4474040
  52.8499864  82.7800983  72.6333342  52.8518667  82.4067882  71.6948590
  52.6562091  83.7708141  72.6012016  53.7534313  82.6273479  73.0582503
  53.9197160  76.8825504  76.2125638  52.7592370  76.5299751  76.4411775
  54.9717417  76.0660970  76.3168463  55.8736979  76.4234417  76.0359919
  54.8709012  74.6533172  76.6946470  55.8685676  74.2144259  76.7062830
  54.2397523  74.4771598  78.0875216  54.6004991  75.2825729  78.7272643
  53.1592878  74.5622377  77.9715118  54.5768375  73.1380299  78.7210756
  55.6932963  72.6242095  78.4864073  53.7244695  72.6011157  79.4619244
  54.1301066  73.8426264  75.6258567  53.3598829  72.9297740  75.9328567
  54.3830184  74.1998972  74.3671338  54.9301139  75.0322231  74.1997439
  53.9296151  73.4275994  73.2163360  53.2651806  72.6307020  73.5503728
  53.1729919  74.3116352  72.2292778  53.8783235  75.0623144  71.8727847
  52.9149639  73.6388644  71.4114141  51.9186611  74.9968393  72.7343328
  51.6112188  76.2859110  72.3084335  52.2997417  76.7860254  71.6273158
  50.4581045  76.9353667  72.7313528  50.2443100  77.9511211  72.3987316
  49.5924735  76.2954918  73.5961581  48.4495126  76.9592335  73.9919514
  48.3724225  77.8354813  73.6074433  49.8605948  75.0082838  74.0329836
  49.1746939  74.4985048  74.7095675  51.0261999  74.3611502  73.5972351
  51.2447622  73.3474626  73.9330446  55.1479396  72.8552711  72.4981998
  56.1172556  73.5779527  72.2580981  55.1046887  71.5767806  72.1339521
  54.3163309  70.9894877  72.3656384  56.2652266  70.9586694  71.4924295
  57.1765613  71.3976649  71.8984482  56.3020966  69.4480046  71.7306904
  57.2411253  69.0402983  71.3563912  56.2171373  69.2426428  72.7977933
  54.9912440  68.4991006  70.9326548  55.3871338  67.3110589  71.3806799
  56.3463317  71.2829743  70.0012228  57.4252748  71.2191608  69.4103602
  55.2082403  71.6375857  69.4045088  54.3548429  71.6898889  69.9421674
  55.1501918  71.9584054  67.9779020  54.7722973  72.9751058  67.8701280
  56.1603378  71.9018975  67.5723020  54.2507511  71.0111062  67.1995571
  53.9563881  71.2502170  66.0211741  53.8199734  69.9388383  67.8577737
  54.1559602  69.7664688  68.7945239  52.8809179  68.9834692  67.2712922
  53.1349194  68.8018848  66.2269697  52.8972364  67.6362378  68.0243037
  52.6451180  67.8133380  69.0698524  51.8866320  66.6640040  67.4142143
  52.1383874  66.4860429  66.3687246  51.9142163  65.7207118  67.9596848
  50.8859657  67.0913205  67.4787764  54.2118024  67.0677303  67.9613965
  54.2208588  66.2299158  68.4299957  51.4677605  69.5580041  67.3212995
  50.9764685  69.9137160  68.3914683  50.8190939  69.6272228  66.1617753
  51.3046322  69.3860537  65.3096078  49.4284654  70.0744259  66.0654539
  48.9946888  70.1300325  67.0638752  49.3363120  71.4600387  65.4129856
  49.7813099  71.3745434  64.4216398  48.2764981  71.6955420  65.3158634
  50.0374503  72.5760664  66.1922527  49.5302181  72.6883839  67.1504808
  51.0701955  72.2715143  66.3619214  50.0204398  74.1615320  65.3208816
  51.6878763  74.2020525  64.6513746  51.8367772  73.3457180  63.9936370
  51.8306730  75.1229554  64.0860006  52.4088706  74.1620936  65.4678742
  48.6244590  69.0622379  65.2518286  49.0311004  68.6870298  64.1525362
  47.5058817  68.6093658  65.8167469  47.3090042  68.8619286  66.7746355
  46.5578478  67.7419327  65.1198950  46.9637022  67.4264988  64.1587068
  46.2013113  66.4915880  65.9655626  45.7882577  66.8198542  66.9193594
  45.1719223  65.6100367  65.2375333  45.5844677  65.2809825  64.2837879
  44.9389023  64.7400893  65.8515315  44.2620276  66.1835617  65.0607290
  47.4661607  65.6832319  66.2825763  47.6188994  64.9915305  65.4541315
  48.2949870  66.3900151  66.3226254  47.4009833  64.9049924  67.5864659
  46.5726241  64.1976296  67.5469848  48.3348048  64.3623165  67.7333656
  47.2487093  65.5961146  68.4154790  45.3238682  68.6121361  64.8605005
  44.6150046  68.9842642  65.7920363  45.0953992  68.9593414  63.5956794
  45.6167546  68.5241484  62.8480866  44.1379037  70.0191346  63.2519271
  43.6239679  70.3881245  64.1395169  44.8381855  71.2024914  62.5302061
  45.1988647  70.8587311  61.5607528  43.8632649  72.3749341  62.3278450
  43.5024915  72.7195631  63.2969549  44.3767099  73.1916635  61.8204713
  43.0187581  72.0455783  61.7225086  46.0815355  71.6631831  63.3048711
  45.7292693  72.2166254  64.1753371  46.6048020  70.7651617  63.6332753
  47.0386154  72.5438113  62.4927055  46.5161540  73.4423103  62.1643254
  47.8893311  72.8251772  63.1133625  47.3916850  71.9908469  61.6222619
  42.9971080  69.4975449  62.3840041  43.1982905  69.1774012  61.2121818
  41.8024176  69.4325837  62.9651384  41.7017765  69.7252830  63.9265425
  40.6270557  68.9093308  62.2740300  40.9289430  68.1835402  61.5189200
  39.6967660  68.2147772  63.2775345  40.3189561  67.6326687  63.9573348
  39.1737268  68.9896308  63.8380093  38.6807671  67.2985943  62.6098240
  38.5186110  67.3559966  61.3732484  38.0392336  66.5157469  63.3332463
  39.8950365  70.0414680  61.5583412  40.0097890  71.2056101  61.9472665
  39.1566831  69.7047945  60.5067143  39.1749891  68.7595110  60.1514634
  38.3017092  70.6806816  59.8350946  37.2918780  70.2705581  59.8233104
  38.3169647  71.5901235  60.4357460  38.7120550  71.0190550  58.4191984
  39.9059799  71.1689710  58.1177177  37.7068887  71.1644792  57.5581331
  36.7635815  71.0460320  57.8990746  37.9022721  71.4080098  56.1293524
  38.5058271  70.6134757  55.6905631  36.5394804  71.4381728  55.4199971
  36.0587312  70.4831956  55.6321246  35.9675669  72.2428381  55.8820888
  36.5947177  71.6568353  53.9008524  35.5712036  71.6269914  53.5271826
  37.0139015  72.6487029  53.7317882  37.4343212  70.6185800  53.1652977
  38.0924753  70.9969439  52.1738422  37.4388990  69.4358671  53.5765376
  38.6841727  72.6897356  55.8322052  39.4428789  72.7577595  54.8623688
  38.4997319  73.6974540  56.6791971  37.9001180  73.5626309  57.4806865
  39.0768301  75.0201265  56.4615504  38.8940023  75.3393715  55.4355115
  38.4438963  76.0429061  57.4132188  39.0772080  76.0816303  58.2995122
  38.4731088  77.0062307  56.9040507  37.0001126  75.7281653  57.8296968
  36.5362399  76.6481370  58.1854705  36.4782455  75.3798458  56.9383902
  36.9147388  74.6628232  58.9171303  36.0896505  73.7357031  58.7812756
  37.6818622  74.7433347  59.8982565  40.5986280  75.0328583  56.6229906
  41.2895062  75.8159606  55.9648066  41.1128669  74.1762920  57.5024185
  40.4990226  73.5725092  58.0303777  42.5474720  74.1099257  57.7696503
  42.9417895  75.1174237  57.9021673  42.8046819  73.3158338  59.0419778
  42.4234718  72.3018201  58.9213335  43.8763151  73.2796537  59.2379203
  42.2987615  73.7964044  59.8793521  43.2897098  73.4778135  56.5897087
  42.9817189  72.3523896  56.2121788  44.2567292  74.2057864  55.9926536
  44.6431537  75.6066821  56.2591367  44.7006953  75.7684974  57.3355219
  43.8972837  76.2763257  55.8309376  45.9721366  75.7310648  55.5884726
  46.7651851  75.4572774  56.2843272  46.1226075  76.7569547  55.2523035
  45.9163182  74.7847642  54.4184322  46.9184197  74.4250788  54.1849413
  45.4772372  75.2379168  53.5296351  45.0403068  73.6161007  54.8986015
  44.3382652  73.2771399  54.1368001  45.9164519  72.4391015  55.3453774
  46.0890961  71.4759274  54.5892792  46.4541358  72.5293459  56.5622722
  46.2402561  73.3459282  57.1168424  47.3487502  71.5122619  57.1350919
  47.6061261  70.7271540  56.4241331  48.6598662  72.1696412  57.6444368
  48.3977050  73.0494868  58.2320102  49.4791555  71.2031388  58.5092936
  49.7421025  70.3231914  57.9222226  50.3891047  71.6991677  58.8470038
  48.8892181  70.8993459  59.3740394  49.4965896  72.6838727  56.4772856
  48.9255039  73.4258877  55.9192740  50.4102886  73.1403603  56.8579073
  49.7527278  71.8533497  55.8194668  46.6499087  70.8112203  58.2962785
  46.1219678  71.4841234  59.1877727  46.6440392  69.4720704  58.2820994
  47.0320238  68.9888631  57.4845544  45.9985836  68.6753088  59.3318651
  45.2898493  69.3472856  59.8158507  45.2224980  67.5038063  58.7184728
  45.9196245  66.8173819  58.2379147  44.6778496  66.9778496  59.5025825
  44.5175245  67.8821929  57.9782464  46.9625247  68.1698848  60.4111153
  46.5272366  67.7166221  61.4734929  48.2665435  68.2444340  60.1415278
  48.5855506  68.6524561  59.2744339  49.2712608  67.7052091  61.0691574
  48.9446485  67.8559114  62.0980949  49.4633954  66.2043721  60.8314863
  48.4787322  65.7465173  60.7371118  49.9881976  66.1358839  59.8786001
  50.2604689  65.4755860  61.9023974  49.7167323  65.2454660  63.1695854
  48.7119830  65.6113278  63.3810647  50.4293361  64.5662032  64.1499134
  49.9939157  64.4053501  65.1361371  51.6949830  64.0887471  63.8671458
  52.4016493  63.4082225  64.8317209  51.9216825  63.3238104  65.6588280
  52.2653593  64.2943916  62.6156190  53.2679488  63.9284385  62.3942753
  51.5367732  64.9805429  61.6335266  51.9664331  65.1335374  60.6435341
  50.6105459  68.4087057  60.9264657  51.0891921  68.6169549  59.8052877
  51.2068470  68.7709180  62.0643766  50.7298678  68.6091307  62.9398280
  52.5303372  69.3862006  62.1006426  53.0338408  69.2882931  61.1388747
  52.4849850  70.8933732  62.4872055  53.4838072  71.3076979  62.3501305
  51.4879139  71.6790085  61.6396038  50.4887206  71.2655292  61.7765240
  51.4931801  72.7246420  61.9473731  51.7688062  71.6086829  60.5887687
  52.1677990  71.0239946  63.8803161  52.1403797  71.9541081  64.1164037
  53.4527932  68.7190417  63.1231669  52.9837480  68.1011692  64.0850007
  54.7624151  68.8629249  62.9029191  55.0578163  69.2177579  62.0046257
  55.7937614  68.5028011  63.8816437  55.3470329  68.4277798  64.8730592
  56.4349878  67.1533661  63.5291643  56.7390766  67.2981248  62.4924994
  57.3204771  67.0392621  64.1544555  55.5689071  65.8936606  63.6359360
  54.6028667  66.0776557  63.1658163  56.2649594  64.7288730  62.9307890
  57.2309349  64.5439693  63.4006834  55.6465882  63.8346245  63.0084898
  56.4142018  64.9765945  61.8798555  55.2607635  65.5419577  65.1049645
  54.7256042  66.3685035  65.5724322  54.6448075  64.6434638  65.1424890
  56.1937010  65.3648871  65.6401023  56.8685797  69.5959192  63.9258165
  57.1150694  70.2729409  62.9234062  57.4910600  69.7721588  65.0900862
  57.1375724  69.3013656  65.9107564  58.6664169  70.6359602  65.2365519
  58.4254496  71.6623950  64.9600279  59.1163514  70.6159478  66.7056003
  58.2189007  70.7664155  67.3056344  59.5394780  69.6357207  66.9251881
  60.1376664  71.6961952  67.0401914  60.8342048  72.1881257  66.1330880
  60.2600238  72.0391279  68.2386883  59.7877396  70.1170490  64.3224864
  60.1532954  68.9416081  64.4049285  60.3126035  70.9834761  63.4525049
  59.8959091  71.8988879  63.3603835  61.4123070  70.6164903  62.5305464
  61.6755815  69.5693251  62.6796462  60.9988408  70.8159026  61.0580759
  59.9190077  70.6921904  60.9758876  61.2682652  71.8379122  60.7916044
  61.6995567  69.8374683  60.1053653  61.7726677  68.6269595  60.4203784
  62.1593856  70.2728153  59.0227941  62.7251194  71.3590819  62.8323992
  63.6525403  71.3826795  62.0062383  62.7986029  71.9504072  64.0225016
  61.9640435  71.9841890  64.5903648  64.0069547  72.6156147  64.5218352
  64.2905974  73.4235172  63.8473431  63.7486975  73.2137051  65.9315926
  63.5317762  72.3944512  66.6170621  64.9477063  73.9954625  66.4406646
  65.1649622  74.8152230  65.7559076  64.7267732  74.3975159  67.4294218
  65.8128857  73.3353494  66.5024362  62.6237616  74.1020467  65.8751869
  62.4640316  74.4718189  66.7465968  65.1977742  71.6420601  64.5465219
  65.0342811  70.4466189  64.7959497  66.3901690  72.1598781  64.2613463
  66.4663643  73.1313528  63.9957706  67.6074484  71.3405062  64.2589485
  67.4451875  70.4322053  63.6786383  68.7662028  72.1238187  63.6295012
  68.9253244  73.0165950  64.2342572  69.6528613  71.4915203  63.6757129
  68.5056829  72.5315859  62.1767705  67.4302305  72.5027959  62.0016303
  68.8688191  73.5498440  62.0375421  69.2051045  71.6044069  61.1916220
  70.1746865  72.0491442  60.9675273  69.3518492  70.6510238  61.6991908
  68.4341617  71.3745691  59.8854188  69.2245885  71.2316292  59.1486053
  67.9234767  70.4272119  60.0580874  67.4541900  72.3832273  59.3756002
  67.9272893  73.2610231  59.2151280  67.0522034  72.0541462  58.5094522
  66.7214495  72.5155095  60.0580164  67.9487740  70.8982805  65.6868386
  67.5452832  71.5605619  66.6411449  68.6777907  69.7681826  65.8392177
  69.2221746  68.8894310  64.7885852  69.6210665  69.4964636  63.9758757
  68.4306738  68.2452813  64.4055752  70.2853024  68.1209455  65.5066323
  71.2317594  68.6569928  65.4361233  70.3915173  67.1358885  65.0522290
  69.8302804  68.0086240  66.9130081  70.6967100  67.9916896  67.5741525
  69.2278407  67.1159972  67.0814817  68.9914507  69.2654949  67.1841744
  68.0477940  69.0353877  67.6788066  69.7813250  70.2659956  68.0331366
  69.6939089  70.2321467  69.2600717  70.5209088  71.1552250  67.3736127
  70.6023996  71.0800788  66.3697145  71.2905458  72.1973483  68.0566141
  71.7704316  71.7790282  68.9413836  72.3758933  72.7649961  67.1322360
  71.8767421  73.0627737  66.2101319  72.7784978  73.6481002  67.6283577
  73.5154272  71.8006686  66.8056769  74.3853321  72.4003643  66.5378499
  73.7291265  71.2367396  67.7136504  73.1957652  70.8330663  65.6696919
  72.1647684  71.0086636  64.9795984  73.9901513  69.8881111  65.4642470
  70.4098848  73.3348974  68.5899510  70.8808221  74.1744278  69.3655191
  69.1449579  73.3629264  68.1635037  68.8379602  72.6789505  67.4867255
  68.1745089  74.3531558  68.6402806  67.2142438  73.8504693  68.7555907
  68.5146506  74.7128581  69.6113713  68.0030793  75.5366288  67.7081665
  67.2201946  76.4481326  67.9905446  68.7441762  75.5288530  66.6002094
  69.4599727  74.8253982  66.4866922  68.6519858  76.5920208  65.6000009
  68.0492750  77.4094018  65.9958888  70.0418885  77.1389509  65.2337320
  69.9307294  77.8513339  64.4162643  70.4510800  77.6486298  66.1060220
  71.0159097  76.0542933  64.8036731  70.6717937  74.8756868  64.7197153
  72.2494816  76.4583439  64.5242783  72.9440628  75.7855907  64.2326278
  72.4875566  77.4365848  64.6046879  67.8663986  76.1793151  64.3523712
  67.4026057  75.0452281  64.2533313  67.7197789  77.1102224  63.4092995
  68.1586892  78.0101663  63.5418066  66.8633166  76.9193154  62.2294640
  66.7193343  77.8788026  61.7327221  67.4863242  75.9353216  61.2261223
  67.4863005  74.9486141  61.6892718  66.8322109  75.9268844  60.3542480
  68.8938053  76.2909603  60.7971350  69.9996092  75.8499846  61.5287886
  69.8318630  75.2435080  62.4188149  71.2974996  76.1716867  61.1398909
  72.1517090  75.8290408  61.7238618  71.4978734  76.9333962  60.0028356
  72.7789270  77.2583715  59.6052308  73.4539556  76.9048606  60.1891539
  70.4173272  77.3776673  59.2502252  70.5755061  77.9737170  58.3514457
  69.1175200  77.0535891  59.6551441  68.2632119  77.3995720  59.0732906
  65.4555979  76.4726833  62.6476742  64.8865158  75.5355659  62.0774579
  64.9096848  77.1506846  63.6561171  65.4538326  77.8668224  64.1156268
  63.5602414  76.8728215  64.1588850  63.5589531  75.9237033  64.6948627
  63.1346251  77.9609245  65.1069102  63.1222298  78.9162880  64.5822894
  62.1365656  77.7426511  65.4868235  63.8363091  78.0132191  65.9393789
  62.5604535  76.7576606  63.0155779  62.5531187  77.5918977  62.1110368
  61.7186077  75.7275554  63.0613058  61.7337862  75.0909568  63.8452772
  60.7998213  75.4479692  61.9592309  60.3928388  76.4007986  61.6207333
  61.5505750  74.7956454  60.7955365  61.9562195  73.8361815  61.1164439
  60.8653341  74.6394534  59.9623802  62.3655038  75.4461544  60.4780020
  59.6351803  74.5679850  62.3728405  59.7509008  73.7813899  63.3170147
  58.5226336  74.7173856  61.6498174  58.4758353  75.4836354  60.9934863
  57.3608282  73.8407874  61.7749647  57.5370839  73.0579438  62.5126564
  56.0624464  74.6298010  62.1520154  55.9335286  75.4499724  61.4457580
  54.8313973  73.7162276  62.1042925  54.9593849  72.8960153  62.8106717
  53.9428550  74.2888046  62.3702794  54.7158269  73.3136804  61.0979633
  56.1941729  75.2940332  63.5310473  57.1336565  75.8466916  63.5247232
  55.3627749  75.9928410  63.6234843  56.1803321  74.3250442  64.7167921
  57.0117775  73.6261698  64.6252879  56.2784564  74.8859583  65.6462254
  55.2408961  73.7723172  64.7240475  57.1569661  73.1255007  60.4357182
  57.0595614  73.7789150  59.3922797  57.1059973  71.7944511  60.4745809
  57.2983940  71.3216912  61.3461203  56.7753604  70.9801803  59.2998528
  57.0401650  71.5144374  58.3874126  57.5596432  69.6598665  59.3408157
  58.6082944  69.9263311  59.4728253  57.2094314  69.1185604  60.2197010
  57.4114847  68.7748498  58.1061487  57.5420581  69.4285175  57.2437277
  58.2305875  68.0567215  58.1444159  55.8403112  67.8799327  57.9442226
  55.7139669  66.9977962  59.4962755  55.7056133  67.7109969  60.3205170
  54.7921393  66.4162998  59.5102910  56.5670921  66.3280664  59.6046307
  55.2804391  70.6821911  59.3149116  54.7433257  70.3059099  60.3521800
  54.6149887  70.8510178  58.1760164  55.0770946  71.2362154  57.3647333
  53.2035498  70.4872517  58.0622300  52.9567159  69.7984133  58.8701123
  52.6032754  71.3917446  58.1605293  52.8858995  69.8265189  56.7368088
  53.5399685  70.1168495  55.7254419  51.8821206  68.9451964  56.7428456
  51.4082461  68.7530644  57.6138379  51.4204429  68.2553907  55.5328230
  52.1604973  68.3714377  54.7410201  51.2186276  66.7596508  55.7991663
  50.5896190  66.6032545  56.6755153  50.7403795  66.3166818  54.9255776
  52.4853206  65.9850432  56.0351452  52.6499333  65.2566415  57.2130716
  51.8567108  65.2696293  57.9605536  53.8175467  64.5137567  57.4422747
  53.9364407  63.9512175  58.3682956  54.8283690  64.4962856  56.4807493
  55.7401550  63.9247403  56.6541914  54.6702339  65.2099371  55.2999124
  55.4549676  65.1956443  54.5435468  53.4975160  65.9505831  55.0810016
  53.3706977  66.5089020  54.1534795  50.0775854  68.8062703  55.0503837
  49.1339140  68.9221735  55.8349941  49.9944844  69.1189260  53.7598824
  50.8360250  69.1989294  53.2071544  48.7075195  69.3947703  53.1114532
  47.9468781  69.6211754  53.8586242  48.8043887  70.5692173  52.0993122
  49.5475435  70.3233450  51.3407819  47.4527105  70.8099512  51.4284455
  46.7090922  71.0563492  52.1863509  47.5388356  71.6360533  50.7225854
  47.1446640  69.9094136  50.8971842  49.2953050  71.8427904  52.8038254
  48.5421137  72.1003690  53.5484441  50.2280565  71.5849402  53.3054103
  49.5289128  73.0450639  51.8745894  48.5964292  73.3038106  51.3729676
  49.8738021  73.8966258  52.4610985  50.2823708  72.7883807  51.1299320
  48.2675438  68.1052367  52.4108553  48.9453980  67.6416740  51.5046796
  47.1330269  67.5402579  52.8377736  46.5067963  68.0651037  53.4314667
  46.7893430  66.1386334  52.5230545  47.6398739  65.6427940  52.0552515
  46.4260652  65.3811928  53.8091536  45.5439290  65.9210098  54.1534395
  46.1424621  64.3689653  53.5209438  47.4594612  65.3196489  54.9380775
  47.9298805  66.2974039  55.0420085  46.7940878  64.9373793  56.2466049
  46.3238107  63.9594602  56.1435868  47.5428642  64.8983532  57.0377507
  46.0368005  65.6792526  56.5000617  48.5935253  64.3463333  54.6016039
  49.0947548  64.6727005  53.6903669  49.3104414  64.3252523  55.4223890
  48.1834634  63.3475059  54.4522991  45.6564286  65.9252496  51.5214605
  44.6473044  66.6325694  51.5586111  45.8282056  64.9190036  50.6628730
  46.7689731  64.5764255  50.5298463  44.7622695  64.3873369  49.7961708
  45.2699934  63.7547904  49.0680220  43.7881099  63.5179565  50.6074617
  43.2654102  64.1390855  51.3348432  43.0634329  63.0590184  49.9349147
  44.3437476  62.7384305  51.1287151  44.0481182  65.4837283  48.9921815
  44.7151505  66.2111328  48.2560351  42.7283513  65.6383505  49.1276556
  42.1748847  65.0219503  49.7054313  42.0248262  66.6310528  48.2873392
  42.2728017  66.4427147  47.2427647  40.5014333  66.5693825  48.4480132
  40.0101771  67.0021949  47.5765546  40.1904935  65.5308339  48.5612969
  39.9809151  67.3043347  49.6414607  39.9482715  66.7511206  50.9012240
  39.4338850  67.6214957  51.7511602  39.3242370  67.3701765  52.8061080
  39.1291838  68.7212579  51.0861681  38.7188430  69.5579348  51.4756448
  39.4615477  68.5482735  49.7642405  39.2849219  69.3509956  49.0483203
  42.5349401  68.0653062  48.4676471  42.4543009  68.8801149  47.5465227
  43.0629787  68.3698849  49.6508855  43.0204366  67.7127750  50.4167159
  43.6044404  69.7074919  49.9118023  42.9111311  70.4612449  49.5386027
  43.8100421  69.9320590  51.4130433  44.4149172  69.1096511  51.7949734
  44.3508241  70.8698343  51.5404500  42.4863157  69.9958579  52.1875827
  41.9283602  70.8665115  51.8429833  41.9176964  69.0915064  51.9709668
  42.7170276  70.1028773  53.6910603  43.4173077  69.3228717  53.9898881
  43.1491923  71.0801995  53.9059426  41.4094432  69.9406490  54.4712726
  40.7411003  70.7552174  54.1921729  40.9587897  68.9889382  54.1897462
  41.6366741  69.9666209  55.9517028  42.0538594  70.8485872  56.2128377
  40.7537510  69.8571449  56.4297841  42.2556110  69.2116412  56.2105887
  44.8836195  69.9931708  49.1278372  45.1473859  71.1467905  48.7720410
  45.6700868  68.9518497  48.8599032  45.4722082  68.0497382  49.2687285
  46.8639293  69.0885942  48.0271613  47.4903534  69.8923294  48.4140743
  47.6763195  67.8005528  48.0166026  47.0653038  66.9882137  47.6230736
  48.5563516  67.9305825  47.3867328  47.9895999  67.5596308  49.0324329
  46.4469156  69.4844341  46.6095508  47.0547884  70.3717339  46.0150613
  45.3923222  68.8446039  46.0991098  44.9982941  68.0698170  46.6134506
  44.8118872  69.1802006  44.7941990  45.5909481  69.1634551  44.0320424
  43.7212222  68.1702562  44.4038759  43.2304922  67.8722956  45.3304301
  43.0124664  68.7089246  43.7749073  44.2146091  66.9234309  43.6641231
  43.4885507  66.7016145  42.8819866  45.1728728  67.1740351  43.2091172
  44.3821758  65.7055074  44.5602061  44.8591415  64.9159976  43.9794507
  45.0259567  65.9808523  45.3955688  43.1147353  65.1969286  45.0919355
  42.3084661  65.8008580  45.0191439  42.9629427  63.9995664  45.6540651
  43.9914535  63.1577864  45.7477833  44.8960671  63.4287011  45.3894826
  43.8617817  62.2526236  46.1766949  41.7769848  63.6403375  46.1311211
  40.9956870  64.2770059  46.0653395  41.6616521  62.7320796  46.5575770
  44.2304623  70.5987362  44.7818389  44.4800706  71.3720926  43.8575048
  43.4600325  70.9315475  45.8154619  43.3034378  70.2590481  46.5525658
  42.7671804  72.2229126  45.8931220  42.2046610  72.3995505  44.9763504
  41.7912566  72.2277658  47.0752871  41.1461485  71.3571177  46.9573601
  42.3888055  72.1166780  47.9801047  40.9323494  73.4865890  47.1839908
  41.5633741  74.3594015  47.0163395  40.1544234  73.4494371  46.4213946
  40.2898395  73.5826610  48.5586432  39.6306589  72.7254143  48.6954208
  41.0764145  73.5594871  49.3128727  39.4879592  74.8660926  48.7025371
  40.1129514  75.6995761  48.3819275  38.6130202  74.7989757  48.0559489
  39.0483692  75.0874898  50.1135643  39.8589735  75.1501411  50.7128098
  38.5201799  75.9464677  50.1707754  38.4688733  74.3154838  50.4107013
  43.7415259  73.3975731  46.0061503  43.6094162  74.3991751  45.2909508
  44.7262166  73.2683889  46.8905183  44.8103335  72.4195536  47.4313532
  45.6162930  74.3876981  47.2112674  45.1028235  75.3316681  47.0285959
  46.0346144  74.3354151  48.6814220  46.5595139  73.3848747  48.7765676
  46.7220805  75.1528532  48.8988739  44.8640886  74.3744518  49.6729762
  44.1454467  73.5976924  49.4116344  45.3665803  74.1417472  51.0677094
  46.0849735  74.9184314  51.3299528  44.5297621  74.1709609  51.7655507
  45.8505132  73.1665821  51.1221372  44.0762226  75.6887029  49.5977291
  43.6702431  75.8125778  48.5937694  43.2593669  75.6650456  50.3190393
  44.7384939  76.5235705  49.8268400  46.8360018  74.5229318  46.2953230
  47.5811399  75.5071068  46.3812006  47.0296088  73.5409087  45.4202824
  46.4775061  72.6973589  45.4811562  48.0717566  73.6155327  44.3957077
  49.0281980  73.7914731  44.8880126  48.1502120  72.3178881  43.6448974
  47.2026922  72.1323391  43.1390538  48.9507898  72.3721912  42.9071802
  48.3541976  71.5056241  44.3425480  47.8333300  74.7757966  43.4238603
  48.7748792  75.2756224  42.8117677  46.5743948  75.1952048  43.3024727
  45.8508944  74.6978818  43.8017887  46.1796601  76.3151135  42.4367020
  46.5277127  76.1381428  41.4190380  44.6548604  76.4571399  42.4146995
  44.3466406  76.6960886  43.4325420  44.4268462  77.2980314  41.7597101
  43.9045441  75.2216566  41.9341546  44.3804110  74.8507737  41.0263565
  43.9534553  74.4558728  42.7082895  42.4535225  75.5548815  41.6440533
  42.0918869  76.2501298  42.4016472  42.3874535  76.0222844  40.6615724
  41.6038958  74.3672266  41.6552480  41.5963893  73.8057410  40.8157381
  40.8523570  73.9805936  42.6855481  40.8301581  74.6873608  43.8101673
  41.3875667  75.5261074  43.8869779  40.2559762  74.3827058  44.5832133
  40.1155462  72.8820815  42.5902012  40.1269870  72.3425438  41.7364634
  39.5463480  72.5900604  43.3717611  46.7993630  77.6504652  42.8591311
  47.0063476  78.5438829  42.0278964  47.0800934  77.7821105  44.1519130
  46.8833310  77.0146993  44.7783824  47.6152774  79.0183124  44.7176143
  47.1146850  79.8792201  44.2745066  47.3852010  79.0445311  46.2351796
  48.0017349  78.2113683  46.5725592  47.7999946  79.9790813  46.6128861
  45.9550178  78.8692472  46.7640354  45.5330014  77.9479590  46.3624996
  45.9700500  78.7997036  48.2809968  46.3915357  79.7208985  48.6833009
  44.9518522  78.6752799  48.6496332  46.5775681  77.9529461  48.6004085
  45.0149468  79.9789381  46.2838368  44.9735828  79.9747436  45.1946303
  44.0160528  79.8087251  46.6855077  45.3852208  80.9442175  46.6291364
  49.1022774  79.1907379  44.4155902  49.7602203  78.2673726  43.9338084
  49.6259555  80.3804300  44.6959471  49.0310984  81.1480456  44.9734550
  51.0623201  80.6156075  44.6084533  51.4840391  80.0494039  43.7779922
  51.3822408  82.1060915  44.4000278  52.4583124  82.2169539  44.2663126
  50.6565666  82.6581133  43.1716920  49.5803520  82.5480136  43.3048835
  50.9008345  83.7132133  43.0484181  50.9707091  82.1070049  42.2852979
  50.9841089  82.8359217  45.5661016  51.1808363  83.7674766  45.4432030
  51.7361834  80.1497789  45.9024197  51.0663923  79.9352554  46.9185917
  53.0587845  80.0051649  45.8551545  53.5246252  80.0993987  44.9639689
  53.8638886  79.6571952  47.0246374  53.5786484  78.6753950  47.4025338
  55.3450834  79.6190045  46.6302005  55.4263331  78.8973878  45.8173247
  55.5878279  80.6141455  46.2575485  56.3135864  79.2436149  47.7388315
  56.2228417  79.9629240  48.5527484  56.0687617  78.2470770  48.1063572
  57.7450619  79.2527902  47.2094633  57.8185525  78.5123520  46.4129400
  57.9521947  80.2432740  46.8043248  58.7533562  78.9298548  48.2933716
  58.7402299  79.7288713  49.0346549  58.4703160  77.9901850  48.7677219
  60.1295697  78.8041658  47.7204748  60.3922025  79.6749201  47.2812590
  60.7835389  78.5891782  48.4595314  60.1420521  78.0635467  47.0338696
  53.6264405  80.6478729  48.1684791  53.4624628  80.2533174  49.3262042
  53.5890307  81.9330515  47.8238714  53.7760168  82.1832540  46.8633849
  53.3632020  83.0065689  48.7874589  54.0691146  82.9184224  49.6133020
  53.5604314  84.3749114  48.1168707  52.9223089  84.3852196  47.2332460
  53.2098734  85.1244980  48.8263275  55.0097106  84.6950213  47.7067151
  55.0273817  85.7383669  47.3917256  55.6253711  84.5746696  48.5981054
  55.5634305  83.8104936  46.5790081  54.7942234  83.3693684  45.6863996
  56.7904965  83.5560299  46.5913421  51.9758837  82.9144857  49.4257234
  51.8212451  83.1330448  50.6311793  50.9698927  82.5757902  48.6180945
  51.1233844  82.5111164  47.6219233  49.6074223  82.4075035  49.1220102
  49.3331003  83.2732994  49.7247076  48.6029319  82.2747662  47.9679812
  49.0092486  81.5562823  47.2560915  47.6717153  81.8882194  48.3821275
  48.3320541  83.6000978  47.2555400  47.8113213  84.2365940  47.9709495
  49.2943145  84.0469568  47.0055977  47.4898217  83.4638423  45.9884536
  47.5670726  82.4255210  45.2895657  46.7506743  84.4258190  45.6863426
  49.4802242  81.2362082  50.1015288  48.7756304  81.3469530  51.1062876
  50.1614948  80.1260809  49.8128008  50.6161274  80.0254223  48.9165439
  50.1862276  78.9879447  50.7363333  49.1653098  78.7440612  51.0301816
  50.8214636  77.7475873  50.0960290  51.6631598  78.0914177  49.4948406
  51.1880266  77.1188514  50.9074615  49.8653281  76.9404100  49.2187065
  48.9940463  76.6746294  49.8173127  49.5541832  77.5687921  48.3841846
  50.5242938  75.6625598  48.6789815  50.8862251  75.0696373  49.5189503
  49.7818563  75.0895021  48.1235620  51.6514086  75.9552506  47.7911018
  52.5765206  75.9160067  48.1944963  51.5331009  76.2649622  46.4996963
  50.3377930  76.3136713  45.9206760  49.5090772  76.1143917  46.4625411
  50.2636479  76.5497406  44.9414552  52.6144659  76.5290674  45.7819896
  53.5257551  76.4948316  46.2161324  52.5228071  76.7634856  44.8038559
  50.8926012  79.3378685  52.0488754  50.3858564  79.0132541  53.1289607
  52.0387365  80.0163915  51.9622595  52.4529786  80.2067135  51.0609935
  52.7662286  80.4406063  53.1672570  53.0589542  79.5629969  53.7436360
  54.0302837  81.2300166  52.7996715  54.6398013  80.4647583  52.3190809
  53.7600138  81.9911747  52.0677612  54.8294083  81.8786794  53.9419160
  54.1881187  82.6120293  54.4308396  55.3063546  80.8457096  54.9754123
  55.9481162  80.1122396  54.4872908  55.8660049  81.3505290  55.7628446
  54.4436427  80.3408006  55.4100336  56.0063737  82.6791525  53.3924679
  55.6363010  83.4640255  52.7328316  56.5574940  83.1291419  54.2182264
  56.6673518  82.0169657  52.8332582  51.8732221  81.2725722  54.0968962
  51.8368490  81.0344595  55.3120034  51.1531994  82.2347887  53.5193525
  51.2807072  82.4341185  52.5374622  50.2531102  83.0940249  54.2909026
  50.8054866  83.5661925  55.1033295  49.6513032  84.1913989  53.4048780
  50.4848215  84.7461597  52.9740800  49.0984688  83.6915252  52.6095162
  48.7283947  85.1516650  54.1365629  47.8924202  84.5870333  54.5494049
  49.2846089  85.6216042  54.9476640  48.1994203  86.2259553  53.1949724
  49.0172437  86.9037005  52.9501761  47.8438334  85.7428190  52.2848973
  47.0597773  87.0139814  53.8299903  46.5429799  87.5623481  53.0423895
  46.3708417  86.3066672  54.2916976  47.5531509  87.9723677  54.8612454
  48.1912183  88.6281359  54.4335331  46.7705647  88.4733999  55.2570049
  48.0316868  87.4643997  55.5913625  49.1601245  82.2886908  55.0003532
  48.9238892  82.4800797  56.1955742  48.5115691  81.3829589  54.2659939
  48.6860360  81.3224679  53.2730178  47.4712268  80.5248219  54.8427737
  46.7024933  81.1449638  55.3038290  46.8150562  79.6505947  53.7648239
  47.6152265  79.1990224  53.1783861  46.2535868  78.8682520  54.2755018
  45.8801835  80.4255795  52.8381974  45.1770551  80.9939629  53.4470090
  46.4753741  81.1116206  52.2355383  45.1086370  79.4790403  51.9194121
  45.8203897  78.9842139  51.2586142  44.6070345  78.7332408  52.5360785
  44.0727606  80.2274791  51.0825606  44.5792420  81.0570968  50.5892943
  43.6901308  79.5373207  50.3306464  42.9409676  80.7509497  51.8973054
  43.2952594  81.3908180  52.5938294  42.2890191  81.2346278  51.2963739
  42.4712526  79.9823243  52.3541225  48.0014045  79.6572839  55.9878171
  47.3304661  79.4881998  57.0013531  49.2074665  79.1166563  55.8286780
  49.7018810  79.2064043  54.9525507  49.8066578  78.2930603  56.8840094
  49.0850125  77.5469397  57.2166225  51.0602405  77.5702734  56.3767240
  51.4095024  78.2401752  55.5910097  51.7967715  77.5375721  57.1795644
  50.8696148  76.1579558  55.7985417  50.5940338  75.5010908  56.6235778
  49.7954856  76.0850767  54.7070381  50.0706202  76.7413741  53.8814029
  49.7141789  75.0603872  54.3444071  48.8368969  76.4015815  55.1181741
  52.1935249  75.6252426  55.2795496  52.9142049  75.5834781  56.0962352
  52.0485358  74.6247146  54.8720903  52.5695002  76.2846055  54.4972567
  50.1188686  79.1145030  58.1346193  49.7957033  78.6988723  59.2475767
  50.7198773  80.2892341  57.9565024  50.9904143  80.5921003  57.0317424
  51.0718462  81.1416437  59.0988056  51.6777294  80.5735045  59.8046544
  51.8674950  82.3632199  58.6457674  51.3774630  82.8641108  57.8108565
  52.0025193  83.0702057  59.4643268  53.5164960  81.9417392  58.0749365
  53.8840254  83.1856823  57.7809532  49.8446836  81.5868733  59.8847932
  49.8608375  81.6180935  61.1162315  48.7804740  81.9305143  59.1665880
  48.8502017  81.9948387  58.1610534  47.5304590  82.3419680  59.8021463
  47.7389443  83.0809758  60.5757746  46.5796003  82.9602845  58.7804647
  46.4503938  82.2540391  57.9603292  45.6189028  83.1324269  59.2657763
  47.1172828  84.2803574  58.2347073  47.2785362  84.9297570  59.0951597
  48.0722025  84.0756620  57.7506334  46.1919884  84.9641610  57.2541341
  45.2566847  84.3120579  56.7374209  46.4130908  86.1661024  56.9865977
  46.8715568  81.1974068  60.5691512  46.3196403  81.4070816  61.6562845
  46.9498207  79.9886714  60.0118896  47.3016896  79.8848158  59.0708787
  46.4840256  78.7958094  60.7120090  45.4502585  78.9370671  61.0273992
  46.5546603  77.5601413  59.7973702  45.8374852  77.7971181  59.0114942
  47.5528177  77.4827090  59.3663410  46.1743147  76.2227909  60.4510192
  46.7907821  76.0866428  61.3395756  44.6880289  76.1869406  60.8479100
  44.0708849  76.3225692  59.9597450  44.4570700  75.2256272  61.3068603
  44.4818201  76.9871958  61.5586630  46.5213086  75.0486561  59.5420589
  47.5930422  75.0466763  59.3433570  46.2411152  74.1152971  60.0303558
  45.9781592  75.1435083  58.6017978  47.3034897  78.5571827  61.9805065
  46.7444856  78.3956948  63.0679209  48.6263796  78.5419724  61.8401788
  49.0447717  78.6222737  60.9244282  49.5052807  78.2949028  62.9862061
  49.2232114  77.3562864  63.4632128  50.9752208  78.2021875  62.5516893
  51.2223122  79.1636063  62.1014460  51.5628183  78.0649382  63.4594293
  51.2939101  77.0826840  61.5660525  52.4658468  77.1188857  60.8010401
  53.1460663  77.9615536  60.9247807  52.7721379  76.0989848  59.8897982
  53.6862201  76.1484645  59.2980995  51.8986868  75.0304717  59.7306825
  52.2070728  74.0178624  58.8379997  53.0430875  74.1570336  58.3871000
  50.7269318  74.9704726  60.4765205  50.0396171  74.1333566  60.3543089
  50.4308028  75.9938776  61.3898726  49.5144405  75.9506807  61.9785272
  49.3329422  79.3345911  64.1028504  49.3871079  78.9865484  65.2815282
  49.1332203  80.5992681  63.7304134  49.1668759  80.8523453  62.7532141
  48.9258291  81.6712279  64.7243758  49.7679235  81.6827927  65.4163603
  48.8412930  83.0356349  64.0334720  47.9971262  83.0426398  63.3439552
  48.7040712  83.8151054  64.7829358  49.7624370  83.2214909  63.4811581
  47.6671803  81.4010289  65.5477347  47.6470221  81.5859667  66.7679776
  46.6284531  80.9318838  64.8679542  46.7078217  80.8190027  63.8674255
  45.3706301  80.5735717  65.5047618  44.9634133  81.4137662  66.0672089
  44.3801556  80.1947244  64.4094733  44.8059960  80.5553053  63.4731290
  44.3413844  79.1055137  64.3947444  43.0003168  80.7390164  64.5700845
  42.5547268  80.3352888  65.4792349  43.0449767  81.8258791  64.6396325
  42.1504603  80.3414369  63.3680031  42.7520784  80.4548279  62.4661733
  41.8587315  79.2972568  63.4806160  40.9048621  81.2062311  63.2579028
  40.3300791  81.0719381  64.1742490  41.2311271  82.2435550  63.1830058
  40.0486512  80.8663279  62.0778461  39.7458673  79.9052861  62.1472742
  39.2415300  81.4732793  62.0615609  40.5809388  80.9911116  61.2286123
  45.5636802  79.3909745  66.4592541  45.1913198  79.4522835  67.6417405
  46.1692742  78.3185701  65.9462963  46.4883100  78.3278340  64.9880532
  46.2848017  77.0743227  66.7026081  45.3377265  76.8048820  67.1701008
  46.7481297  75.8985458  65.8114433  47.7053968  76.1570595  65.3587739
  46.9027261  74.6199028  66.6338655  45.9456893  74.3604800  67.0865035
  47.2293771  73.8072307  65.9850483  47.6435410  74.7786616  67.4175048
  45.7601285  75.6757726  64.6535867  45.7027813  76.5785192  64.0454240
  46.1029871  74.8444728  64.0375606  44.7735514  75.4462538  65.0561878
  47.1954267  77.2403714  67.9159469  46.8819589  76.7354679  69.0005963
  48.2970992  77.9657526  67.7258498  48.4787847  78.3456730  66.8078355
  49.2976405  78.1841351  68.7813176  49.3054437  77.3339018  69.4633304
  50.6995886  78.3380797  68.1727032  50.5500790  79.1801108  67.4968854
  51.3640061  78.6370735  68.9834141  51.3281977  77.1680420  67.4010968
  50.6004366  76.7874106  66.6844489  52.5870407  77.6220876  66.6572702
  53.3154993  78.0024447  67.3733536  53.0154919  76.7773831  66.1178219
  52.3276120  78.4101443  65.9503304  51.6440163  75.9942351  68.3155940
  50.7256340  75.6409134  68.7844618  52.0871436  75.1872841  67.7320106
  52.3458982  76.3121998  69.0865409  48.9646981  79.4059461  69.6448518
  49.6424401  79.6837466  70.6359293  47.9175569  80.1357063  69.2610259
  47.3582575  79.8320203  68.4767694  47.5420420  81.3785881  69.9429545
  46.7311218  81.8500933  69.3878054  47.1996463  81.1352092  70.9487533
  48.7067149  82.3507717  70.0386152  48.9144955  82.9897267  71.0800780
  49.4621162  82.4585669  68.9485110  49.2008443  81.9607737  68.1094412
  50.7073755  83.2273451  68.9398211  50.7202064  83.9258984  69.7764559
  51.9135884  82.2809076  69.0709255  51.9776910  81.6815192  68.1627825
  52.8141043  82.8870201  69.1699146  51.7947293  81.4239156  70.1954264
  52.5632276  80.8505886  70.2434508  50.8724397  84.0954626  67.6975394
  50.9740070  83.5861459  66.5755606  50.9217896  85.4114543  67.8990528
  50.7149111  85.7857892  68.8140249  51.1856443  86.3507228  66.8087843
  50.4757329  86.1837299  65.9986989  51.0411546  87.7973750  67.2965353
  51.6937081  87.8498818  68.1680375  51.4294677  88.4478300  66.5128126
  49.6285128  88.2543553  67.6871327  49.2239314  87.5534591  68.4173102
  49.6521479  89.6495833  68.2846818  50.0562043  90.3511645  67.5548728
  48.6385221  89.9480177  68.5522646  50.2787139  89.6528453  69.1765925
  48.7135166  88.2221199  66.4792599  48.6633726  87.2060779  66.0877964
  47.7150820  88.5484781  66.7703269  49.1031304  88.8885878  65.7097661
  52.5658848  86.1382919  66.1690770  52.7775053  86.5156146  65.0095657
  53.4891027  85.5302693  66.9162773  53.2862039  85.3157140  67.8821434
  54.8399932  85.2403475  66.4053749  55.3169368  86.1656436  66.0821861
  55.7062358  84.5973551  67.4964123  55.1707222  83.7192728  67.8573778
  56.6386123  84.2855984  67.0256874  56.0135738  85.5219290  68.6684206
  56.7865365  86.2175099  68.3416229  55.1028620  86.0742401  68.9000574
  56.4879214  84.7847616  69.9094457  57.7119265  84.7989482  70.1538759
  55.6435578  84.1943949  70.6332133  54.8025803  84.3597133  65.1475953
  55.6939991  84.4459082  64.2951394  53.7611143  83.5306633  65.0274844
  53.0963970  83.4499415  65.7836155  53.6054286  82.6426432  63.8634383
  54.5447283  82.0967152  63.7752459  52.4764323  81.6379464  64.0992216
  51.5279725  82.1688964  64.1805603  52.4306749  80.9393611  63.2637665
  52.6649705  81.0886071  65.0215983  53.3895815  83.3950567  62.5473726
  53.5253675  82.8226629  61.4563353  53.0546206  84.6803375  62.6545938
  52.8989932  85.0750873  63.5711373  52.8391162  85.5348860  61.4847926
  52.4709207  84.9352342  60.6523571  51.8076038  86.6231771  61.7980330
  52.2788934  87.1789094  62.6086790  51.7239959  87.2634415  60.9198695
  50.4121110  86.1709688  62.2339190  50.5086016  85.5016276  63.0887714
  49.5549975  87.3712571  62.6226485  49.4576637  88.0408699  61.7681055
  48.5668003  87.0285885  62.9294794  50.0271410  87.9032936  63.4485529
  49.7310340  85.3571365  61.1339207  50.3301035  84.4743425  60.9105601
  48.7410879  85.0483638  61.4697294  49.6355192  85.9675035  60.2359074
  54.1315766  86.1880441  60.9735044  54.0905805  86.9780521  60.0306005
  55.2652879  85.8626498  61.5958734  55.2346381  85.2849597  62.4237829
  56.5592256  86.4233091  61.1855792  56.4251689  87.0255678  60.2870179
  57.1553491  87.3133700  62.2894643  56.7069077  87.0043110  63.2336476
  58.2280328  87.1218793  62.3174103  56.9103793  88.8052598  62.0742023
  57.8021526  89.3550995  62.3750635  56.7404529  88.9457173  61.0067305
  55.7156551  89.3207669  62.8469679  55.7906116  89.3555496  64.0963940
  54.7122834  89.7137834  62.2125230  57.5860805  85.3738090  60.7327266
  58.6544865  85.2539701  61.3396303  57.2811626  84.6350944  59.6432497
  56.0780671  84.6847354  58.7892994  55.8022744  85.7239908  58.6104507
  55.2563109  84.1722000  59.2894226  56.5139604  83.9815372  57.5393161
  56.9863498  84.6834886  56.8521396  55.6609011  83.5123707  57.0491386
  57.4839777  82.9532394  58.0206882  58.1663137  82.7403965  57.1977578
  57.0423347  82.0221679  58.3758739  58.2409533  83.6398904  59.1597161
  58.5144695  82.9884366  59.9897131  59.4948703  84.3058037  58.6024526
  59.4139585  85.4300801  58.0900233  60.6292690  83.6125286  58.6959736
  60.6493666  82.7648901  59.2447945  61.8919721  84.1066511  58.1314482
  61.8099542  85.1432055  57.8044511  63.0882724  83.9916096  59.1333634
  63.9979195  84.3268647  58.6351210  62.8420771  84.8479005  60.3718870
  61.9327814  84.5129183  60.8709555  63.6867250  84.7522017  61.0541715
  62.7305851  85.8912075  60.0766216  63.3607478  82.5485638  59.5265010
  63.6042127  81.9686775  58.6362433  64.1985291  82.5131579  60.2228978
  62.4751375  82.1277406  60.0026344  62.2384803  83.4371849  56.7981256
  63.0144604  83.9798152  56.0081014  61.6363319  82.2740930  56.5491509
  60.9822539  81.9091387  57.2267125  61.9173194  81.4755785  55.3570642
  61.8971621  82.1156518  54.4750216  63.3025050  80.8152737  55.4533993
  64.0560550  81.5401667  55.7612819  63.2642572  80.0017765  56.1778712
  63.7815714  80.2200590  54.1659243  64.0623612  80.9816025  53.0513241
  64.4540678  80.1905504  52.0671476  64.7277973  80.6048789  51.0968368
  64.4314568  78.9437288  52.5015788  64.6790714  78.1238808  51.9661946
  64.0139560  78.9336984  53.8104575  63.9292027  77.9894051  54.3482570
  60.8288398  80.4179298  55.1851913  60.0660536  80.1516237  56.1200770
  60.7551907  79.8406438  53.9867900  61.4124853  80.1203060  53.2727506
  59.7473687  78.8323079  53.6469392  59.5053930  78.2311238  54.5233664
  58.4661281  79.5265253  53.1586138  58.1403480  80.2028981  53.9488583
  58.7706898  80.1064386  52.2873832  57.3183865  78.6027827  52.7768049
  56.7789009  77.7108810  53.7007425  57.1978970  77.6760165  54.7063897
  55.7191733  76.8703873  53.3567911  55.3125673  76.1726755  54.0888919
  55.1822046  76.9264781  52.0801676  54.1348976  76.0924868  51.7556442
  53.8670847  75.5261564  52.4830683  55.6942768  77.8088915  51.1419306
  55.2787355  77.8543557  50.1352733  56.7574143  78.6479616  51.4993113
  57.1623881  79.3536064  50.7739412  60.2903609  77.9090381  52.5631978
  60.9298161  78.3748880  51.6179327  60.0575856  76.6043570  52.7172913
  59.6859010  76.2703233  53.5949993  60.3349680  75.6228806  51.6596736
  60.4694705  76.1437421  50.7116696  61.6051114  74.8144915  51.9597766
  61.4281792  74.2999654  52.9042644  61.7009956  74.0808435  51.1593600
  62.9023480  75.6373593  52.0592656  62.6798978  76.5022485  52.6842323
  63.6457610  75.0131076  52.5549933  63.4495817  76.1090159  50.7144064
  62.8977404  75.7363584  49.6555412  64.4529060  76.8601127  50.7220828
  59.1507398  74.6745832  51.5464904  58.5111387  74.3709310  52.5510589
  58.8689960  74.2026103  50.3318184  59.4067797  74.5108399  49.5343960
  57.7517094  73.2801693  50.1025867  57.6329591  72.6280030  50.9678478
  56.4414403  74.0493073  49.8846134  55.6528277  73.3114211  49.7372589
  56.2427447  74.6159450  50.7943066  56.4777109  75.0028472  48.6875891
  57.1095868  75.8464388  48.9654141  56.9379495  74.4615563  47.8609792
  55.1121286  75.5125983  48.2606208  54.9706228  75.8330069  47.0612774
  54.1899193  75.5931520  49.1010415  58.0217206  72.3668068  48.9066971
  58.8212816  72.7008769  48.0290796  57.3610499  71.2126149  48.8802373
  56.8691722  70.8827185  49.6983596  57.3958646  70.3526606  47.6990183
  57.5441795  70.9618574  46.8074012  58.5418307  69.3371783  47.7951350
  59.4377754  69.8948294  48.0679125  58.2863867  68.6456707  48.5980457
  58.8037261  68.5481737  46.5048034  58.0705239  67.7456070  46.4247893
  58.7017260  69.2191461  45.6518708  60.2106967  67.9526608  46.5184801
  60.9248258  68.7720394  46.6005613  60.2971019  67.3071538  47.3925250
  60.5069272  67.1445410  45.2585083  61.4092671  66.5649420  45.4533112
  59.6665343  66.4673109  45.1061981  60.7041773  67.9750337  44.0345960
  61.4831316  68.6023413  44.1753625  60.8948975  67.3729984  43.2463833
  59.8680073  68.5118610  43.8536672  56.0530821  69.6507286  47.5071545
  55.5676401  68.9663972  48.4147263  55.4626756  69.8477250  46.3306709
  55.8653667  70.5143106  45.6875513  54.2314570  69.1651360  45.9399973
  53.6765087  68.8678662  46.8298075  53.3463984  70.0910910  45.0971476
  53.2030453  71.0276687  45.6360089  53.8595117  70.2888547  44.1560290
  51.9844504  69.4941311  44.7910405  51.7835415  68.2824541  44.8580664
  51.0322830  70.3543819  44.4582167  50.1045815  70.0178803  44.2431899
  51.2389426  71.3423207  44.4212093  54.5994639  67.9095066  45.1561613
  55.0222797  67.9953473  44.0095248  54.4425093  66.7443215  45.7835518
  54.1421059  66.7267107  46.7476820  54.8729408  65.4849265  45.1659776
  55.7915657  65.6410582  44.6004245  55.1372654  64.4333363  46.2487318
  54.3335537  64.4663656  46.9842967  55.2333729  63.4189224  45.8616557
  56.4082867  64.7329824  46.9879057  56.5538026  65.5375234  48.0864856
  55.6479984  65.9966430  48.4825004  57.8765596  65.5906039  48.4655945
  58.2381650  66.0926780  49.2638818  58.6207568  64.8310486  47.5977977
  59.9966253  64.5693002  47.5776085  60.6242112  65.0221982  48.3451487
  60.4708463  63.7510204  46.5824765  61.5371019  63.5311436  46.5290633
  59.6069348  63.1847321  45.6220867  59.9928219  62.5320612  44.8390086
  58.2374647  63.4410521  45.6441713  57.6105557  62.9737256  44.8847691
  57.7264510  64.2751619  46.6489832  53.9489776  64.9734697  44.0483068
  54.3177334  64.0707713  43.2861311  52.7711962  65.5810620  43.9344534
  52.4996024  66.2713985  44.6198523  51.8158901  65.2426320  42.8699646
  51.6339689  64.1679280  42.8660832  50.4860536  65.9622895  43.0928391
  50.6319924  67.0381074  42.9957984  49.7601692  65.6263664  42.3523342
  49.7093158  65.7040049  44.7118995  48.6453070  66.4672441  44.4789841
  52.3347693  65.5756627  41.4691335  51.8753044  64.9986157  40.4848841
  53.2906610  66.4996389  41.3849847  53.6073001  66.9717690  42.2198093
  53.8061091  66.9576807  40.0878571  53.0345391  66.8534232  39.3250272
  54.2222210  68.4413202  40.1687435  54.4376918  68.7568562  39.1479063
  53.3538080  68.9849078  40.5408610  55.4236239  68.7372074  41.0551355
  55.3405785  68.0978077  41.9339827  56.3199360  68.4699504  40.4954056
  55.5152371  70.2042596  41.4970142  56.5612679  70.5797623  42.0601681
  54.5521173  70.9798718  41.2911406  54.9385940  66.0898186  39.5137324
  55.3713450  66.2963388  38.3747600  55.4014546  65.1169291  40.2972948
  54.9777515  64.9549584  41.1997030  56.5897207  64.3325403  39.9348436
  57.2953850  64.9560387  39.3858567  57.2780361  63.8103390  41.1968997
  56.5243600  63.2896554  41.7876282  58.0443559  63.1024112  40.8811589
  57.9168018  64.9069694  42.0414767  57.1525387  65.6397014  42.3005262
  58.2956256  64.4408147  42.9510323  59.0604856  65.6022800  41.3132237
  60.0227992  64.9086995  40.9194781  58.9922828  66.8367772  41.1205112
  56.3111177  63.1861679  38.9633865  55.6485518  62.2048963  39.3214316
  56.8399695  63.3090792  37.7411845  57.3201916  64.1616627  37.4910097
  56.6724469  62.2784854  36.7126178  55.6096650  62.0980461  36.5512622
  57.3059906  62.7102708  35.3784766  56.8306268  63.6456501  35.0831903
  58.3654411  62.8850558  35.5658661  57.1490048  61.6776276  34.2504374
  57.8338104  60.8546175  34.4548792  56.1230985  61.3100361  34.2726833
  57.4425119  62.2212841  32.8535032  56.8760152  61.7447360  31.8652353
  58.3240191  63.2127248  32.7662777  58.5505803  63.6049707  31.8635515
  58.7630634  63.5690958  33.6031416  57.2388520  60.9312948  37.1593847
  56.6588347  59.8859152  36.8509962  58.3613664  60.9584282  37.8805706
  58.8356331  61.8349477  38.0445340  59.0478244  59.7139658  38.2553222
  58.5833609  58.8729151  37.7405343  60.5398284  59.7651797  37.8688842
  60.9540152  60.6523205  38.3479768  61.0534495  58.8786835  38.2409297
  60.7309867  59.8670075  36.3592861  61.2291665  61.0296927  35.7694191
  61.5017076  61.8718660  36.4054733  61.3815881  61.1239720  34.3726592
  61.7849950  62.0298170  33.9201004  61.0195730  60.0484172  33.5706255
  61.1565656  60.1202204  32.1963995  61.5124634  60.9605063  31.8983122
  60.5111707  58.8946073  34.1381155  60.2238654  58.0537512  33.5068334
  60.3665174  58.8086833  35.5215021  59.9618071  57.9023474  35.9719071
  58.8054024  59.2659569  39.7051983  59.5191338  58.4075008  40.2307785
  57.7752957  59.8423643  40.3309256  57.3605674  60.6709694  39.9290384
  57.2433301  59.3462028  41.6078776  57.7720004  58.4345077  41.8861201
  57.4153646  60.3776639  42.7355447  57.0001355  61.3249204  42.3914677
  56.8522594  60.0275874  43.6006800  58.7814992  60.5625861  43.1010103
  58.8391872  61.2124284  43.8052666  55.7570265  58.9838038  41.4827148
  55.3363811  57.9048474  41.9108322  54.9676067  59.8999717  40.9215589
  55.3740939  60.7614369  40.5857835  53.5132027  59.7069331  40.7690925
  53.2050013  60.2129926  39.8542073  53.3284496  58.6371172  40.6718319
  52.6955349  60.2467248  41.9329332  51.4699034  60.3718423  41.8412928
  53.3861463  60.5843339  43.0233652  54.3945160  60.5356796  42.9929868
  52.7508638  61.0227063  44.2639569  52.6359597  62.1064483  44.2439718
  51.7697852  60.5553375  44.3485181  53.5875289  60.6368144  45.4704780
  54.7284451  60.1959222  45.3267619  53.0173839  60.8236861  46.6614656
  52.1193136  61.2849982  46.6890361  53.6325081  60.4208809  47.9327214
  54.1293087  59.4591007  47.8051779  54.6668798  61.4473924  48.4017185
  54.5056010  62.4080061  47.9125254  54.6174232  61.5779198  49.4827442
  56.3786941  60.9745131  48.0298289  56.9404629  62.0563582  48.5617362
  52.5340354  60.2710815  48.9875313  51.4430272  60.8244262  48.8036735
  52.7875674  59.5433550  50.0830082  52.0387248  59.4486235  50.7540969
  54.0678852  58.8671626  50.3638625  54.8927461  59.5370962  50.1211846
  54.1755656  58.4719119  51.8466005  53.7407623  57.4743878  51.9097739
  55.2386145  58.4198923  52.0818044  53.4847937  59.3864161  52.8348364
  53.8205356  60.7388957  52.9253532  54.5934734  61.1333091  52.2657284
  53.1857482  61.5823270  53.8397150  53.4547358  62.6370783  53.8967002
  52.2119281  61.0709705  54.6775544  51.5813648  61.9053633  55.5818434
  51.8970772  62.8109919  55.5398654  51.8635646  59.7270881  54.6136419
  51.0948930  59.3231519  55.2724894  52.5084020  58.8898567  53.6936624
  52.2477353  57.8326973  53.6429959  54.2209654  57.5910009  49.5582559
  55.3440818  57.1637572  49.2425373  53.0880474  56.9565546  49.2653793
  52.1943436  57.3607756  49.5062078  53.1107117  55.6077022  48.7213808
  53.8655553  55.4881282  47.9441984  53.3833188  54.5556548  49.8503106
  54.2366284  54.8953560  50.4373081  52.1683009  54.3810948  50.7691606
  51.3146585  54.0409394  50.1829109  52.3969725  53.6437041  51.5386172
  51.9283065  55.3343744  51.2400761  53.7631251  53.2995402  49.2711073
  53.9279477  52.6619056  49.9695741  51.8553416  55.2651561  47.9183584
  50.9468112  56.0933509  47.7537167  51.8377255  54.0408112  47.4137216
  52.6296151  53.4420135  47.5993327  50.7423469  53.5091969  46.6138485
  50.3656176  54.2440308  45.9023759  51.2515958  52.2858821  45.8335413
  51.6512780  51.5642937  46.5460472  50.1404054  51.6368682  45.0251633
  49.7405144  52.3577589  44.3120692  50.5371160  50.7759988  44.4869962
  49.3454441  51.3106779  45.6957877  52.3118359  52.6946871  44.9573773
  52.6334242  51.9341885  44.4676598  49.5667404  53.0762865  47.5017827
  49.7683942  52.3748574  48.5010770  48.3518760  53.4959984  47.1354202
  48.2620306  54.2471684  46.4662635  47.1336913  52.9944377  47.7879330
  47.4157022  52.3248948  48.6005099  46.2710914  54.1421479  48.3690669
  45.5812865  53.6961120  49.0855307  46.9827555  54.7766614  48.8972968
  45.4912239  54.9795175  47.3695601  44.2278152  54.5771017  46.9207763
  43.8120374  53.6413540  47.2944132  43.4989656  55.3532869  46.0074939
  42.5231228  55.0168517  45.6572883  44.0280629  56.5500659  45.5438518
  43.3094616  57.3193974  44.6475694  42.4622476  56.9320207  44.4156917
  45.2741445  56.9799156  45.9840826  45.6894733  57.9207307  45.6228771
  46.0004123  56.1954671  46.8998252  46.9747443  56.5325532  47.2535909
  46.3179360  52.0811155  46.8676609  46.4259282  52.1580848  45.6425298
  45.5115489  51.2130631  47.4725236  45.4889722  51.1710609  48.4813969
  44.6715479  50.2829381  46.7215643  44.9250893  50.3299359  45.6625047
  44.8862525  48.8428009  47.2146422  44.9322540  48.8027597  48.3029344
  44.0584607  48.2266711  46.8635797  46.1515450  48.1970863  46.7049585
  47.3995899  48.6738736  47.0862232  47.4583729  49.5286518  47.7600174
  48.5726043  48.0708982  46.6163404  49.5464069  48.4638409  46.9085825
  48.4927143  46.9711761  45.7771932  49.4026014  46.4938147  45.4134192
  47.2486497  46.4764039  45.3990430  47.1807638  45.6119061  44.7386377
  46.0854677  47.0899351  45.8675483  45.1093978  46.7012924  45.5771273
  43.1950112  50.6613190  46.8632268  42.6514144  50.6310335  47.9741900
  42.5362713  51.0222782  45.7454526  43.1120435  51.3118711  44.4185765
  43.1790870  50.3945644  43.8336373  44.1063405  51.7442119  44.5306209
  42.1236969  52.2887922  43.8482466  42.1736395  52.3016020  42.7594671
  42.3047477  53.2929688  44.2315890  40.7951338  51.7578299  44.3333283
  40.4913234  50.9277893  43.6954954  40.0018012  52.5048640  44.3590783
  41.0814689  51.2460518  45.7576809  40.8593658  51.9786763  46.5335867
  40.2914023  49.9538762  46.0318908  40.8543632  48.8620306  45.9527376
  38.9896871  50.0760934  46.3607713  38.1742534  51.2943523  46.4914430
  38.4652461  52.0191873  45.7311551  38.3140142  51.7302526  47.4806634
  36.7896437  50.7756591  46.2886692  36.5563549  50.7653883  45.2239768
  36.0796516  51.4181291  46.8094809  36.7809028  49.3900562  46.8649644
  36.0805648  48.7549895  46.3224552  36.5224083  49.3932693  47.9238647
  38.2188710  48.8655023  46.6759739  38.6236854  48.4552752  47.6011428
  38.2689272  47.8010742  45.5836603  38.1068277  48.1091471  44.3968760
  38.5124692  46.5600341  45.9977398  38.7623355  46.3987915  46.9629688
  38.4319198  45.4103256  45.1026022  38.0167910  44.5865906  45.6833155
  37.7379970  45.6785063  44.3059532  39.7420232  44.9676014  44.4864485
  39.8207154  43.8757895  43.9244207  40.7770088  45.7985860  44.6070696
  40.6786100  46.6573819  45.1294552  42.0247077  45.5739356  43.8648664
  41.8623304  44.9900547  42.9588775  42.7194572  46.9242126  43.4963649
  42.9042068  47.4822307  44.4142886  44.0529756  46.6838516  42.7650337
  43.8689667  46.1262485  41.8467090  44.5124383  47.6419082  42.5218832
  44.7228603  46.1130036  43.4080626  41.7717842  47.8084973  42.6669324
  41.0032685  48.1681340  43.3511443  42.3643052  48.6514708  42.3113847
  41.1067838  47.1107418  41.4720991  40.5136730  46.2678801  41.8269281
  40.4591319  47.8170003  40.9526328  41.8747104  46.7512147  40.7871693
  42.9905024  44.6161816  44.5641072  43.5716664  43.7410499  43.9198799
  43.1499728  44.7690671  45.8786114  42.6467667  45.4923970  46.3722477
  44.1351969  43.9752434  46.6224653  45.1109149  44.0685662  46.1456378
  44.2518458  44.4555734  48.0780913  44.4758157  45.5147386  47.9511827
  43.2725351  44.3450760  48.5437531  45.3207958  43.8099907  48.9744135
  45.0911114  42.7477841  49.0584557  46.7361948  43.9830742  48.4189948
  46.9667875  45.0450944  48.3350974  47.4512962  43.5085143  49.0909499
  46.8000966  43.5190736  47.4347589  45.2343341  44.3677622  50.3867627
  44.2486338  44.1568947  50.8015269  45.9974618  43.9010795  51.0096147
  45.3948547  45.4456098  50.3627509  43.8409933  42.4747283  46.5644607
  44.7611133  41.6678922  46.4150793  42.5648258  42.1025426  46.6700273
  41.8407302  42.7754797  46.8772484  42.1942559  40.6820660  46.5909747
  42.8898577  40.0733069  47.1685990  40.7521509  40.3899666  47.0840396
  40.4730803  39.3801939  46.7830763  40.6698089  40.5091081  48.6106549
  40.9483116  41.5188160  48.9123596  39.6510280  40.3007994  48.9374454
  41.3514769  39.7925164  49.0688313  39.8170452  41.2820990  46.4530774
  38.9302697  41.0903987  46.7668934  42.3755178  40.1226995  45.1853627
  42.8087676  38.9840447  45.0238267  42.0714712  40.9304868  44.1736744
  41.7340424  41.8658522  44.3506849  42.1056704  40.4568765  42.7936441
  41.8022764  39.4106171  42.7563285  41.1516267  41.2747753  41.9174642
  41.3619086  42.3268584  42.1098234  41.3893755  41.0411089  40.8796899
  39.6714051  40.9959805  42.1758119  39.4972457  41.0238972  43.2514466
  39.0778768  41.7716581  41.6919211  39.2256312  39.6414166  41.6461977
  39.2132160  39.4053317  40.4374414  38.8535731  38.7481468  42.5518283
  38.5480438  37.8317338  42.2569715  38.8772855  38.9879435  43.5326630
  43.5095705  40.4362494  42.1897077  43.8283404  39.5427570  41.4084356
  44.3366185  41.4118141  42.5626769  44.0413967  42.0706843  43.2689583
  45.6467335  41.6079852  41.9328590  45.8508478  40.7957119  41.2352570
  45.6659953  42.9336264  41.1609292  45.4415348  43.7240898  41.8770886
  46.6803641  43.0632121  40.7836184  44.6883130  43.0038866  40.0108154
  43.3931660  43.4881480  40.1968750  43.0910179  43.8167806  41.1912625
  42.4878483  43.5558522  39.1328125  41.4779383  43.9360528  39.2865367
  42.8853071  43.1314037  37.8723213  42.0006690  43.1954453  36.8123746
  41.1429702  43.5481837  37.0604229  44.1675678  42.6442605  37.6687506
  44.4767022  42.3056597  36.6798695  45.0592110  42.5889514  38.7316421
  46.0713246  42.2158211  38.5751176  46.8379520  41.5840085  42.8914338
  47.9832722  41.5610377  42.4419642  46.5755290  41.5880694  44.1978008
  45.6209176  41.4986922  44.5153354  47.6357144  41.7193044  45.2064723
  48.0713899  42.7107218  45.0824655  47.1554308  41.6535855  46.1827448
  48.7396258  40.6817270  45.1285626  49.9090248  40.9894640  45.3655538
  48.3771977  39.4517457  44.7735784  47.4087156  39.2203644  44.6044496
  49.3585749  38.3625372  44.7952508  49.9442878  38.4244641  45.7124229
  48.6806423  36.9941921  44.7402706  49.4618711  36.2605950  44.9393088
  47.9557132  36.9820998  45.5541696  47.9863033  36.6507098  43.4424824
  47.7540055  37.5754160  42.9142239  48.6589026  36.0450430  42.8351276
  46.6871149  35.8690505  43.7029018  45.9074366  36.5823115  43.9702210
  46.4082897  35.3544357  42.7833761  46.8063654  34.8803856  44.7760696
  47.6775809  34.3727363  44.8341640  45.8470695  34.6007380  45.6586871
  44.6831348  35.2393096  45.6247997  44.5189015  35.9465897  44.9227439
  43.9675249  35.0147417  46.3012399  46.0572083  33.6853170  46.5952400
  46.9438488  33.2033403  46.6360705  45.3296144  33.4744437  47.2632506
  50.4690456  38.4824156  43.7456156  51.5070168  37.8341672  43.8704787
  50.2658102  39.3097858  42.7229906  49.3704603  39.7482878  42.5612380
  51.3069776  39.4496521  41.6933690  52.0544551  38.6592470  41.7614593
  50.7427266  39.4781742  40.2394305  51.5760221  39.5551797  39.5410123
  49.9412259  38.2076376  39.9394331  49.1074279  38.1301774  40.6372023
  49.5582401  38.2512832  38.9198658  50.5868968  37.3361221  40.0474682
  49.9100824  40.7330047  39.9932211  50.5309264  41.6165429  40.1415956
  49.5309766  40.7234057  38.9713178  49.0727314  40.7566815  40.6906332
  52.2641254  40.6254269  41.9404495  53.2027449  40.8266762  41.1748071
  52.0339751  41.3870933  43.0105043  51.2275110  41.2118960  43.5927592
  52.8725626  42.5604377  43.3131955  52.7280123  43.3155132  42.5404953
  52.5115276  43.1740687  44.6717649  51.8683520  42.4070188  45.1031104
  53.4450805  43.2220987  45.2323646  51.8059673  44.5279769  44.7408891
  50.7986167  44.4405789  44.3338175  51.7280736  44.9711227  46.2028017
  52.7351291  45.0591953  46.6104549  51.2261336  45.9367343  46.2640477
  51.1673715  44.2336771  46.7771600  52.4889193  45.6034124  43.9083995
  52.5089922  45.2961526  42.8627954  51.9383487  46.5395788  44.0009512
  53.5092666  45.7458647  44.2643459  54.3789716  42.2963431  43.2587183
  55.1150864  43.0573301  42.6298186  54.8370781  41.2341637  43.9186777
  54.2231471  40.7085790  44.5244407  56.2697666  40.9111215  43.9294651
  56.7988842  41.5956777  43.2665046  56.8650320  41.0376129  45.3443789
  57.8877729  40.6650710  45.2868217  56.8791689  42.1011310  45.5827680
  56.1163385  40.2892241  46.4242942  55.1298774  40.7437703  46.5158543
  56.0103787  39.2555797  46.0949707  56.8187509  40.3217556  47.7787345
  57.8206339  39.8991730  47.7028834  56.8831953  41.3429561  48.1543618
  56.0457251  39.5243975  48.7235167  56.2321046  38.5319677  48.7446145
  55.1091505  40.0119622  49.5335122  54.8544922  41.3172190  49.5677301
  55.3759860  41.9461082  48.9738930  54.1408277  41.6733145  50.1873902
  54.4392964  39.1929872  50.3282067  54.6423237  38.2036839  50.3155939
  53.7280771  39.5609660  50.9437206  56.6045216  39.5641027  43.2736536
  57.6950711  39.0133427  43.4791241  55.6702359  39.0539060  42.4708905
  54.7668629  39.5016360  42.4112715  55.8924559  37.8317799  41.6937418
  56.3641074  37.0744145  42.3198741  54.5579565  37.2796751  41.1781124
  53.9277190  37.1101869  42.0511380  54.1140959  38.0565035  40.5555166
  54.6714903  35.9882076  40.3751163  55.2582865  36.1883737  39.4786206
  55.1767304  35.2340993  40.9785691  53.3160467  35.4467284  39.9569263
  53.0226692  35.3365201  38.7671760  52.4789265  35.1139902  40.9345464
  51.5644935  34.7487643  40.7097716  52.7611984  35.2279429  41.8975826
  56.8381086  38.1145914  40.5180359  56.5583876  38.9872453  39.6928351
  57.9676902  37.3864591  40.4414663  58.4550096  36.3557333  41.3767315
  57.9292671  35.4180984  41.1963542  58.2794556  36.6785244  42.4029311
  59.9163650  36.2699638  41.0459551  60.3003286  35.2789081  41.2877809
  60.4741062  37.0214483  41.6047905  59.9840689  36.5376304  39.5796987
  59.7420887  35.6253814  39.0344039  60.9529591  36.9117997  39.2490192
  58.9016564  37.5962657  39.3314315  59.2709214  38.6197130  39.3969859
  58.2618235  37.3741874  37.9657303  57.3839083  36.5206117  37.8247249
  58.7043021  38.1497699  36.9817885  59.3475838  38.8972895  37.1997391
  58.2866618  37.9787061  35.5930021  57.5413581  37.1878120  35.5086929
  57.6940268  39.2832493  35.0002653  58.4239369  40.0849317  35.1126748
  57.3615396  39.1023935  33.5228444  56.6312863  38.3011305  33.4096691
  56.9471025  40.0295713  33.1270115  58.2682675  38.8470364  32.9744477
  56.4468599  39.7026395  35.7634242  56.7010200  39.8749911  36.8092730
  56.0471268  40.6199963  35.3312558  55.6974534  38.9138865  35.6973968
  59.5251436  37.5581898  34.8100366  60.3233891  38.4059942  34.4078603
  59.6703348  36.2455402  34.6129466  58.9599270  35.6296738  34.9819029
  60.8654059  35.6444888  34.0023662  60.8081569  34.5592723  34.0867872
  60.9800766  36.0172414  32.5107513  59.9933992  35.8922242  32.0647273
  61.2747181  37.0650133  32.4519250  61.9926548  35.1608579  31.7538327
  62.6315810  34.2780491  32.3682787  62.1461198  35.3826009  30.5318325
  62.1172948  36.0193059  34.8093212  62.3330340  35.4680513  35.8904336
  62.9111823  36.9691290  34.3099020  62.7121054  37.3555183  33.3982161
  64.1499576  37.3792886  34.9848344  64.3344942  36.7343245  35.8439425
  65.3419044  37.2711106  34.0257858  65.0499596  37.7294519  33.0809098
  66.1693676  37.8317584  34.4606176  65.7786741  35.8304342  33.7782466
  66.4640925  35.5312339  34.5712041  64.8976327  35.1890020  33.7990529
  66.4685895  35.6958662  32.4382611  67.1452165  36.5383575  32.2951412
  67.0372821  34.7662111  32.4175365  65.5041220  35.6788856  31.3418911
  64.5406807  35.5069301  31.5915138  65.8022581  35.8761273  30.0609760
  67.0530139  36.1108883  29.6813826  67.7898161  36.1407343  30.3715505
  67.2617052  36.2585088  28.7042666  64.8398037  35.8321580  29.1532765
  63.8883918  35.6496389  29.4389375  65.0612912  35.9813287  28.1792180
  64.0836459  38.7683802  35.6352507  65.1034076  39.2956155  36.0890603
  62.8790601  39.3401125  35.6853929  62.1111970  38.9006782  35.1981732
  62.6210685  40.5922660  36.4039178  63.5495536  41.1436164  36.5523345
  61.5932442  41.4974167  35.6689808  60.6424757  40.9689436  35.5992973
  61.3913288  42.8163102  36.4331372  62.3416405  43.3456036  36.5028278
  60.6684634  43.4367515  35.9034025  61.0205422  42.6028722  37.4356644
  62.0281503  41.7773437  34.2280683  62.9348227  42.3807473  34.2722270
  62.2533150  40.8176619  33.7628681  60.9747551  42.5047247  33.4053470
  60.7493929  43.4647676  33.8697061  61.3513655  42.6694879  32.3958338
  60.0678839  41.9016827  33.3603492  62.0823112  40.2891374  37.8034347
  61.0874527  39.5717106  37.9559353  62.7563662  40.8399355  38.8100912
  63.6113547  41.3335368  38.5968971  62.3580494  40.7167098  40.2117103
  61.4994293  40.0508997  40.2987028  63.5138734  40.1367490  41.0375296
  64.3944748  40.7352280  40.8041560  63.2926674  40.2164754  42.1018658
  63.7797380  38.6917779  40.6856399  64.5119566  38.3569839  39.5426644
  64.9084726  39.1565322  38.9168872  64.7379945  37.0252256  39.1983681
  65.3164584  36.7756397  38.3088805  64.2247266  36.0160352  39.9965083
  64.4440691  34.6977427  39.6611477  64.9620565  34.5958525  38.8593328
  63.4882706  36.3183515  41.1304150  63.0854742  35.5247051  41.7596851
  63.2633565  37.6590526  41.4648745  62.6755075  37.9092165  42.3480232
  61.9294325  42.0991137  40.7053712  62.3543330  43.1120925  40.1483240
  61.0779689  42.1436115  41.7265487  60.7620339  41.2926131  42.1693649
  60.4595132  43.4064295  42.1302628  60.8543402  44.2268462  41.5309906
  58.9383191  43.3309531  41.9184565  58.5558214  42.4762439  42.4763695
  58.4257953  44.2359431  42.2446658  58.5548727  43.1137718  40.4842284
  58.3159389  41.8296988  39.9958716  58.3858549  40.9782551  40.6728171
  57.9894558  41.6289895  38.6523566  57.7964453  40.6231115  38.2794528
  57.9111045  42.7164724  37.7906084  57.6523621  42.5640086  36.7427978
  58.1626928  43.9985741  38.2648948  58.1081049  44.8519551  37.5889797
  58.4846423  44.1917642  39.6048172  58.6855475  45.1960899  39.9777338
  60.8154160  43.8706596  43.5361663  60.5521380  43.1768578  44.5202851
  61.4416414  45.0461376  43.6069140  61.7455776  45.4879773  42.7510519
  61.7486968  45.7043920  44.8718405  61.5915388  45.0253764  45.7098969
  63.2122708  46.1836192  44.8944531  63.3827021  46.8715816  44.0663463
  63.4137880  46.6931027  45.8367470  63.8775669  45.3258053  44.7962910
  60.7825650  46.8772828  45.0557741  59.6594105  46.8457447  44.5430809
  61.2191837  47.9112787  45.7713141  62.1607167  47.9136718  46.1368400
  60.3647697  49.0638142  46.0500464  60.9828894  49.9565319  46.1453476
  59.6593856  49.1967988  45.2297734  59.5916562  48.8597886  47.3369144
  59.1713516  47.7460914  47.6580554  59.3848353  49.9423931  48.0782359
  59.7635915  50.8373648  47.8031565  58.7306531  49.8372682  49.3835158
  59.2559530  49.1305929  50.0259870  58.6673008  51.2054582  50.1017801
  59.6567381  51.6612697  50.0650378  57.6471961  52.1425981  49.4376745
  56.6573691  51.6876370  49.4744494  57.6287851  53.0947529  49.9679210
  57.9305912  52.3112939  48.3987667  58.3289422  51.0090720  51.4839939
  58.2901597  51.8594077  51.9278694  57.3392966  49.1782521  49.3429424
  56.9260781  48.5284522  50.3097792  56.6390247  49.3216341  48.2149571
  57.0214582  49.8745439  47.4612100  55.2935027  48.7659625  48.0550056
  54.6460856  49.1242589  48.8553642  54.6981306  49.1985025  46.7141244
  55.4716124  49.0648038  45.9578508  53.8626249  48.5319156  46.5003672
  54.2116429  50.6470762  46.6941721  53.3970949  50.6964816  45.9715578
  53.8259696  50.8615336  47.6908482  55.2799613  51.6781054  46.3287015
  56.4840022  51.3480123  46.2628368  54.8939483  52.8431210  46.1023886
  55.2505792  47.2450052  48.1733371  54.1916646  46.6747398  48.4496655
  56.4009941  46.5976544  47.9570703  57.2189578  47.1200854  47.6776053
  56.4991594  45.1327845  48.0240780  55.5121681  44.6788677  47.9351581
  57.4090821  44.5646282  46.9028340  57.3968059  43.4762655  46.9612824
  56.9243974  45.0041840  45.5281135  56.9368378  46.0924947  45.4687449
  57.5806108  44.5915021  44.7618390  55.9082472  44.6436957  45.3681524
  58.7614097  44.9985059  47.1014626  59.3172263  44.6429462  46.4041495
  56.9876694  44.5990249  49.3851601  57.1458590  43.3818946  49.5554502
  57.2326707  45.4980399  50.3425015  57.1842385  46.4839599  50.1286900
  57.6566613  45.0981551  51.6896282  58.4104241  44.3205393  51.5661199
  58.2836745  46.2695550  52.4287281  57.5385097  47.0527660  52.5680473
  58.6445660  45.9349768  53.4013097  59.1181051  46.6619179  51.8474568
  56.5128641  44.5055184  52.5171085  55.3355773  44.6997800  52.1991412
  56.8752693  43.7792368  53.5768290  57.8576998  43.6302690  53.7577660
  55.8999647  43.1398794  54.4656642  54.8852666  43.3254974  54.1134812
  56.1179463  41.6087890  54.5632150  55.3537185  41.1891508  55.2174014
  56.0283754  40.9491208  53.1868455  56.7926531  41.3679462  52.5321971
  56.1854000  39.8751672  53.2871761  55.0431245  41.1332884  52.7585190
  57.3963225  41.3409404  55.1506334  57.5287471  40.3919641  55.2098623
  55.9299741  43.7276417  55.8814795  55.1155664  43.3529873  56.7283320
  56.8775504  44.6310448  56.1284026  57.5682775  44.8106988  55.4137558
  57.0025479  45.3364840  57.4107509  56.0325396  45.3694822  57.9068297
  58.0027599  44.6194683  58.3340063  57.7515800  43.5607530  58.3982708
  59.0137769  44.7293294  57.9417370  58.0291858  45.1406586  59.7411425
  59.1903261  45.2246803  60.4785078  58.9188493  45.7146722  61.6755355
  59.7108968  45.8563819  62.4108437  57.6215072  45.9548732  61.7419342
  57.1264761  46.3333719  62.5367819  57.0417464  45.6051253  60.5453713
  55.9684606  45.7306263  60.4025136  57.4292850  46.7723673  57.1216840
  58.4826478  47.0061207  56.5181510  56.5860634  47.7215675  57.5315747
  55.7529392  47.4359007  58.0259408  56.7355491  49.1374754  57.1815923
  55.8304902  49.6719104  57.4702908  57.9379874  49.7859825  57.8925816
  58.8626760  49.2718642  57.6304125  57.9893180  50.8205504  57.5532668
  57.8801488  49.8282843  59.3965640  58.4722332  48.9504609  60.2614936
  59.0291076  48.1264629  59.8153793  58.2223062  49.3188499  61.5661518
  58.5371758  48.8245023  62.3886949  57.4684110  50.4651912  61.5653781
  56.9666078  51.2182777  62.6357367  57.1847322  50.8840418  63.6500378
  56.2263878  52.3379015  62.3376532  55.8245411  52.9495185  63.1454550
  55.9731005  52.7161770  61.0023786  55.3821851  53.6029131  60.7729932
  56.4726522  51.9646967  59.9326130  56.2405317  52.2916767  58.9190525
  57.2346932  50.8195684  60.2106125  56.7924121  49.3921824  55.6620582
  57.5403515  50.2531628  55.1883437  55.9970052  48.6406769  54.9001695
  55.5792334  47.7943278  55.2596959  55.7301575  49.0096847  53.5081567
  56.6587687  48.9707819  52.9387123  54.7199003  48.0544832  52.8633718
  55.1362187  47.0472047  52.8763418  53.8001249  48.0744678  53.4479348
  54.4365669  48.4335256  51.5198722  53.8027838  47.8199291  51.1411663
  55.1906568  50.4392120  53.4633074  54.3332622  50.8014048  54.2726719
  55.6973308  51.2325614  52.5198292  56.3629879  50.8481136  51.8646957
  55.3303664  52.6455273  52.3890559  55.1832019  52.8627064  51.3310980
  54.3952968  52.8056720  52.9258034  56.3898843  53.5887939  52.9462740
  56.3720650  54.7977376  52.6632979  57.3275579  53.0182253  53.7076245
  57.3198264  52.0117092  53.7910806  58.3590668  53.7675693  54.4307809
  58.1751982  54.8385416  54.3452828  58.3338081  53.3820870  55.9185979
  58.4223695  52.2974919  55.9811243  59.2205604  53.8441313  56.3525166
  57.1035355  53.8335184  56.6827254  55.8428610  53.2925144  56.4139495
  55.7475575  52.5341717  55.6368181  54.7122508  53.7110358  57.1261990
  53.7296144  53.2946143  56.9045676  54.8522335  54.6651190  58.1225218
  53.7484537  55.0850951  58.8348892  52.9370685  54.6525535  58.5589154
  56.0937750  55.2059234  58.4136336  56.1979134  55.9570237  59.1966432
  57.2105440  54.7856344  57.7008390  58.1920788  55.1995348  57.9318716
  59.7596489  53.4800734  53.8793711  59.9564003  52.5415376  53.1008498
  60.7351222  54.2729038  54.3158396  60.5140923  55.1073208  54.8402379
  62.1410614  54.0078337  53.9904772  62.2764389  54.0080242  52.9089171
  63.0429047  55.0856645  54.5964106  62.8682215  55.0869993  55.6723210
  64.0742751  54.7950209  54.3966573  62.7921681  56.4812701  54.0399241
  62.9078165  56.4427791  52.9567599  61.7697278  56.7681997  54.2856663
  63.9312189  57.7079259  54.7150367  63.2671581  57.9378635  56.3569447
  63.2862012  56.9891407  56.8932855  63.8698478  58.6703598  56.8938944
  62.2395626  58.2946239  56.2871529  62.5575289  52.6077226  54.4700027
  63.2957267  51.9023339  53.7733667  62.0631330  52.1994393  55.6380881
  61.5458279  52.8524364  56.2091306  62.3057386  50.8507732  56.1681062
  63.3722182  50.7040269  56.3389456  61.5643357  50.6650536  57.5021793
  62.0706609  51.3058086  58.2240983  60.5503015  51.0308699  57.3408935
  61.5098777  49.2241877  58.0444605  60.7897926  49.2212064  58.8627327
  61.1490855  48.5816151  57.2413238  62.8553013  48.7026103  58.5483428
  62.9550249  47.4830506  58.7966638  63.8018956  49.5035932  58.7046835
  61.9022122  49.7612075  55.1722130  62.6904989  48.8551859  54.8651415
  60.6737379  49.8614955  54.6682167  60.0683668  50.6052423  54.9851802
  60.1601114  48.9293437  53.6643946  60.1655770  47.9290164  54.0973087
  59.1355726  49.2169365  53.4283652  60.9798230  48.9184036  52.3811814
  61.1342600  47.8765094  51.7354401  61.5015581  50.0812187  52.0018142
  61.2512899  50.9394003  52.4719093  62.3850673  50.1592619  50.8446043
  61.8437278  49.7820688  49.9769775  62.7875086  51.5953401  50.5774389
  63.3385276  51.9841204  51.4337846  63.4192509  51.6371175  49.6901642
  61.8946775  52.1993730  50.4158957  63.6181384  49.2706444  51.0290049
  63.9971923  48.5359074  50.1174541  64.2294569  49.3204562  52.2133855
  63.9409091  49.9900012  52.9123483  65.4111065  48.4873200  52.4907412
  66.1227077  48.5780311  51.6700742  66.1249312  48.8772460  53.8109189
  65.4281004  48.7553925  54.6401824  67.3469789  47.9917660  54.0394063
  68.0445275  48.1134366  53.2107186  67.8357468  48.2793299  54.9702733
  67.0346072  46.9492798  54.1006277  66.5571702  50.3338446  53.7699460
  65.6815372  50.9696791  53.6392424  67.0565641  50.5915940  54.7039003
  67.2438243  50.4863309  52.9372666  65.0509603  47.0028611  52.4829039
  65.7163820  46.2087099  51.8178251  63.9867953  46.6330191  53.1947893
  63.4872723  47.3090373  53.7547676  63.5426180  45.2375505  53.2306043
  64.3025542  44.6251900  53.7160018  62.2319336  45.0989440  54.0092677
  62.3919906  45.5185091  55.0024677  61.4741068  45.6826159  53.4866534
  61.7594957  43.6493281  54.1384070  62.1095822  43.1081304  53.2594044
  62.2247743  43.2312246  55.0310460  60.2568340  43.5183079  54.2452124
  59.6601251  44.1316081  55.1517213  59.6670960  42.7976544  53.4150120
  63.3661874  44.6824953  51.8144790  63.9017117  43.6191614  51.4864778
  62.6443082  45.4248851  50.9787226  62.2781393  46.3102992  51.2981934
  62.2850774  44.9691530  49.6316044  61.8661230  43.9683033  49.7358939
  61.2280865  45.8765879  49.0428183  61.6356149  46.8805148  48.9238592
  60.9195491  45.4926898  48.0704360  60.3662269  45.9114889  49.7092110
  63.4811506  44.8694815  48.6887919  63.5757950  43.9287759  47.8994793
  64.3807830  45.8484332  48.7615462  64.2597468  46.6048085  49.4198363
  65.5601242  45.8616336  47.9014438  65.2402242  45.7869179  46.8621264
  66.0951057  46.7996472  48.0498510  66.4904347  44.7090188  48.2146327
  66.9790168  44.0282839  47.3095903  66.7203849  44.4749390  49.5024628
  66.3713780  45.1152070  50.2012835  67.5959344  43.3842697  49.9357557
  68.4977378  43.3677823  49.3237280  68.0030340  43.5768747  51.4049341
  67.0953554  43.6700361  52.0012056  68.5576900  42.6944259  51.7239025
  68.8713901  44.8231161  51.5995981  69.6812062  44.7514016  50.8735432
  68.2434422  45.6810008  51.3591515  69.4567435  44.9976021  52.9986603
  69.1805932  44.1763072  53.9048445  70.2065315  45.9819699  53.1859891
  66.9744388  42.0058721  49.6635824  67.6711197  41.0818302  49.2295279
  65.6619554  41.8802068  49.8607234  65.1489202  42.6184433  50.3210506
  64.9490400  40.6348292  49.5321136  65.4559513  39.7910020  50.0001902
  63.4932335  40.6781976  50.0392741  63.5436900  40.8879771  51.1077057
  63.0120068  41.5120248  49.5281449  62.6760466  39.3931717  49.8066563
  63.3595450  38.5441238  49.7996931  61.9660732  39.2806876  50.6260385
  61.9160965  39.4478920  48.4763727  62.6282180  39.4702027  47.6514581
  61.2811614  38.5667607  48.3838272  61.0727395  40.6444624  48.4012510
  60.7082417  40.9918826  49.2767737  60.7468226  41.2829763  47.2793258
  61.1813273  40.8613639  46.0944690  61.7696826  40.0423727  46.0379768
  60.9207971  41.3622597  45.2570163  59.9867907  42.3729000  47.3439769
  59.6635946  42.7069951  48.2406511  59.7364501  42.8612818  46.4960904
  65.0131256  40.3119201  48.0327645  65.2824054  39.1690818  47.6546244
  64.7774093  41.3126074  47.1830070  64.5040115  42.2199124  47.5325074
  64.8288989  41.1136354  45.7318651  64.1667528  40.2859044  45.4778508
  64.3578296  42.3596772  44.9901405  65.0165656  43.1950978  45.2272888
  64.3796440  42.1739247  43.9163060  63.3400340  42.6020711  45.2958144
  66.2391422  40.7189461  45.2882386  66.4092051  39.8649468  44.4087702
  67.2407691  41.3478646  45.9003285  67.0418774  42.1064915  46.5367455
  68.6388370  41.0171245  45.6318827  68.8300656  41.1342175  44.5651962
  69.5565861  41.9491779  46.3928675  69.3832579  41.8367889  47.4631133
  70.5940423  41.7039371  46.1656192  69.3544335  42.9791010  46.0987721
  68.9348048  39.5573903  45.9907770  69.6012252  38.8543803  45.2377818
  68.4320731  39.1060386  47.1359357  67.9655253  39.7399190  47.7688877
  68.6456942  37.7194772  47.5708547  69.6843578  37.4383125  47.3970058
  68.3387962  37.5596288  49.0612453  67.3322230  37.9433246  49.2276402
  68.3618979  36.4929054  49.2841077  69.3173682  38.2898117  49.9725892
  70.3336478  37.9803205  49.7286799  69.2182236  39.3641754  49.8176218
  69.0230620  37.9593683  51.4230822  67.9881381  37.6267766  51.5031720
  69.6878963  37.1561735  51.7408446  69.2158146  39.1014988  52.3060536
  70.1690660  39.3949241  52.4651530  68.2355814  39.7811340  52.8955092
  66.9536358  39.4444507  52.7244601  66.7152187  38.6584759  52.1366669
  66.2290792  39.9775160  53.1837626  68.5444696  40.8008558  53.6774130
  69.5130292  41.0506026  53.8174801  67.8105433  41.3256914  54.1312836
  67.8644433  36.6986398  46.7321420  68.2941561  35.5471956  46.5918173
  66.7227240  37.1118398  46.1788239  66.3168264  37.9950245  46.4532894
  65.9882259  36.2758289  45.2193828  65.7361747  35.3233545  45.6856036
  64.6889824  36.9608324  44.7686074  64.9255806  38.0047457  44.5627781
  64.3662098  36.4737314  43.8484712  63.5716470  36.8879510  45.7997988
  63.4502089  35.8441811  46.0894505  63.8922416  37.4694155  46.6642161
  62.2463259  37.4291035  45.2888663  61.2300929  36.7156418  45.4135567
  62.2090233  38.5654754  44.7709653  66.8646227  35.9391596  44.0116761
  66.8901219  34.7910644  43.5519063  67.5836313  36.9452309  43.5140738
  67.3969776  37.8846709  43.8345614  68.5387975  36.7620882  42.4189545
  68.1036331  36.1394828  41.6372298  68.9844666  38.1179373  41.8114429
  69.2341601  38.8009644  42.6233711  70.2110482  37.9349130  40.8999283
  69.9619680  37.2523260  40.0874416  70.5041211  38.8998119  40.4861903
  71.0369586  37.5227973  41.4796971  67.8099367  38.7259106  41.0377234
  67.6776750  38.1195845  40.1416339  66.9309570  38.6282447  41.6748698
  67.9878621  40.1742143  40.6438924  68.8664448  40.2726078  40.0063103
  67.1059141  40.5147461  40.1013935  68.1197292  40.7812680  41.5395468
  69.7382887  35.9019266  42.8372475  70.1300950  35.0015085  42.1024483
  70.3081696  36.1647747  44.0124376  70.0586917  36.9938588  44.5325142
  71.3923587  35.3183669  44.5290783  72.2213594  35.3229861  43.8213808
  71.9020627  35.8227991  45.8838841  70.9823041  35.8999102  46.4637092
  72.5287273  35.0343734  46.3007492  72.6551536  37.1576436  45.9405792
  72.0191644  37.9441877  45.5344179  73.0205766  37.4933182  47.3766797
  73.6569842  36.7074023  47.7833987  73.5547553  38.4430670  47.4037178
  72.1125115  37.5706351  47.9746264  73.9137400  37.1515408  45.0626283
  73.6332806  36.9654335  44.0258997  74.4129540  38.1177515  45.1355907
  74.5902322  36.3670959  45.4018972  70.9729559  33.8452206  44.6096417
  71.7592022  32.9487659  44.2756571  69.7337749  33.5969244  45.0327416
  69.1626204  34.3433723  45.4024676  69.1998283  32.2346020  45.0629187
  69.9185863  31.5765990  45.5513019  67.8750904  32.1678032  45.8298277
  68.0247148  32.3609338  46.8920953  67.1836591  32.9045957  45.4209761
  67.1940164  30.8385166  45.7279587  67.6538407  29.7143365  46.3802392
  66.8681194  28.6904535  46.0960530  67.0654038  27.7053048  46.5187347
  65.9159037  29.1093267  45.2822523  65.1704360  28.5456407  44.8993215
  66.0988349  30.4486954  45.0338384  65.4109778  30.9799010  44.3759824
  69.0300713  31.6502081  43.6605303  69.3277428  30.4741633  43.4396519
  68.5614200  32.4729786  42.7219364  68.2558984  33.3983872  42.9872190
  68.4008092  32.0624889  41.3250869  67.7573956  31.1828481  41.3063751
  67.7361158  33.1697798  40.5140885  68.3728674  34.0544516  40.5159028
  67.5884361  32.8311528  39.4886020  66.7712768  33.4163018  40.9572724
  69.7335158  31.6666708  40.6946885  69.7787908  30.8067597  39.8127695
  70.8091261  32.3024509  41.1542385  70.6870085  33.0420921  41.8310822
  72.1618940  32.0241765  40.6661356  72.1190995  31.7111242  39.6229357
  73.0403775  33.2734614  40.7662155  73.0218282  33.5954059  41.8074200
  74.0534820  32.9749565  40.4967455  72.5964535  34.4201055  39.8739943
  72.6647271  34.0842082  38.8392902  71.5577555  34.6474131  40.1138688
  73.5898292  35.9058085  40.0802451  73.5465242  36.0890220  41.8479825
  73.9795382  35.2050274  42.3161187  74.1197605  36.9700373  42.1366221
  72.5136813  36.2044968  42.1766196  72.8258391  30.8644414  41.4038533
  73.9409290  30.4599157  41.0568383  72.1416374  30.3396176  42.4199055
  71.2463506  30.7365543  42.6668913  72.6360798  29.2031586  43.1997784
  71.7855739  28.7623778  43.7198276  73.0505012  28.4763838  42.5010990
  73.7008643  29.5725807  44.2182347  74.4706955  28.7136807  44.6544639
  73.7382453  30.8476748  44.6031224  73.0977973  31.5077523  44.1857217
  74.7575946  31.3563635  45.5238216  75.6431567  30.7224409  45.4788635
  75.1598864  32.7875019  45.1480488  74.2520491  33.3906001  45.1337895
  75.8279369  33.1557923  45.9266184  75.8550231  32.8842431  43.7949941
  76.6701971  32.1607868  43.7807413  75.1295531  32.6286509  43.0226807
  76.4075641  34.2745969  43.5301438  75.5784899  34.9821729  43.5216998
  77.0971719  34.5333017  44.3336438  77.1404055  34.3339287  42.1922184
  76.4375880  34.0315910  41.4158551  77.4424467  35.3678931  42.0255210
  78.3472231  33.4478251  42.1453412  78.0675067  32.4896300  42.2993563
  78.7890449  33.5283271  41.2406794  78.9987862  33.7280827  42.8643824
  74.3556303  31.2717478  46.9992645  75.2229293  31.2090239  47.8751362
  73.0480245  31.2747176  47.2645024  72.3988576  31.4430932  46.5092996
  72.5097692  31.1140689  48.6240414  73.2160709  30.6126601  49.2857259
  72.0778766  32.4746465  49.2588188  71.6045272  32.2777348  50.2207266
  73.2865464  33.3923117  49.4634475  73.7601772  33.5900636  48.5018506
  72.9585774  34.3326308  49.9065470  74.0024601  32.9083792  50.1278088
  70.9809972  33.1533817  48.4229934  71.4542518  33.5207238  47.5123944
  70.2515941  32.3845657  48.1680575  70.2795053  34.3029916  49.1283594
  71.0082452  35.0724637  49.3832135  69.5210144  34.7256198  48.4694390
  69.8055891  33.9363055  50.0388784  71.3240133  30.1362641  48.6288243
  70.6496303  29.9852964  47.6071500  71.0727391  29.4566143  49.7685889
  71.8769826  29.4249939  51.0054836  72.0871073  30.4455756  51.3254226
  72.8152213  28.9047889  50.8126265  71.0031347  28.6870305  51.9732263
  70.4286695  29.4052675  52.5582257  71.6277119  28.0927428  52.6401797
  70.1204476  27.8201408  51.1654938  69.1717523  27.6728123  51.6816048
  70.5687666  26.8510025  50.9466772  69.8903015  28.5959329  49.8633558
  69.8835709  27.9498486  48.9855016  68.5713767  29.3777179  49.9324053
  68.5740778  30.5831187  50.2057487  67.4649118  28.6790144  49.6880288
  67.5582767  27.7032265  49.4446768  66.1254968  29.2735010  49.6739190
  66.0718333  30.0608144  48.9220168  65.0861938  28.2009487  49.3345095
  65.5207546  27.5808983  48.5504217  64.9478971  27.6028469  50.2352027
  63.7416927  28.7352878  48.8703926  63.3314072  29.3565193  49.6665321
  63.9083891  29.3459697  47.9830488  62.7629132  27.6227533  48.5419073
  62.2885225  26.9424213  49.4806059  62.4679268  27.4287945  47.3435384
  65.7632789  29.9736392  50.9893132  65.1418168  31.0420931  50.9805378
  66.1651059  29.3745844  52.1104441  66.6300266  28.4798504  52.0521428
  65.8328263  29.9002530  53.4386861  64.7888747  30.2132656  53.4556358
  66.0435995  28.8302423  54.5265320  65.8221547  29.2757480  55.4963702
  65.3310427  28.0308347  54.3232826  67.4594716  28.2581669  54.5408799
  68.4289194  28.9981312  54.2780781  67.6042530  27.0531047  54.8400597
  66.5584499  31.2020463  53.8010267  66.2978932  31.7869720  54.8532154
  67.4554908  31.6498387  52.9247873  67.6917450  31.0820137  52.1236268
  68.2018134  32.8889967  53.1407504  68.0833341  33.2122726  54.1749431
  69.6958474  32.6824672  52.8597647  69.7776612  32.0960746  51.9445874
  70.1369748  33.6664629  52.7008340  70.4367024  31.9691375  53.9890333
  70.3401890  32.5817460  54.8854131  69.9406991  31.0117593  54.1487418
  71.9086747  31.7335321  53.6929191  72.5194649  32.5159140  52.9316071
  72.4627297  30.7530371  54.2328512  67.6587374  34.0792302  52.3408755
  68.2007052  35.1793680  52.4306897  66.5942011  33.8571651  51.5684432
  66.2470578  32.9161133  51.4500691  65.9665056  34.9345364  50.7900786
  66.7287475  35.4995391  50.2535541  64.9136433  34.3947835  49.7790584
  64.2481280  33.7060399  50.2994640  64.0954108  35.5394869  49.1809381
  64.7602338  36.2284492  48.6599371  63.3665180  35.1369223  48.4775479
  63.5753161  36.0703353  49.9783091  65.6034820  33.5977835  48.6646404
  66.1007687  34.3212967  48.0186254  66.3508051  32.9650023  49.1433842
  64.6637197  32.7319791  47.8295173  63.9163459  33.3641585  47.3500578
  65.2364368  32.2048052  47.0665088  64.1663804  32.0078652  48.4748176
  65.3535344  35.9873114  51.7228058  65.6017263  37.1857761  51.5675373
  64.5671396  35.5255445  52.6893566  64.3420222  34.5413803  52.7183794
  63.9714401  36.4017278  53.6937709  64.0063338  37.4345500  53.3471299
  62.5100126  36.0199477  53.9482692  62.4452633  34.9734898  54.2463173
  62.0830339  36.6471618  54.7308238  61.6271483  36.1788467  52.7393193
  61.4443290  35.2732991  51.7322113  61.9904389  34.3335383  51.8141477
  60.5696053  35.7723568  50.7930815  60.2770119  35.2985974  49.9504424
  60.1629015  37.0219901  51.1865336  59.2828352  37.9200333  50.5697746
  58.8167503  37.6298135  49.6281611  59.0614927  39.1221792  51.1986330
  58.3819310  39.8461594  50.7490236  59.6925538  39.4427253  52.4127323
  59.5110267  40.3989205  52.9034849  60.5689669  38.5484400  53.0256792
  61.0341207  38.8439890  53.9660958  60.8126073  37.3135623  52.4082414
  64.7901072  36.3081187  54.9745674  64.9507624  35.2203534  55.5323501
  65.3171618  37.4420535  55.4288803  65.1731996  38.3035501  54.9217335
  66.1928742  37.4653465  56.6028885  66.1762789  36.4915772  57.0923750
  67.6334774  37.7848290  56.1985924  67.6067893  38.6346253  55.5165124
  68.1787149  38.0609875  57.1011181  68.3320382  36.6140291  55.5226269
  68.3658093  35.7870449  56.2318924  67.7467794  36.3208386  54.6510689
  69.7483480  36.9260204  55.0733675  70.3443462  37.9398902  55.4670657
  70.2980532  36.0502530  54.2338482  71.2384570  36.1998961  53.8971745
  69.7719812  35.2405150  53.9377505  65.7296372  38.4235804  57.6889995
  65.3637044  39.5717964  57.4090437  65.7511509  37.9352551  58.9280401
  65.9852990  36.9620970  59.0630852  65.4134767  38.7364505  60.1033806
  64.4571484  39.2362810  59.9494168  65.3046489  37.8425934  61.3422070
  64.9789107  38.4509194  62.1859685  64.5660754  37.0645073  61.1493571
  66.5529390  37.2438318  61.6458802  66.4609625  36.6893286  62.4241258
  66.4657299  39.8164404  60.3301581  67.5813010  39.7221093  59.8126172
  66.1045198  40.8420989  61.0982402  65.1643282  40.8854199  61.4646584
  67.0160335  41.9430180  61.3984165  68.0062710  41.7261277  60.9978074
  66.5035432  43.2425925  60.7625387  66.3224527  43.0304807  59.7088243
  65.5597964  43.4844775  61.2513471  67.4586159  44.4274737  60.8860119
  66.9058422  45.3317320  60.6313376  67.7717748  44.4753038  61.9289610
  68.6882076  44.3147672  59.9910910  68.6338216  43.6185446  58.9552443
  69.7139558  44.9406490  60.3252385  67.1725577  42.1254749  62.9083250
  66.1697389  42.2736063  63.6171730  68.4269415  42.1174524  63.4091940
  69.6922489  41.8783697  62.6886160  69.9994470  42.7894949  62.1752151
  69.5535417  41.0801904  61.9593910  70.6363060  41.4905351  63.7887312
  71.6578549  41.7521056  63.5128369  70.5735142  40.4180287  63.9728198
  70.1794761  42.2623115  64.9792192  70.6232504  43.2559470  64.9171551
  70.4353927  41.8098540  65.9372842  68.6537484  42.3623646  64.8380305
  68.1084768  41.6113119  65.4096047  68.1789118  43.7552207  65.2459447
  68.2514328  44.6930034  64.4417150  67.6905543  43.8854549  66.4792642
  67.6076109  43.0768259  67.0787131  67.1973057  45.1700925  66.9754719
  66.5188766  45.6064308  66.2423676  66.4430500  44.9993979  68.3009977
  65.6461473  44.2760800  68.1282067  67.1500616  44.5942604  69.0249440
  65.8410740  46.3034416  68.8478686  66.6644507  46.9777281  69.0834306
  65.2301437  46.7391466  68.0572836  64.9908841  46.0931178  70.0851325
  63.7463676  46.1490406  69.9709212  65.5646683  45.8673618  71.1752182
  68.3335577  46.1713873  67.1407084  69.4204724  45.8212333  67.6153647
  68.0711520  47.4119149  66.7339705  67.2068786  47.5924387  66.2435197
  68.9984478  48.5195241  66.9309180  69.9357315  48.3155648  66.4132317
  68.4036544  49.8142796  66.3733600  68.3759156  49.7478974  65.2857373
  67.3893193  49.9277666  66.7559106  69.1798419  50.9323629  66.7574481
  68.7891736  51.7319765  66.3974532  69.3307711  48.6990328  68.4113652
  68.4466877  48.6257994  69.2666835  70.6089527  48.9149860  68.7062451
  71.3157145  48.8052261  67.9931252  71.0423143  49.2220182  70.0731360
  70.4067797  48.7446312  70.8189890  72.5253071  48.8042500  70.3392320
  72.7781320  49.0443829  71.3719541  72.7184602  47.3140158  70.1036922
  72.4662549  47.0731784  69.0709817  73.7578063  47.0471075  70.2950561
  72.0699297  46.7523210  70.7760081  73.5041128  49.6200041  69.4884614
  73.3979276  50.6784974  69.7259875  74.5244390  49.3009987  69.7012280
  73.2873244  49.4617067  68.4320308  70.8455678  50.7015713  70.4015360
  70.7564390  51.0825081  71.5744350  70.7788924  51.5257104  69.3597552
  70.8310583  51.1384056  68.4284266  70.6727261  52.9768330  69.5019699
  71.1847901  53.3014200  70.4078027  71.3173427  53.6699891  68.3012931
  70.6984423  53.4450216  67.4327016  71.3214316  54.7460553  68.4749734
  72.7333814  53.1941512  68.0488689  72.9763277  52.5785348  66.9893349
  73.5989926  53.4159352  68.9201078  69.2283008  53.4397183  69.6311081
  68.9588141  54.4694483  70.2473605  68.3111031  52.6803159  69.0319266
  68.6082167  51.8646251  68.5157179  66.8886899  53.0267277  69.0238372
  66.6879947  53.8313638  69.7312137  66.3994886  53.4715676  67.6109110
  66.4187944  52.6087208  66.9451619  64.9739499  54.0339094  67.6772899
  64.9539415  54.8971265  68.3425394  64.6555902  54.3370675  66.6798719
  64.2978652  53.2677104  68.0566978  67.3308859  54.5180735  67.0175741
  68.3340908  54.1019195  66.9253906  66.9679362  54.8116134  66.0325860
  67.3588687  55.3915086  67.6690561  66.0729124  51.8363641  69.5418878
  65.4445526  51.1090608  68.7618187  66.0864279  51.6270923  70.8716655
  66.7765949  52.4303078  71.9000212  66.5953444  53.4892021  71.7156535
  67.8476408  52.2326193  71.8566749  66.1591726  51.9550714  73.1803376
  65.2906724  52.5675329  73.4226129  66.8867176  52.0210521  73.9893038
  65.7731080  50.5409342  72.9274756  64.9198136  50.2998084  73.5613888
  66.5712475  49.8198053  73.1036749  65.3533438  50.5067083  71.4534313
  65.6572555  49.5941119  70.9406900  63.8420479  50.6873169  71.3174900
  63.3491700  51.8208292  71.3036634  63.1275265  49.5724952  71.2025425
  63.5983277  48.6790295  71.1897155  61.6804262  49.5934623  71.0310696
  61.3729987  50.6157396  70.8107595  61.2694003  48.6998429  69.8672246
  61.5624407  47.6711785  70.0771696  60.1886404  48.7493281  69.7345244
  61.7626926  49.0389000  68.9562897  60.9636512  49.1641131  72.3023091
  61.0939404  48.0226351  72.7486250  60.1965258  50.0843369  72.8772323
  60.2207120  51.0438426  72.5628070  59.3430923  49.7501388  74.0059806
  59.8695173  49.0649680  74.6704480  58.9619347  51.0062688  74.7992404
  58.2547560  51.5619782  74.1834607  58.4627499  50.6637960  75.7056768
  60.1454022  51.9236318  75.1788227  60.7726844  52.0539199  74.2969821
  59.7287019  52.8868644  75.4731796  61.0123678  51.3972118  76.3211277
  62.2418226  51.4676215  76.2687039  60.3769193  50.8810313  77.3572155
  60.9033638  50.5187687  78.1393429  59.3673841  50.8508764  77.3627605
  58.1068973  49.0344150  73.4601834  57.6270752  49.3698018  72.3658291
  57.5983855  48.0278770  74.1949963  58.0912967  47.5187213  75.4892857
  58.2636375  48.3550745  76.1667162  59.0252630  46.9783283  75.3350732
  56.9821433  46.6225835  75.9515798  56.2960180  47.1897970  76.5805472
  57.3997739  45.7948926  76.5248282  56.3120563  46.1317820  74.7266605
  55.2630048  45.9388724  74.9511061  56.7650657  45.2325734  74.3091609
  56.4269692  47.2887254  73.7258793  56.6238736  46.9546916  72.7071800
  55.1559859  48.1395918  73.7459965  55.0604015  49.0983206  74.5099067
  54.1983099  47.7905746  72.8934329  54.3633073  47.0618657  72.2138312
  52.8996910  48.4594111  72.8901753  52.9682717  49.5031739  73.1966962
  52.2040145  48.3718350  71.5046589  52.0646524  47.3216750  71.2480609
  50.8405468  49.0775007  71.5298135  50.9791516  50.1278850  71.7859036
  50.3736261  49.0020400  70.5477791  50.1995806  48.6042327  72.2736407
  53.1101270  48.9141702  70.3831842  53.9839505  48.2634226  70.3506128
  52.5472437  48.8124847  69.4553254  53.5617996  50.3654619  70.5484154
  54.1251858  50.4678392  71.4758930  54.1942006  50.6477835  69.7067132
  52.6884782  51.0169013  70.5806079  52.0232810  47.8064738  73.9518008
  51.8200578  46.5923861  73.9221321  51.5233598  48.6107043  74.8874087
  51.7237900  49.5998990  74.8497136  50.7235568  48.1061367  76.0066694
  50.5897404  47.0284657  75.9127679  51.3884773  48.4065699  77.3801896
  50.7601067  47.9932193  78.1691079  52.7831948  47.7899904  77.4651128
  53.4123194  48.2032302  76.6767381  53.2227657  48.0168183  78.4364138
  52.7112995  46.7092544  77.3428787  51.4846088  49.8217081  77.5784734
  51.8957428  49.9986207  78.4277502  49.3222711  48.7047470  75.9926967
  49.0967294  49.7555560  75.3898365  48.3880678  48.0178867  76.6468382
  48.6255989  47.1114445  77.0237214  47.0248228  48.5176516  76.8460239
  46.9721651  49.5721120  76.5750264  45.9991409  47.7384371  75.9965473
  44.9973760  48.0788595  76.2586157  46.2387129  47.9631394  74.5065959
  47.2401797  47.6225053  74.2436657  45.5020620  47.4026316  73.9310304
  46.1452958  49.0250413  74.2791358  46.0987705  46.3374624  76.2906679
  45.4603932  45.8532941  75.7618430  46.6352322  48.3744750  78.3145744
  47.2309854  47.5723717  79.0389372  45.6426556  49.1485489  78.7497803
  45.2695106  49.8758016  78.1565133  45.1078909  49.0166374  80.1054477
  45.8570491  48.5705738  80.7595796  44.6741729  50.3752509  80.7048866
  44.3329319  50.2133380  81.7273537  45.8338176  51.3687064  80.7069780
  46.1753175  51.5314903  79.6847359  45.5013898  52.3151066  81.1334959
  46.6536988  50.9696752  81.3041961  43.5804587  50.9113167  79.9504580
  43.3151265  51.7539516  80.3261781  43.9282064  48.0476312  80.1128237
  43.3697273  47.7237539  79.0551557  43.5610416  47.5824073  81.3077236
  44.1278240  47.7997989  82.1149397  42.3996973  46.7139803  81.4900637
  42.5432744  45.7845609  80.9390061  42.2079447  46.3790286  82.9745041
  43.1190867  45.9397019  83.3805970  41.9616224  47.2830843  83.5313782
  41.1005744  45.3951983  83.2392512  41.3248475  44.0275311  83.1204243
  42.3144175  43.6750386  82.8295634  40.3024482  43.1105152  83.3682963
  40.4911082  42.0408841  83.2766592  39.0395733  43.5652359  83.7332856
  38.2356887  42.8538938  83.9226582  38.8037946  44.9289176  83.8563241
  37.8163326  45.2889403  84.1451192  39.8313284  45.8363422  83.6100782
  39.6481207  46.9064952  83.7065528  41.1266857  47.3457728  80.9254925
  40.3603965  46.6776471  80.2270780  40.9196009  48.6276922  81.2271523
  41.5661178  49.0970377  81.8450763  39.7346059  49.3591297  80.7774592
  38.8411769  48.7779298  81.0056927  39.6248902  50.7220362  81.4756607
  40.6305009  51.1238310  81.3515349  38.9197171  51.3264243  80.9050944
  39.2405514  50.7547505  82.9633107  39.9156493  50.1054132  83.5207197
  39.3424905  52.1753655  83.5027136  38.6672876  52.8252435  82.9460642
  39.0676223  52.1846814  84.5574464  40.3656236  52.5343500  83.3912279
  37.8457149  50.1874508  83.2108709  37.8094839  49.1511674  82.8748600
  37.6187362  50.2316264  84.2760613  37.1111973  50.7737686  82.6587710
  39.7038243  49.5234857  79.2575698  38.6506691  49.3716791  78.6416023
  40.8583135  49.8190109  78.6615661  41.6754722  50.0265467  79.2176955
  40.9614778  49.9365198  77.2037479  40.2468298  50.6770337  76.8445593
  42.3710920  50.3752953  76.7904042  43.0775822  49.7842861  77.3732240
  42.4861426  50.1388221  75.7326028  42.6464588  51.8634539  77.0127240
  42.0588387  52.4112177  76.2760027  42.3010216  52.1184093  78.0146072
  44.1151760  52.2397760  76.8715132  44.9770928  51.3327765  76.8095430
  44.4074050  53.4554619  76.8300523  40.5724447  48.6269201  76.5148205
  39.8931390  48.6293846  75.4838541  40.9934166  47.5102182  77.1038905
  41.5845720  47.5753983  77.9202153  40.7057121  46.1841968  76.5608460
  40.8874207  46.1771450  75.4861221  41.6060352  45.1306892  77.2168927
  41.6117658  45.3332806  78.2878843  41.1498380  44.1577666  77.0341203
  43.0351767  45.1266961  76.6940930  42.9966017  45.0294885  75.6091214
  43.4925624  46.0805572  76.9568655  43.8665040  43.9856602  77.2780332
  43.2095982  43.1394676  77.4793586  44.6223900  43.6928396  76.5493412
  44.5372675  44.3654236  78.5229548  45.2269128  45.1005161  78.4587078
  44.2987747  43.8205551  79.7138237  43.4044615  42.8486933  79.8444273
  42.8998067  42.5187403  79.0341467  43.2326426  42.4435167  80.7534982
  44.9643733  44.2468861  80.7792801  45.6490676  44.9829771  80.6819978
  44.7833490  43.8334055  81.6828080  39.2385445  45.7527380  76.6818936
  38.7089043  45.1074702  75.7745035  38.5880701  46.1109461  77.7885006
  39.0366428  46.7060868  78.4701820  37.2850953  45.5198375  78.1289080
  36.9791911  44.8202600  77.3510178  37.3790987  44.7637092  79.4578693
  37.6690599  45.4555306  80.2486947  36.4260408  44.3002089  79.7127190
  38.3995979  43.6687695  79.4513527  38.2653526  42.5320736  78.6813608
  39.3163146  41.7527476  78.8665472  39.4003483  40.8006019  78.3426619
  40.1255182  42.3419753  79.7291064  41.0056589  41.9765800  80.0636784
  39.5773728  43.5441459  80.1053369  40.1035776  44.1856397  80.8122283
  36.0555539  46.4386626  78.1256759  34.9271521  45.9434942  78.1911110
  36.2585616  47.7535176  78.0468645  37.1905255  48.1387138  78.1031364
  35.1256630  48.6819346  77.9764747  34.4441406  48.4788786  78.8025465
  35.5828574  50.1426767  78.0662461  36.5128811  50.1365088  77.4978123
  34.8488985  50.7650772  77.5543652  35.8448839  50.7099746  79.4706478
  36.4862107  50.0209769  80.0202685  36.5254776  52.0644596  79.3709063
  35.8845045  52.7541752  78.8217754  36.7056801  52.4557253  80.3721749
  37.4752771  51.9567191  78.8470997  34.5648493  50.8098643  80.3065751
  34.1261788  49.8185198  80.4201691  34.8030377  51.2160330  81.2896288
  33.8533482  51.4662080  79.8054980  34.3060415  48.4346426  76.7081096
  34.8733365  48.1618650  75.6479121  32.9668084  48.5022903  76.8163714
  32.1686185  48.8383035  78.0124910  32.5687570  49.7410653  78.4740216
  32.2174474  48.0145311  78.7246101  30.7853403  49.0369948  77.4603124
  30.6392062  50.0846023  77.1971348  30.0446879  48.7430150  78.2040269
  30.7108228  48.1633189  76.2654122  29.9861850  48.5736549  75.5621174
  30.4474231  47.1312829  76.4969764  32.1175344  48.2204228  75.6572367
  32.4502565  47.2761529  75.2262511  32.1722453  49.3134004  74.5910178
  32.5461145  50.4489988  74.8808179  31.8079086  48.9497672  73.3629321
  31.7039932  47.9689528  73.1454373  31.5378162  49.9229762  72.3120546
  32.3452012  50.6533811  72.2597345  31.4347367  49.2124352  70.9648482
  31.2927268  49.9594236  70.1838611  32.3618048  48.6688567  70.7827299
  30.3443058  48.3042120  70.9542180  30.2982820  47.8694797  70.0995312
  30.2123194  50.6093475  72.6280698  29.5228948  50.2126759  73.5739954
  29.8534890  51.6236948  71.8405081  30.5277297  52.0236754  71.2037081
  28.5568751  52.2932455  71.9913300  28.3793004  52.5659216  73.0316252
  28.4378767  53.5800227  71.1100214  28.6902229  53.3221584  70.0814658
  27.0221098  54.1540188  71.1583258  26.7692031  54.4125692  72.1865723
  26.9703627  55.0476105  70.5362995  26.3156924  53.4117937  70.7866027
  29.4482161  54.6356542  71.5573050  30.4579159  54.2360919  71.4626570
  29.3488690  55.5225919  70.9315483  29.2595521  54.9023162  72.5972079
  27.3829577  51.3088079  71.7757136  26.5239194  51.1914263  72.6500760
  27.3529696  50.5830535  70.6325468  28.2361079  50.6287162  69.4503295
  29.2753194  50.6880590  69.7737765  27.9932105  51.5037772  68.8475292
  27.9267127  49.3480667  68.7458882  28.5916356  48.5641662  69.1084854
  28.0713276  49.4791883  67.6735100  26.5076351  49.0413787  69.0556012
  26.3546938  47.9621811  69.0492236  25.8158122  49.5100066  68.3556951
  26.2763936  49.5919941  70.4671678  25.3264925  50.1187830  70.5581598
  26.3329393  48.4612690  71.4981573  25.2938856  47.9067477  71.8612132
  27.5376380  48.1364962  71.9633945  28.3564509  48.5661997  71.5571931
  27.7254960  47.1753145  73.0472244  27.3018434  46.2189434  72.7406761
  28.7942982  47.0580232  73.2261205  27.0550257  47.6230213  74.3346743
  26.4121528  46.8166199  75.0088785  27.2053948  48.9060333  74.6684053
  27.8382577  49.4826050  74.1325425  26.5447348  49.4981683  75.8346396
  26.7435220  48.8880119  76.7157139  27.0620985  50.9213737  76.0960053
  28.1355215  50.7589532  76.1933807  26.8642126  51.5122231  75.2016686
  26.5440147  51.6739857  77.3318109  25.4554995  51.6175539  77.3389378
  27.0919990  51.0753290  78.6222873  28.1805156  51.1318279  78.6160965
  26.7046099  51.6326707  79.4751652  26.7832397  50.0328369  78.6996071
  26.8782321  53.1579983  77.2491579  26.4148110  53.5863820  76.3604354
  26.5000618  53.6660873  78.1362509  27.9592937  53.2848359  77.1915650
  25.0216479  49.5018135  75.6711673  24.2912991  49.2227142  76.6255760
  24.5572952  49.8088767  74.4593035  25.2091160  50.0910148  73.7412317
  23.1248654  49.8373247  74.1478848  22.6009053  50.4353220  74.8935150
  22.8760181  50.4519292  72.7627418  23.5533964  49.8750524  72.1330824
  21.8454345  50.2275244  72.4877148  23.1439307  51.9509031  72.5632092
  24.1364774  52.1882598  72.9461109  23.0705475  52.3117027  71.0881416
  22.0780757  52.0750437  70.7046168  23.2627659  53.3774429  70.9642435
  23.8181137  51.7416645  70.5365062  22.1849785  52.8225366  73.3711248
  22.2954002  52.5981262  74.4320425  22.4142811  53.8738001  73.1968645
  21.1598121  52.6187113  73.0619514  22.4887238  48.4472883  74.2394959
  21.3494753  48.3108702  74.6883988  23.2315277  47.4247209  73.8123268
  24.1039414  47.6062153  73.3368760  22.8006296  46.0347394  73.9646431
  21.8088153  45.9125290  73.5293637  23.7653726  45.0753071  73.2613691
  24.7644495  45.4957022  73.3763155  23.7075018  44.1263577  73.7945163
  23.4791789  44.8454656  71.7854680  22.4151763  44.9926084  71.6001350
  24.0525723  45.5595300  71.1943386  23.8728657  43.4244015  71.3886900
  24.9454890  43.3074230  71.5432675  23.3355667  42.7255660  72.0298125
  23.5636201  43.1127896  69.9927777  22.6040864  43.2300838  69.7001405
  24.4564280  42.6999826  69.0940706  25.7308050  42.5347768  69.4355165
  26.0250790  42.7234234  70.3831005  26.3987028  42.2213998  68.7457290
  24.0732903  42.4403706  67.8501384  23.1047117  42.5568036  67.5886065
  24.7520721  42.1275721  67.1707924  22.6874638  45.6622806  75.4409398
  21.7531675  44.9647915  75.8402048  23.6412132  46.1389581  76.2397499
  24.4058732  46.6551133  75.8286801  23.6683829  45.8896124  77.6793167
  23.5510498  44.8236251  77.8742604  25.0040766  46.3516033  78.2715428
  25.6968573  46.1895334  77.4457780  24.9159461  47.4203524  78.4667564
  25.5298417  45.6461169  79.5241677  24.7198882  45.5821404  80.2507922
  26.0376887  44.2403023  79.2024821  26.8480246  44.3035011  78.4762174
  26.4036237  43.7681458  80.1142171  25.2239790  43.6456218  78.7873533
  26.6310348  46.4765616  80.1741887  26.2335268  47.4518516  80.4550735
  26.9963686  45.9637282  81.0639271  27.4515517  46.6086201  79.4689146
  22.4976923  46.5744487  78.3916255  21.9422893  46.0277815  79.3487559
  22.1321647  47.7678503  77.9199953  22.7220101  48.2332552  77.2450286
  20.9540431  48.4803707  78.4211801  20.9270932  48.4370581  79.5099854
  20.9326057  49.9663569  77.9609601  21.0637471  50.0000104  76.8794012
  19.6064411  50.6376061  78.3356343  19.4748073  50.6047514  79.4171581
  19.6171857  51.6754954  78.0028117  18.7829682  50.1105674  77.8537402
  22.1058668  50.7346124  78.5842282  21.8509320  50.9128599  79.6288989
  22.9781172  50.0832275  78.5296725  22.4205406  52.0630989  77.9042422
  21.5488510  52.7152335  77.9588085  23.2619377  52.5392203  78.4076889
  22.6760341  51.8856010  76.8595808  19.6712073  47.7453120  78.0069989
  18.8173770  47.4644272  78.8481859  19.5567845  47.4100359  76.7234525
  20.2784268  47.6795112  76.0702184  18.4070469  46.6542654  76.2163902
  17.5203366  47.2773956  76.3328066  18.5767070  46.4588618  75.1575549
  18.1805945  45.3323829  76.9335024  17.0389432  44.8911484  77.0926103
  19.2738527  44.7107434  77.3715880  20.1749096  45.1198747  77.1695797
  19.2362302  43.4306723  78.0785466  18.5360060  42.7544389  77.5881449
  20.6275603  42.7842206  78.0729978  20.9754473  42.9958649  77.0619188
  21.2284244  43.3456959  78.7884053  20.7649859  41.2857392  78.3564930
  20.1667412  41.0405019  79.2340253  20.2891242  40.4556039  77.1691514
  20.8872458  40.6999699  76.2912933  20.3983940  39.3957457  77.3990675
  19.2411042  40.6768752  76.9671776  22.2100390  40.9497420  78.6988981
  22.5144244  41.5105699  79.5825955  22.2977193  39.8818426  78.8989086
  22.8539299  41.2159383  77.8606600  18.7320212  43.5845387  79.5148322
  17.9039822  42.7941152  79.9756325  19.2417884  44.5996920  80.2117376
  19.9636282  45.1679972  79.7921236  18.8530297  44.8811495  81.5957474
  18.8499008  43.9558900  82.1719281  19.8282621  45.8793399  82.2676841
  19.6720285  46.8664486  81.8325889  19.5953320  45.9453019  83.7746985
  19.7518469  44.9585909  84.2105931  20.2937982  46.6536826  84.2201657
  18.5737706  46.2708032  83.9710700  21.1792285  45.4682845  82.0210764
  21.7831757  46.0873259  82.4377728  17.4156237  45.4076242  81.6669967
  16.6689975  45.0696148  82.5909971  17.0365090  46.2247029  80.6857789
  17.7230064  46.5520687  80.0212096  15.6697223  46.7322343  80.5772892
  15.2035610  46.7517043  81.5623850  15.6366680  48.1661815  79.9845626
  15.7535539  48.1008013  78.9028217  14.3181249  48.8628827  80.3124917
  14.2007468  48.9290527  81.3941310  14.3206209  49.8658842  79.8857824
  13.4904183  48.2917606  79.8919898  16.7215256  48.9367690  80.5188285
  16.6971096  49.8225810  80.1495845  14.8251518  45.7659276  79.7349680
  14.3431114  46.1151868  78.6519554  14.6661688  44.5446725  80.2434465
  15.1363628  44.3121095  81.1065406  13.8934867  43.4994414  79.5707926
  13.0637876  43.9892876  79.0611367  14.7570905  42.7644139  78.5469014
  15.1474607  43.4777939  77.8210912  15.9176559  42.0784223  79.2597323
  15.5280487  41.3645074  79.9854267  16.5341021  41.5538754  78.5297013
  16.5215160  42.8258700  79.7742944  13.9126681  41.7181387  77.8272593
  13.5223034  41.0040900  78.5524149  13.0829680  42.2079853  77.3176049
  14.7746420  40.9844965  76.8053022  15.6043480  40.4939799  77.3143024
  14.1715413  40.2365158  76.2906241  15.1650147  41.6978762  76.0794934
  13.3040366  42.5151806  80.5787917  13.9996152  42.0342715  81.4766457
  12.1103526  42.2249492  80.5424056  61.5007845  55.7208146  45.1795879
  62.0870483  56.6193249  46.2771174  60.3026247  56.3117836  44.5308463
  62.6376429  55.3627191  44.0980503  62.2994188  55.0080563  42.7795452
  63.3489848  55.5975325  41.8490674  63.1548628  55.1041653  40.5427127
  63.2560407  57.1142433  41.7694007  64.5387548  57.6535889  42.0049275
  62.7910069  57.3975144  40.3529435  63.3599867  58.5810099  39.8406091
  63.2615728  56.1573676  39.6096405  62.4896053  55.8287267  38.3985156
  61.1348551  55.9119871  38.1897200  60.8702129  55.4995083  36.9294301
  62.0306981  55.1475793  36.3323713  62.3406235  54.6623913  35.0625726
  61.3861068  54.4194183  34.1675045  63.6586055  54.3909152  34.7477692
  64.6639588  54.5985610  35.6718308  64.3509791  55.0801423  36.9263108
  63.0573581  55.3477542  37.2496353  59.0476161  57.3909411  54.6309719
  59.5604586  57.2430646  55.9060762  60.1145329  56.1943760  56.2226799
  59.4489569  58.2726831  56.8222799  58.8278544  59.4556186  56.4643242
  58.7356872  60.3682996  57.2816098  58.3070454  59.6081935  55.1799754
  57.6780321  60.7860189  54.8193167  57.1286442  60.9335396  53.5615705
  56.8050536  62.2414794  53.2020130  56.9567910  62.6780503  51.8941351
  56.6129558  64.0998998  51.5471765  57.4237630  61.7872226  50.9330658
  57.6114661  62.2309909  49.5196433  57.7338072  60.4735835  51.2734918
  57.5734757  60.0342386  52.5866087  57.9174283  58.7430024  52.9748608
  58.4195039  58.5677149  54.2563460  57.9433684  57.6134295  51.9741744
  59.3648805  57.2183837  51.5574345  60.0370510  58.3468926  51.0394301
  59.3199319  56.0804041  50.5329756  58.6360557  54.9799304  51.0958688
  60.6861810  55.5828016  50.0560269  61.5741935  56.6430636  49.7767433
  60.4908702  54.7457261  48.7991719  61.7238800  54.2418329  48.3393030
  61.7421583  53.3278998  47.0155257  63.1509653  53.0779431  46.6398805
  60.9631967  52.0247997  47.2468132  61.0500858  54.0267621  45.9217812
  61.3347977  55.4013660  42.5342704  62.2687899  53.9429612  42.6778392
  64.3039556  55.3185513  42.2438410  62.5889612  57.5442105  42.4870657
  65.1678375  57.2813590  41.3677400  61.7378996  57.5660669  40.2691630
  64.3275778  58.5175519  39.8783120  64.2556683  56.3260252  39.2508275
  60.4368267  56.2345599  38.8783920  60.4454576  54.6113356  34.3867029
  61.6208613  54.0476902  33.2864707  65.6453493  54.3944047  35.4246082
  59.8124196  58.1640929  57.7307451  56.4477489  62.8933869  53.9179410
  56.2755147  64.6101198  52.4254777  55.8376950  64.1098880  50.8094421
  57.4802451  64.5921530  51.1593273  57.3296978  63.2592666  49.4287712
  57.0003386  61.6347943  48.8748667  58.6389685  62.1170245  49.2436895
  58.0835033  59.8228788  50.5524002  57.4035618  57.9173785  51.1014832
  57.4962713  56.7607523  52.4411122  59.9034377  56.8666715  52.4130930
  59.5606372  58.6782571  50.2623410  58.8238669  56.4891019  49.6775578
  59.1289436  54.6513590  51.8638585  61.1190322  55.0003375  50.8419082
  61.2096335  57.1918410  49.0648182  60.0537745  55.3551979  48.0353261
  59.8475890  53.9229340  49.0305430  45.9840935  60.0418402  63.8573931
  47.4515351  60.3334714  64.0250429  48.3408171  59.9899238  62.9894428
  49.7172746  60.2489566  63.0854458  50.6189376  59.8478719  61.9862439
  51.4673543  60.8718779  61.5806248  52.3579509  60.6329336  60.5668747
  53.1807860  61.6919676  60.1817404  54.1115371  61.5163323  59.1557191
  54.2212108  60.2801213  58.5155629  53.4001616  59.2231018  58.9020212
  53.5604182  58.0405754  58.2343093  52.4677629  59.4016885  59.9272843
  51.5864213  58.3177141  60.3635749  51.6272586  57.1993833  59.8544409
  50.6278378  58.6109945  61.4543340  49.8086968  57.5763540  61.8683702
  50.2017164  60.8496007  64.2523871  49.3308349  61.1988162  65.2885328
  47.9513306  60.9520619  65.1915519  47.0402354  61.3462201  66.3344122
  47.7225435  61.8099338  67.4193962  46.2706266  60.3193087  66.7975280
  46.1635767  62.3330578  65.9926331  45.6695085  59.3013848  64.6078091
  45.4084127  60.9690791  63.9934396  45.8023406  59.6426851  62.8487415
  47.9476872  59.5071041  62.0827813  53.0959036  62.6653943  60.6867714
  54.7584468  62.3523258  58.8517770  54.9547604  60.1411463  57.7073204
  53.3565362  57.9862169  57.3207715  50.1571032  56.8854725  62.3945657
  51.2790263  61.0491236  64.3552652  49.7321746  61.6746032  66.1948215
  65.6537724  69.3190583  37.8243963 101.7612128  42.1205507  81.0485686
  85.7615553  39.2886865  63.8728557  13.8625965  26.6127929  44.5983171
  90.6941922  91.9859112  79.1906359  56.1764342  40.9266941 112.0716068
  55.5026041  41.2298638 112.6801026  56.5630164  41.7296022 111.7221525
  60.0821228  38.2117197 110.3443515  60.0034860  37.8777060 111.2379273
  60.9030895  38.7038965 110.3434987  57.6525180  35.5285192 109.9653493
  58.3561030  35.7335195 110.5811149  56.9287829  36.0961954 110.2302577
  60.8572674  48.2900277 118.0365546  60.2937540  48.1990214 117.2681833
  60.7425069  47.4700182 118.5168038  66.4372233  51.9571245 113.3480011
  65.7860213  52.5425325 112.9614024  67.2316596  52.4877440 113.4075048
  60.3627860  49.0460382 113.7467145  61.1358736  48.4989369 113.6080021
  60.7153259  49.9104631 113.9581606  62.6994138  45.2053048 111.3785595
  62.9519659  44.6834569 110.6169058  61.7618697  45.0419193 111.4812278
  67.7437421  44.2088826 119.1860338  68.5300510  43.7908250 118.8350755
  68.0076125  45.1134919 119.3541986  67.9147498  49.6461677 113.8848995
  67.2793331  49.7196303 114.5969900  67.5844905  50.2355276 113.2068074
  62.4190427  47.1081154 113.5809970  62.3026685  46.4326057 114.2491054
  62.5292687  46.6213528 112.7642123  64.7621968  46.5691301 117.2856659
  64.3980175  46.0421922 117.9969580  65.6189084  46.1789770 117.1123144
  64.4027455  41.5981201 112.2818008  64.5701857  42.4661437 112.6488479
  64.2124624  41.7608482 111.3579297  64.3816676  44.0538858 113.2664674
  64.2616301  44.4995909 114.1050155  63.6869264  44.4024176 112.7078213
  70.0801742  44.5260331 114.0945008  70.9919598  44.7587718 113.9192706
  69.5711389  45.1097376 113.5320087  64.2399286  49.2460558 118.7508675
  64.7037631  49.5248261 117.9613297  63.9756084  48.3444003 118.5681766
  63.1768172  45.3683710 115.5598240  63.8792215  45.8204754 116.0272166
  62.8448800  44.7267529 116.1878133  64.4161937  52.1824653 115.6360345
  64.2807611  53.0276189 116.0645193  64.9571749  52.3843931 114.8726279
  57.8691334  49.7000091 116.2088270  58.3815855  50.4943341 116.3593835
  58.5214047  49.0026381 116.1421872  59.6786219  52.8165847 118.2911024
  59.8552847  53.7383812 118.1032007  60.4743052  52.5024267 118.7205403
  67.7304683  45.6963826 112.6731674  67.2151306  46.4668431 112.9120061
  67.4581991  45.0228962 113.2964735  72.7038957  48.4496181 114.6084847
  71.9268400  48.1107340 114.1640009  73.3830438  48.4548804 113.9339812
  67.5190986  43.5690918 114.4991455  67.2141122  43.8837067 115.3501598
  68.4721428  43.6472338 114.5418788  65.9637418  49.7281141 116.1484409
  65.4358779  48.9933901 115.8357647  65.4624921  50.5055818 115.9024377
  61.0225733  42.4205269 112.5286906  60.1863045  42.7579955 112.8496181
  60.8830502  42.2854248 111.5914043  64.1090018  47.5461352 109.1519382
  63.2017080  47.3150605 109.3510531  64.6061050  46.7498971 109.3393364
  67.0158097  56.2558859 112.0716068  66.3419796  56.5590556 112.6801026
  67.4023919  57.0587939 111.7221525  67.0151601  45.1515406 116.6916418
  67.7623420  45.6636803 116.3823540  67.2843191  44.8299459 117.5520811
  65.2878252  47.6473947 113.6743372  64.3789471  47.3632979 113.7715842
  65.3173335  48.0673025 112.8146679  69.4630439  42.1872522 118.6735207
  68.7253195  41.6749908 119.0045450  69.7157212  41.7472904 117.8618484
  64.9854339  49.1882690 111.0131451  64.5473769  48.4718549 110.5537088
  65.7264780  49.4158805 110.4516542  62.0429884  50.7500413 119.2639774
  62.8370483  50.2550733 119.0622349  61.3321577  50.2218276 118.9007479
  58.3512648  44.8943495 115.3399527  57.4210236  44.8327950 115.5569489
  58.4470120  44.3719447 114.5436168  69.1065567  48.0467072 110.6063508
  68.4894738  47.3213900 110.5096561  68.6382055  48.8076432 110.2630583
  60.8964113  42.2652496 109.7284813  60.0193579  42.1441297 109.3647059
  61.3721866  41.4738574 109.4763701  68.4754470  49.1845103 117.1919962
  67.5410748  49.3046566 117.0224666  68.6531138  48.2817570 116.9279972
  71.8627021  45.0262422 117.7269996  72.3287473  45.8590414 117.6530299
  72.3134522  44.5607404 118.4315255  69.9303252  51.3706244 114.7256148
  70.2063096  51.2562838 115.6350022  69.0607751  50.9723729 114.6868321
  62.4540619  40.3256040 113.8605814  63.1748981  40.7037293 113.3569531
  61.8305923  41.0444917 113.9640792  66.5971741  41.0301189 114.7964146
  66.8135356  41.9125827 114.4952974  66.1165809  40.6387403 114.0669788
  57.0439261  53.5427572 119.2363103  57.8697280  53.2431344 118.8561747
  56.6933313  52.7735194 119.6852892  61.5734301  51.4457964 114.7819238
  61.7222421  52.1293428 114.1285910  62.3800744  51.4263054 115.2968693
  59.3286934  47.4723141 115.7880307  59.0832976  46.5685471 115.9860517
  59.4982848  47.4740292 114.8459785  58.5982581  43.2051499 113.2866468
  57.9051826  43.2795854 112.6306504  58.3534333  42.4411842 113.8087985
  65.0729706  53.9406094 112.2530985  64.5003673  54.5596281 111.8001457
  65.6462500  54.4905456 112.7870907  68.2926966  54.2243244 113.3839567
  69.2257639  54.1588806 113.5872443  68.2050179  55.0599511 112.9254100
  70.9214983  53.5409114 110.3443515  70.8428614  53.2068978 111.2379273
  71.7424649  54.0330882 110.3434987  65.4576505  45.2766907 109.5947038
  66.4035609  45.1473115 109.6635456  65.0790750  44.5381569 110.0716466
  63.6419422  43.2016883 109.5301923  62.7350877  42.9049996 109.6064636
  63.9195403  42.9046701 108.6636209  62.4118206  40.0603818 109.6713902
  63.2737370  40.3858717 109.9309719  62.5968551  39.2735314 109.1586968
  70.5650843  38.9332345 116.8149125  69.9849512  39.5917149 116.4327177
  70.2986776  38.1109689 116.4036542  69.3475721  41.0932435 115.8705473
  68.4601576  41.3782086 115.6525668  69.7629710  40.9326199 115.0232750
  68.4918934  50.8577110 109.9653493  69.1954785  51.0627112 110.5811149
  67.7681583  51.4253872 110.2302577  69.3216745  46.6086971 116.0855763
  69.2651946  47.0655523 115.2463396  69.8745087  45.8477656 115.9078606
  73.1321551  42.3976703 116.9105883  72.8758485  41.9973339 117.7414091
  72.5074419  43.1120497 116.7856022  70.4005632  51.2959639 112.0151953
  71.2351236  50.8640838 111.8329428  70.2389975  51.1241653 112.9428848
  70.0551524  47.7991752 113.3808293  70.0000328  47.6336024 112.4396737
  69.4297579  48.5067785 113.5370482  63.3647649  37.2999861 112.9593611
  63.3526319  38.2441701 113.1161882  64.2571071  37.1170007 112.6653072
  71.7357867  57.5944414 109.7284813  70.8587334  57.4733215 109.3647059
  72.2115620  56.8030492 109.4763701  74.4813176  58.5308801 109.5301923
  73.5744632  58.2341914 109.6064636  74.7589157  58.2338619 108.6636209
  73.2511961  55.3895736 109.6713902  74.1131125  55.7150634 109.9309719
  73.4362305  54.6027232 109.1586968  56.1764344  17.9329064  98.7961375
  55.5026043  18.2360761  99.4046333  56.5630166  18.7358144  98.4466832
  60.0821229  15.2179319  97.0688822  60.0034861  14.8839183  97.9624579
  60.9030896  15.7101087  97.0680294  57.6525181  12.5347315  96.6898800
  58.3561031  12.7397317  97.3056455  56.9287830  13.1024077  96.9547883
  60.8572676  25.2962400 104.7610852  60.2937541  25.2052337 103.9927140
  60.7425071  24.4762304 105.2413345  66.4372234  28.9633367 100.0725317
  65.7860214  29.5487448  99.6859331  67.2316597  29.4939562 100.1320355
  60.3627862  26.0522505 100.4712452  61.1358738  25.5051492 100.3325327
  60.7153260  26.9166754 100.6826913  62.6994139  22.2115171  98.1030901
  62.9519660  21.6896692  97.3414364  61.7618698  22.0481316  98.2057585
  67.7437422  21.2150949 105.9105645  68.5300511  20.7970372 105.5596062
  68.0076126  22.1197041 106.0787293  67.9147500  26.6523799 100.6094302
  67.2793332  26.7258426 101.3215206  67.5844906  27.2417398  99.9313381
  73.1445849  21.1526182 106.8138623  73.8771021  20.5825399 107.0476453
  72.3885205  20.7647783 107.2545129  62.4190428  24.1143277 100.3055276
  62.3026686  23.4388180 100.9736361  62.5292688  23.6275651  99.4887429
  64.7621969  23.5753424 104.0101966  64.3980176  23.0484045 104.7214887
  65.6189085  23.1851893 103.8368451  64.4027456  18.6043323  99.0063314
  64.5701858  19.4723560  99.3733785  64.2124625  18.7670605  98.0824603
  64.3816677  21.0600981  99.9909981  64.2616302  21.5058032 100.8295461
  63.6869265  21.4086299  99.4323519  62.1423569  33.8304623 103.6400112
  62.0647599  34.7812448 103.7188593  61.5385213  33.4850495 104.2975039
  70.0801743  21.5322454 100.8190315  70.9919599  21.7649841 100.6438013
  69.5711390  22.1159498 100.2565394  68.6871325  26.5148273 108.2103897
  68.0580188  26.6793987 107.5079964  68.2996987  26.9289882 108.9814861
  72.5660557  27.4502710 105.5648260  71.8811595  27.8301612 105.0145294
  72.6504407  28.0598037 106.2980208  64.2399287  26.2522681 105.4753982
  64.7037633  26.5310384 104.6858604  63.9756085  25.3506125 105.2927072
  63.1768173  22.3745833 102.2843547  63.8792217  22.8266877 102.7517473
  62.8448802  21.7329652 102.9123440  70.9357317  27.9734625 110.3365961
  71.7574761  27.5714812 110.0548643  70.9319720  27.8702859 111.2882077
  64.4161938  29.1886776 102.3605652  64.2807613  30.0338311 102.7890500
  64.9571750  29.3906053 101.5971586  57.8691335  26.7062214 102.9333577
  58.3815856  27.5005464 103.0839142  58.5214048  26.0088504 102.8667179
  59.6786220  29.8227970 105.0156330  59.8552848  30.7445935 104.8277314
  60.4743053  29.5086389 105.4450710  67.7304684  22.7025949  99.3976981
  67.2151308  23.4730553  99.6365368  67.4581993  22.0291085 100.0210042
  72.7038958  25.4558303 101.3330154  71.9268401  25.1169463 100.8885316
  73.3830439  25.4610926 100.6585119  67.5190987  20.5753041 101.2236762
  67.2141123  20.8899190 102.0746905  68.4721429  20.6534461 101.2664095
  65.9637419  26.7343264 102.8729716  65.4358781  25.9996024 102.5602953
  65.4624922  27.5117940 102.6269684  70.9430265  24.9292284 107.9896762
  70.2853940  25.6191546 108.0776891  71.7470664  25.3188716 108.3330748
  69.7535724  23.2836657 106.0400704  70.2667606  23.9166649 106.5422413
  70.4036948  22.6837853 105.6744064  61.0225734  19.4267391  99.2532212
  60.1863046  19.7642078  99.5741487  60.8830504  19.2916371  98.3159349
  64.1090019  24.5523474  95.8764689  63.2017081  24.3212728  96.0755838
  64.6061051  23.7561094  96.0638670  67.0158098  33.2620981  98.7961375
  66.3419797  33.5652678  99.4046333  67.4023920  34.0650062  98.4466832
  67.0151603  22.1577528 103.4161725  67.7623422  22.6698926 103.1068847
  67.2843192  21.8361581 104.2766118  65.2878253  24.6536069 100.3988679
  64.3789472  24.3695102 100.4961149  65.3173337  25.0735148  99.5391986
  70.5197520  28.2642659 104.1679846  70.0659847  27.4233568 104.2245037
  69.8891487  28.9004057 104.5054627  69.4630440  19.1934645 105.3980514
  68.7253197  18.6812031 105.7290756  69.7157213  18.7535026 104.5863791
  68.9630459  30.1019155 105.1029665  69.2553434  30.6624212 104.3842030
  69.4729080  30.3947716 105.8582824  64.9854341  26.1944813  97.7376757
  64.5473771  25.4780672  97.2782395  65.7264781  26.4220928  97.1761849
  63.9264085  30.8799506 106.1923118  63.8840263  31.1060353 105.2631650
  64.8426784  30.6462881 106.3408919  73.1027455  24.4702010 103.7953076
  72.9645354  24.6603606 102.8674265  72.7463674  25.2321393 104.2521127
  73.1296835  26.5378537 108.8064347  73.5633342  26.4453826 109.6547402
  73.8428416  26.5136037 108.1684363  62.0429885  27.7562535 105.9885080
  62.8370484  27.2612856 105.7867655  61.3321578  27.2280399 105.6252786
  66.8624730  30.1380631 110.3397448  66.9161752  30.7071567 111.1075164
  65.9939511  30.3082516 109.9751485  58.3512649  21.9005617 102.0644833
  57.4210237  21.8390073 102.2814795  58.4470121  21.3781570 101.2681474
  65.2149313  33.4300654 101.0108454  65.3901069  32.9588697 101.8254077
  64.5282101  34.0566420 101.2389715  66.1706377  27.7073160 107.0571755
  65.8356209  27.6673930 107.9529405  65.6710322  27.0417876 106.5842166
  69.1065568  25.0529194  97.3308815  68.4894739  24.3276023  97.2341868
  68.6382057  25.8138555  96.9875889  59.7810399  36.5790017 107.7848314
  60.0206997  37.2108541 108.4627333  58.9379595  36.2278057 108.0713674
  60.8964114  19.2714619  96.4530119  60.0193580  19.1503420  96.0892366
  61.3721867  18.4800697  96.2009008  64.2938261  32.3869139 110.1889818
  64.2208432  33.1924111 110.7009123  63.8515654  32.5861105 109.3637840
  64.0828040  31.6240909 103.6992640  63.2995562  32.1662589 103.7930864
  64.7820785  32.1414889 104.0986881  66.7536944  32.2855973 112.3447977
  67.4664916  32.9203438 112.2723878  66.2626973  32.3819839 111.5287979
  68.4754471  26.1907226 103.9165269  67.5410750  26.3108688 103.7469973
  68.6531139  25.2879693 103.6525278  71.8627022  22.0324545 104.4515303
  72.3287475  22.8652537 104.3775605  72.3134523  21.5669527 105.1560561
  69.9303253  28.3768366 101.4501455  70.2063097  28.2624961 102.3595329
  69.0607752  27.9785851 101.4113628  66.5657317  32.6254717 105.0934268
  66.7479712  31.8076373 105.5562021  67.3890303  32.8422409 104.6559158
  66.8999483  31.5522902 102.3549317  67.4287249  31.0415357 101.7419479
  67.1627703  31.2365433 103.2194850  60.2555231  32.6038019 105.1147093
  59.5865606  33.0884147 104.6311133  60.1168101  32.8507239 106.0290471
  64.3960499  34.6381763 111.7129751  64.9478807  34.8013384 112.4778836
  64.7366693  35.2286200 111.0409776  67.5328887  32.5863738 108.6993433
  67.4080026  31.7853478 108.1904379  68.1907978  33.0809931 108.2107403
  69.5963795  30.3872758 110.3272983  68.6494131  30.2678109 110.2551310
  69.9446568  29.4995256 110.4099245  66.6010228  30.1825474 106.5277336
  66.4535191  29.2542182 106.7084906  67.4263722  30.2045565 106.0434411
  70.2044350  31.0054033 107.6142208  71.1290898  30.7996894 107.4766660
  70.0359654  30.7570434 108.5231550  62.4540620  17.3318163 100.5851121
  63.1748982  17.7099416 100.0814837  61.8305924  18.0507040 100.6886098
  66.5971743  18.0363312 101.5209453  66.8135357  18.9187950 101.2198281
  66.1165810  17.6449525 100.7915095  69.9939666  31.5239701 102.9704300
  70.1676544  30.9586123 102.2178152  70.4868558  32.3240595 102.7883790
  75.8479058  24.2876123 104.5894600  76.2910204  23.5383449 104.1913723
  74.9705568  24.2786260 104.2068332  70.9814839  30.8406465 100.0701198
  71.6765744  31.4613158 100.2888513  71.3237989  29.9901816 100.3453576
  72.8806262  28.2906170 101.5988529  73.4057586  28.6293443 100.8737849
  72.7928615  27.3553186 101.4151663  64.5646923  34.3578154 105.9583782
  64.1251913  33.8654532 106.6516639  65.3155040  33.8151121 105.7175857
  57.0439262  30.5489695 105.9608410  57.8697282  30.2493466 105.5807054
  56.6933314  29.7797317 106.4098199  62.0120795  29.9016163 108.0306084
  61.3900804  29.2386868 107.7308312  62.6825662  29.9277295 107.3479732
  61.5734302  28.4520086 101.5064544  61.7222422  29.1355551 100.8531217
  62.3800745  28.4325176 102.0214000  75.3911922  25.7581362 106.9817047
  76.2258814  26.1971166 107.1454607  75.5271051  25.2820015 106.1625293
  59.3286935  24.4785264 102.5125613  59.0832977  23.5747594 102.7105823
  59.4982849  24.4802414 101.5705091  58.5982582  20.2113621 100.0111775
  57.9051827  20.2857976  99.3551811  58.3534334  19.4473965 100.5333292
  65.0729707  30.9468217  98.9776292  64.5003675  31.5658404  98.5246764
  65.6462501  31.4967578  99.5116214  68.2926967  31.2305367 100.1084874
  69.2257640  31.1650928 100.3117749  68.2050180  32.0661634  99.6499407
  70.9214984  30.5471237  97.0688822  70.8428615  30.2131101  97.9624579
  71.7424651  31.0393005  97.0680294  65.4576506  22.2829029  96.3192344
  66.4035611  22.1535237  96.3880762  65.0790751  21.5443691  96.7961772
  63.6419423  20.2079006  96.2547229  62.7350878  19.9112118  96.3309943
  63.9195404  19.9108824  95.3881516  62.4118208  17.0665941  96.3959209
  63.2737372  17.3920839  96.6555026  62.5968552  16.2797437  95.8832274
  70.5650844  15.9394467 103.5394432  69.9849513  16.5979271 103.1572484
  70.2986777  15.1171812 103.1281849  69.3475722  18.0994558 102.5950780
  68.4601577  18.3844208 102.3770975  69.7629711  17.9388321 101.7478057
  57.3559973  32.6802309 107.6822225  57.2214441  31.9202710 107.1160223
  56.9392035  33.4043209 107.2151013  68.4918936  27.8639232  96.6898800
  69.1954786  28.0689235  97.3056455  67.7681584  28.4315994  96.9547883
  69.3216746  23.6149094 102.8101070  69.2651947  24.0717645 101.9708702
  69.8745088  22.8539778 102.6323913  73.1321552  19.4038826 103.6351190
  72.8758486  19.0035461 104.4659397  72.5074420  20.1182620 103.5101329
  60.5129099  33.5771626 107.8940667  60.3961483  34.5217058 107.7919357
  59.6921545  33.2745188 108.2826466  70.4005633  28.3021762  98.7397260
  71.2351237  27.8702960  98.5574735  70.2389976  28.1303775  99.6674154
  70.0551525  24.8053875 100.1053599  70.0000329  24.6398146  99.1642043
  69.4297581  25.5129908 100.2615789  63.3647651  14.3061984  99.6838918
  63.3526321  15.2503824  99.8407188  64.2571073  14.1232129  99.3898379
  61.5383613  34.2299888 111.1096596  62.4410859  34.2623498 111.4263091
  61.3120983  33.3000339 111.1242931  63.2937215  32.9830874 107.7706674
  62.3432846  32.9832736 107.6571047  63.5969701  32.2363609 107.2542709
  79.0289908  38.8191413 108.8352437  79.6668318  38.6998160 108.1315777
  78.9110751  39.7672257 108.8940389  75.8379614  38.7718841 108.7713961
  75.4998126  38.6559906 107.8834496  76.7069383  38.3710006 108.7514967
  71.6966430  40.6254317 104.7610852  71.1331295  40.5344254 103.9927140
  71.5818825  39.8054222 105.2413345  76.3199397  39.9253693 114.7300167
  76.3088038  39.5306491 113.8580671  76.4820037  39.1919765 115.3233938
  69.2430862  42.1205509 107.5995073  70.0352154  41.7796334 107.1841372
  69.4827512  42.2300484 108.5197226  77.2765989  44.2925285 100.0725317
  76.6253969  44.8779365  99.6859331  78.0710352  44.8231480 100.1320355
  71.2021616  41.3814422 100.4712452  71.9752492  40.8343409 100.3325327
  71.5547015  42.2458671 100.6826913  73.0406659  42.7090804 113.6779351
  72.7496525  43.6136435 113.5626017  73.6763643  42.7507332 114.3923420
  73.9662865  40.0867653 110.2680711  74.5626438  39.8623675 109.5537673
  74.0237837  39.3452398 110.8706158  73.5387894  37.5407088  98.1030901
  73.7913415  37.0188610  97.3414364  72.6012453  37.3773234  98.2057585
  78.5831177  36.5442867 105.9105645  79.3694266  36.1262290 105.5596062
  78.8469881  37.4488959 106.0787293  78.7541254  41.9815717 100.6094302
  78.1187087  42.0550343 101.3215206  78.4238660  42.5709316  99.9313381
  83.9839604  36.4818100 106.8138623  84.7164776  35.9117317 107.0476453
  83.2278959  36.0939700 107.2545129  73.2584183  39.4435194 100.3055276
  73.1420441  38.7680098 100.9736361  73.3686442  38.9567568  99.4887429
  75.6015723  38.9045341 104.0101966  75.2373931  38.3775962 104.7214887
  76.4582839  38.5143810 103.8368451  75.2421210  33.9335241  99.0063314
  75.4095613  34.8015477  99.3733785  75.0518380  34.0962523  98.0824603
  77.9996544  42.3952220 110.6729145  77.6997267  43.2977259 110.5644952
  77.6547603  42.1284403 111.5250297  71.4509025  38.8466017 106.7065849
  70.5259522  38.7142231 106.9143541  71.6993438  39.6260236 107.2035791
  81.3993687  34.9134760 108.3526582  80.4910565  34.8450169 108.0585343
  81.3481283  35.3906705 109.1808407  75.2210431  36.3892899  99.9909981
  75.1010057  36.8349949 100.8295461  74.5263020  36.7378216  99.4323519
  68.8117836  38.4899290 107.5409638  68.9410217  38.7433769 108.4549050
  68.1315287  39.0826998 107.2214293  72.9817323  49.1596540 103.6400112
  72.9041353  50.1104365 103.7188593  72.3778967  48.8142413 104.2975039
  80.9195498  36.8614372 100.8190315  81.8313354  37.0941758 100.6438013
  80.4105145  37.4451416 100.2565394  73.7280926  39.1409859 115.8579446
  74.4695610  39.6794903 115.5814270  73.0217911  39.7676148 116.0150998
  79.2036265  41.2839000 114.4551608  79.6119621  40.8421410 113.7106240
  78.4813527  40.7091627 114.7085801  75.5567335  36.2211606 111.8285165
  76.4028530  36.6451020 111.9719814  75.4965973  35.5645231 112.5223728
  79.5265080  41.8440190 108.2103897  78.8973942  42.0085904 107.5079964
  79.1390742  42.2581800 108.9814861  83.4054312  42.7794628 105.5648260
  82.7205350  43.1593529 105.0145294  83.4898161  43.3889955 106.2980208
  80.6605243  40.4254587 112.1643604  80.8722139  41.0686347 111.4877985
  80.6134992  39.5916904 111.6965534  78.2631472  33.0372408 109.0680176
  77.4015951  33.3353661 109.3596914  78.2893907  33.2542807 108.1361209
  75.0793042  41.5814598 105.4753982  75.5431387  41.8602301 104.6858604
  74.8149840  40.6798043 105.2927072  71.9717123  41.1286080 108.4133745
  72.5418480  41.5573348 107.7751229  72.5625235  40.8468665 109.1117931
  74.0161928  37.7037751 102.2843547  74.7185971  38.1558794 102.7517473
  73.6842556  37.0621569 102.9123440  72.4642289  36.2949507 116.6594756
  71.8340950  36.9765788 116.8930153  72.3578377  36.1832589 115.7147894
  67.7587262  35.9621303 107.5860680  66.9686316  36.2178832 107.1100791
  68.2498509  36.7769641 107.6912721  81.7751071  43.3026542 110.3365961
  82.5968515  42.9006730 110.0548643  81.7713474  43.1994777 111.2882077
  69.7102007  36.3265883 104.5444157  68.9133170  36.4384577 105.0627653
  69.4827599  36.6652535 103.6785048  75.5407675  42.8510586 112.4926672
  75.6052107  43.3130993 113.3284843  74.8318599  42.2207951 112.6208981
  66.0424965  36.2151794 110.0175671  66.2933003  37.0998804 110.2833247
  66.5784513  36.0356395 109.2450763  75.2555692  44.5178693 102.3605652
  75.1201367  45.3630229 102.7890500  75.7965505  44.7197971 101.5971586
  68.7085090  42.0354131 102.9333577  69.2209610  42.8297382 103.0839142
  69.3607803  41.3380422 102.8667179  70.5179974  45.1519888 105.0156330
  70.6946603  46.0737852 104.8277314  71.3136808  44.8378307 105.4450710
  69.8032331  37.1984519 114.8918493  69.6885846  36.2969777 115.1925592
  68.9476849  37.4448216 114.5403310  76.8824169  45.1402260 116.4905994
  76.4388023  44.3538638 116.1726899  77.5441382  45.3281410 115.8249885
  71.6411290  46.6698061 111.0166673  72.1918715  46.5415125 110.2443667
  70.8022766  46.9692950 110.6661565  78.9805407  45.4205060 114.5187395
  78.9623882  46.2413941 114.0267664  79.9025327  45.2959135 114.7437536
  75.4378461  42.9349189 115.3610904  75.9706798  42.1737477 115.1310212
  74.9092542  42.6422841 116.1035058  66.6734007  40.3642786 103.7093148
  67.5109229  40.7739794 103.4926855  66.8512274  39.4242228 103.6793341
  78.5698439  38.0317866  99.3976981  78.0545062  38.8022471  99.6365368
  78.2975747  37.3583002 100.0210042  76.1545550  32.8767567 104.4562219
  75.2987146  32.4874417 104.2767858  76.5672501  32.9559528 103.5962004
  77.6844696  30.4113910 108.8553779  77.1809492  30.3744045 108.0421584
  77.9775303  31.3206653 108.9150435  73.9287582  30.4952640 107.8619960
  74.7940579  30.2995449 107.5025850  73.9965091  30.2662992 108.7889317
  83.5432713  40.7850221 101.3330154  82.7662156  40.4461380 100.8885316
  84.2224194  40.7902844 100.6585119  78.3584742  35.9044958 101.2236762
  78.0534877  36.2191108 102.0746905  79.3115184  35.9826378 101.2664095
  76.8031174  42.0635182 102.8729716  76.2752535  41.3287941 102.5602953
  76.3018676  42.8409858 102.6269684  81.7824020  40.2584202 107.9896762
  81.1247694  40.9483464 108.0776891  82.5864419  40.6480634 108.3330748
  71.5349901  32.7254848 105.2336327  72.1093653  32.5030029 104.5009520
  72.1220884  32.7943542 105.9864929  80.5929478  38.6128575 106.0400704
  81.1061360  39.2458567 106.5422413  81.2430702  38.0129770 105.6744064
  71.8619488  34.7559309  99.2532212  71.0256801  35.0933996  99.5741487
  71.7224258  34.6208289  98.3159349  73.8372569  29.5996097 103.9611397
  73.1836981  29.2845114 103.3368011  73.7953043  28.9771837 104.6871220
  74.9483774  39.8815392  95.8764689  74.0410836  39.6504645  96.0755838
  75.4454806  39.0853011  96.0638670  77.8551853  48.5912899  98.7961375
  77.1813551  48.8944596  99.4046333  78.2417675  49.3941979  98.4466832
  77.0710309  36.0878030 108.2859044  76.1532871  36.3092977 108.1280732
  77.4870453  36.1624341 107.4270752  77.8545357  37.4869446 103.4161725
  78.6017176  37.9990843 103.1068847  78.1236947  37.1653499 104.2766118
  76.1272007  39.9827987 100.3988679  75.2183227  39.6987020 100.4961149
  76.1567091  40.4027065  99.5391986  81.3591275  43.5934576 104.1679846
  80.9053602  42.7525486 104.2245037  80.7285241  44.2295975 104.5054627
  80.3024194  34.5226562 105.3980514  79.5646951  34.0103949 105.7290756
  80.5550968  34.0826944 104.5863791  79.8024214  45.4311073 105.1029665
  80.0947188  45.9916130 104.3842030  80.3122835  45.7239634 105.8582824
  66.6960178  37.7033501 104.3803881  66.4984577  37.1102862 103.6554948
  66.1406842  37.3985711 105.0979820  74.6756901  37.5956607 106.4998474
  74.7305511  36.6430444 106.4240951  73.8648103  37.7516046 106.9839773
  75.8248095  41.5236730  97.7376757  75.3867525  40.8072589  97.2782395
  76.5658536  41.7512845  97.1761849  72.6149261  36.2133667 104.2588853
  71.8017127  36.5127838 104.6654045  73.1108255  35.8189356 104.9763335
  74.7657839  46.2091424 106.1923118  74.7234018  46.4352270 105.2631650
  75.6820538  45.9754799 106.3408919  83.9421210  39.7993927 103.7953076
  83.8039108  39.9895523 102.8674265  83.5857429  40.5613310 104.2521127
  72.1063336  33.7852023 109.8750088  72.7462715  33.6440782 109.1773051
  71.2740867  33.4986536 109.4988690  83.9690589  41.8670455 108.8064347
  84.4027096  41.7745744 109.6547402  84.6822170  41.8427955 108.1684363
  72.8823640  43.0854453 105.9885080  73.6764238  42.5904773 105.7867655
  72.1715332  42.5572316 105.6252786  77.7018484  45.4672549 110.3397448
  77.7555507  46.0363485 111.1075164  76.8333266  45.6374434 109.9751485
  69.1906403  37.2297535 102.0644833  68.2603991  37.1681990 102.2814795
  69.2863875  36.7073488 101.2681474  69.1091952  33.7552348 104.6523075
  69.3698770  34.6697681 104.5432235  69.9309125  33.2876790 104.8019688
  70.5816878  35.1690105 111.8221899  71.2539931  34.9607467 111.1734548
  69.7546664  34.9712191 111.3827132  76.6606584  39.6332811 111.8984380
  77.5898644  39.7843970 111.7253347  76.2397614  39.7216831 111.0433026
  75.4594916  43.6583475 109.6682918  75.3206002  43.2902259 110.5408856
  74.6709512  44.1731114 109.4966875  76.0543068  48.7592572 101.0108454
  76.2294824  48.2880615 101.8254077  75.3675856  49.3858338 101.2389715
  77.0100131  43.0365078 107.0571755  76.6749964  42.9965848 107.9529405
  76.5104077  42.3709794 106.5842166  70.9844375  38.4432708 112.5824337
  70.8464173  37.7112947 113.1835876  71.8949298  38.3541608 112.3008524
  79.9459323  40.3821112  97.3308815  79.3288493  39.6567940  97.2341868
  79.4775811  41.1430472  96.9875889  73.6126676  38.1552667 112.0708016
  74.3226294  37.5145859 112.0294635  73.5695984  38.4065562 112.9934197
  72.3255610  35.1417885 113.8903656  71.7892967  34.6908623 114.5425252
  71.7372318  35.2763794 113.1474120  70.6204153  51.9081934 107.7848314
  70.8600751  52.5400458 108.4627333  69.7773350  51.5569974 108.0713674
  71.7357869  34.6006536  96.4530119  70.8587335  34.4795337  96.0892366
  72.2115622  33.8092615  96.2009008  63.2560009  39.3883696 106.5471626
  63.9431049  39.0745426 105.9592642  63.1008137  40.2925061 106.2738878
  68.0594731  34.2773893 110.9756650  67.9752920  33.6699562 110.2407060
  67.2377437  34.7682911 110.9766146  75.1332015  47.7161057 110.1889818
  75.0602187  48.5216028 110.7009123  74.6909408  47.9153023 109.3637840
  74.9221795  46.9532827 103.6992640  74.1389317  47.4954507 103.7930864
  75.6214540  47.4706806 104.0986881  78.2318445  32.7627456 106.3426845
  78.7287144  32.0097419 106.0227915  77.4605426  32.7991773 105.7770054
  77.5930699  47.6147891 112.3447977  78.3058671  48.2495356 112.2723878
  77.1020727  47.7111757 111.5287979  79.3148225  41.5199143 103.9165269
  78.3804504  41.6400606 103.7469973  79.4924894  40.6171610 103.6525278
  74.8153414  34.9044839 106.0698530  74.4451201  34.3515880 106.7579435
  75.3112506  34.3002973 105.5173530  82.7020777  37.3616463 104.4515303
  83.1681229  38.1944454 104.3775605  83.1528277  36.8961444 105.1560561
  72.6442612  45.3642334 113.1653548  73.3452072  45.9978817 113.3182942
  72.1737727  45.7057066 112.4049187  80.7697008  43.7060284 101.4501455
  81.0456852  43.5916879 102.3595329  79.9001507  43.3077769 101.4113628
  80.4443898  37.9186942 110.9906098  79.7915348  38.1662849 110.3358551
  80.8224278  37.1051080 110.6568575  77.4051072  47.9546635 105.0934268
  77.5873466  47.1368291 105.5562021  78.2284058  48.1714327 104.6559158
  77.7393237  46.8814820 102.3549317  78.2681004  46.3707275 101.7419479
  78.0021457  46.5657350 103.2194850  68.2410330  44.8978689 110.0984650
  68.8263767  44.1522377 110.2312555  68.0435169  45.2082646 110.9821314
  71.0948985  47.9329937 105.1147093  70.4259361  48.4176064 104.6311133
  70.9561855  48.1799157 106.0290471  62.8327985  37.4684289 108.8189094
  62.8712084  36.9347880 109.6126212  62.3268278  36.9419495 108.2000071
  75.2354254  49.9673680 111.7129751  75.7872562  50.1305302 112.4778836
  75.5760447  50.5578118 111.0409776  70.2118747  32.3148830 112.3151636
  70.2760074  33.1763661 111.9029034  70.1485867  31.7022832 111.5823994
  66.4636562  36.1948392 101.8943025  66.7590004  35.2859070 101.8410079
  65.5624598  36.1736131 101.5724027  78.3722641  47.9155656 108.6993433
  78.2473781  47.1145396 108.1904379  79.0301732  48.4101849 108.2107403
  69.9930809  34.2704388 107.8770574  69.2717395  34.8840356 107.7378047
  70.7824065  34.8062153 107.7987219  80.4357550  45.7164676 110.3272983
  79.4887885  45.5970027 110.2551310  80.7840323  44.8287174 110.4099245
  68.1924404  33.8762489 102.0182350  67.8637110  32.9959868 101.8357456
  68.5463775  33.8210158 102.9058739  77.4403983  45.5117392 106.5277336
  77.2928945  44.5834099 106.7084906  78.2657476  45.5337483 106.0434411
  71.3066227  34.1635459 102.3857828  71.6462300  34.6921380 101.6636436
  71.7538348  34.5015865 103.1616394  81.0438105  46.3345951 107.6142208
  81.9684652  46.1288812 107.4766660  80.8753408  46.0862352 108.5231550
  74.0009668  32.5472510 111.8360896  73.6606488  31.7480323 112.2381576
  73.2948674  32.8474221 111.2637729  74.6526140  29.6321822 110.2888219
  75.4752209  29.1582300 110.1667109  74.8964203  30.4112306 110.7886905
  73.2934374  32.6610081 100.5851121  74.0142737  33.0391333 100.0814837
  72.6699678  33.3798958 100.6886098  77.4365497  33.3655230 101.5209453
  77.6529112  34.2479868 101.2198281  76.9559564  32.9741443 100.7915095
  72.1764719  36.3240943 108.0980197  72.0309299  36.6381246 108.9904479
  71.6989922  36.9425843 107.5451096  74.0361101  33.3143491 108.1461087
  74.0222670  32.4184584 107.8093385  74.7533530  33.3214155 108.7799373
  75.8887232  33.7480831 110.1914214  75.6305010  34.6697902 110.1898545
  75.3572273  33.3511266 110.8814679  80.8333421  46.8531618 102.9704300
  81.0070298  46.2878041 102.2178152  81.3262312  47.6532513 102.7883790
  66.6510381  38.8646287 111.0367859  66.1063849  39.6406095 111.1688133
  67.5289731  39.2117092 110.8786980  73.4397997  32.1957871 103.4148657
  73.5613909  31.2674517 103.6139545  73.1500040  32.2096557 102.5026973
  76.3089188  29.8812782 106.5515377  76.3310885  29.9452115 105.5967357
  76.7257247  29.0417290 106.7455883  86.6872812  39.6168041 104.5894600
  87.1303958  38.8675366 104.1913723  85.8099322  39.6078178 104.2068332
  81.8208593  46.1698383 100.0701198  82.5159498  46.7905075 100.2888513
  82.1631744  45.3193734 100.3453576  67.4376403  37.9916184 113.9298015
  66.6958139  38.1398819 114.5162646  67.1169147  38.2524449 113.0664765
  83.7200017  43.6198088 101.5988529  84.2451341  43.9585361 100.8737849
  83.6322369  42.6845103 101.4151663  75.3820065  47.5332162 113.7278406
  75.6907192  47.2881309 114.6001105  76.1795547  47.7378800 113.2397276
  75.4040677  49.6870071 105.9583782  74.9645668  49.1946450 106.6516639
  76.1548794  49.1443039 105.7175857  67.8833016  45.8781612 105.9608410
  68.7091036  45.5785384 105.5807054  67.5327068  45.1089235 106.4098199
  72.8514549  45.2308081 108.0306084  72.2294559  44.5678786 107.7308312
  73.5219416  45.2569212 107.3479732  66.0841621  43.7967939 106.9197344
  65.2473530  43.3690113 106.7381345  66.0565267  43.9900382 107.8568135
  72.4128056  43.7812004 101.5064544  72.5616177  44.4647468 100.8531217
  73.2194500  43.7617094 102.0214000  86.2305677  41.0873279 106.9817047
  87.0652568  41.5263084 107.1454607  86.3664806  40.6111933 106.1625293
  70.1680689  39.8077181 102.5125613  69.9226731  38.9039511 102.7105823
  70.3376604  39.8094332 101.5705091  69.4376337  35.5405539 100.0111775
  68.7445582  35.6149894  99.3551811  69.1928089  34.7765883 100.5333292
  75.9123462  46.2760134  98.9776292  75.3397429  46.8950321  98.5246764
  76.4856256  46.8259496  99.5116214  79.1320722  46.5597284 100.1084874
  80.0651395  46.4942846 100.3117749  79.0443935  47.3953551  99.6499407
  81.7608738  45.8763155  97.0688822  81.6822370  45.5423018  97.9624579
  82.5818405  46.3684923  97.0680294  76.2970260  37.6120947  96.3192344
  77.2429365  37.4827155  96.3880762  75.9184505  36.8735609  96.7961772
  74.4813178  35.5370923  96.2547229  73.5744633  35.2404036  96.3309943
  74.7589159  35.2400742  95.3881516  65.3991118  36.8577287 106.7046276
  65.0793902  36.0042595 106.4120650  64.8524546  37.0725865 107.4604243
  69.1771025  39.5739728 110.4215782  69.3957035  40.5056836 110.4403816
  69.5896799  39.2147702 111.2070586  76.0975243  30.0807813 102.4091471
  75.2875972  29.7354898 102.7846717  76.7859660  29.7715357 102.9979082
  78.0265792  29.1585860 104.0315767  78.5796830  29.5781313 104.6905790
  78.2635878  28.2321608 104.0738723  73.2511962  32.3957859  96.3959209
  74.1131126  32.7212757  96.6555026  73.4362306  31.6089355  95.8832274
  65.2679378  40.4780198 108.6739397  64.5742849  40.0634151 108.1609352
  66.0152369  40.5200735 108.0772816  81.4044599  31.2686385 103.5394432
  80.8243268  31.9271189 103.1572484  81.1380531  30.4463730 103.1281849
  79.8548165  30.6691443 105.7415752  80.3547943  30.7807977 104.9330071
  80.4983773  30.3652496 106.3816560  67.1816120  40.4098452 106.5505412
  67.1586809  40.5086139 105.5987295  67.4916757  41.2563603 106.8722578
  69.8403498  42.4674607 110.6652027  70.7946752  42.4358549 110.5981958
  69.6416022  42.0065231 111.4802253  70.4302880  41.0375723 113.2322824
  71.2495769  41.5319802 113.2557662  70.7039688  40.1207691 113.2040392
  80.1869477  33.4286475 102.5950780  79.2995332  33.7136126 102.3770975
  80.6023466  33.2680239 101.7478057  68.1953727  48.0094227 107.6822225
  68.0608195  47.2494628 107.1160223  67.7785789  48.7335126 107.2151013
  79.3312690  43.1931150  96.6898800  80.0348540  43.3981153  97.3056455
  78.6075339  43.7607912  96.9547883  80.1610500  38.9441011 102.8101070
  80.1045702  39.4009563 101.9708702  80.7138843  38.1831696 102.6323913
  83.9715306  34.7330743 103.6351190  83.7152241  34.3327379 104.4659397
  83.3468174  35.4474537 103.5101329  71.3522853  48.9063544 107.8940667
  71.2355237  49.8508976 107.7919357  70.5315299  48.6037105 108.2826466
  81.2399388  43.6313679  98.7397260  82.0744991  43.1994878  98.5574735
  81.0783730  43.4595693  99.6674154  80.8945280  40.1345793 100.1053599
  80.8394084  39.9690064  99.1642043  80.2691335  40.8421826 100.2615789
  74.2041405  29.6353902  99.6838918  74.1920075  30.5795742  99.8407188
  75.0964827  29.4524047  99.3898379  72.3777367  49.5591806 111.1096596
  73.2804614  49.5915416 111.4263091  72.1514737  48.6292256 111.1242931
  74.1330969  48.3122792 107.7706674  73.1826600  48.3124654 107.6571047
  74.4363455  47.5655527 107.2542709  78.0193525  26.2296678 103.9384854
  77.2525920  25.6755165 104.0841537  78.4304230  26.3018547 104.7999006
  82.5360185  55.9546235 104.7610852  81.9725050  55.8636172 103.9927140
  82.4212580  55.1346139 105.2413345  88.1159743  59.6217203 100.0725317
  87.4647723  60.2071283  99.6859331  88.9104106  60.1523398 100.1320355
  82.0415370  56.7106340 100.4712452  82.8146246  56.1635327 100.3325327
  82.3940769  57.5750589 100.6826913  84.3781648  52.8699006  98.1030901
  84.6307169  52.3480527  97.3414364  83.4406207  52.7065151  98.2057585
  89.4224931  51.8734784 105.9105645  90.2088020  51.4554207 105.5596062
  89.6863635  52.7780877 106.0787293  89.5935008  57.3107635 100.6094302
  88.9580841  57.3842261 101.3215206  89.2632415  57.9001233  99.9313381
  84.0977937  54.7727112 100.3055276  83.9814195  54.0972015 100.9736361
  84.2080197  54.2859486  99.4887429  86.4409478  54.2337259 104.0101966
  86.0767685  53.7067880 104.7214887  87.2976594  53.8435728 103.8368451
  86.0814965  49.2627159  99.0063314  86.2489367  50.1307395  99.3733785
  85.8912134  49.4254440  98.0824603  82.2902780  54.1757934 106.7065849
  81.3653276  54.0434149 106.9143541  82.5387193  54.9552154 107.2035791
  86.0604186  51.7184816  99.9909981  85.9403811  52.1641867 100.8295461
  85.3656774  52.0670134  99.4323519  79.6511591  53.8191208 107.5409638
  79.7803972  54.0725687 108.4549050  78.9709042  54.4118916 107.2214293
  91.7589252  52.1906289 100.8190315  92.6707108  52.4233676 100.6438013
  91.2498899  52.7743334 100.2565394  89.1025227  48.3664325 109.0680176
  88.2409706  48.6645579 109.3596914  89.1287661  48.5834724 108.1361209
  85.9186796  56.9106516 105.4753982  86.3825142  57.1894219 104.6858604
  85.6543594  56.0089961 105.2927072  84.8555682  53.0329668 102.2843547
  85.5579726  53.4850712 102.7517473  84.5236311  52.3913487 102.9123440
  78.5981016  51.2913221 107.5860680  77.8080070  51.5470750 107.1100791
  79.0892264  52.1061559 107.6912721  80.5495762  51.6557800 104.5444157
  79.7526925  51.7676494 105.0627653  80.3221354  51.9944452 103.6785048
  76.8818719  51.5443711 110.0175671  77.1326758  52.4290721 110.2833247
  77.4178268  51.3648313 109.2450763  86.0949447  59.8470611 102.3605652
  85.9595122  60.6922147 102.7890500  86.6359259  60.0489889 101.5971586
  79.5478844  57.3646049 102.9333577  80.0603365  58.1589299 103.0839142
  80.2001557  56.6672339 102.8667179  81.3573729  60.4811805 105.0156330
  81.5340357  61.4029770 104.8277314  82.1530562  60.1670224 105.4450710
  77.5127761  55.6934703 103.7093148  78.3502983  56.1031712 103.4926855
  77.6906029  54.7534145 103.6793341  89.4092193  53.3609784  99.3976981
  88.8938817  54.1314389  99.6365368  89.1369502  52.6874920 100.0210042
  86.9939304  48.2059485 104.4562219  86.1380901  47.8166335 104.2767858
  87.4066256  48.2851446 103.5962004  88.5238451  45.7405828 108.8553779
  88.0203246  45.7035963 108.0421584  88.8169058  46.6498571 108.9150435
  84.7681337  45.8244558 107.8619960  85.6334333  45.6287366 107.5025850
  84.8358846  45.5954909 108.7889317  94.3826467  56.1142139 101.3330154
  93.6055910  55.7753298 100.8885316  95.0617948  56.1194762 100.6585119
  89.1978496  51.2336876 101.2236762  88.8928632  51.5483025 102.0746905
  90.1508938  51.3118296 101.2664095  87.6424928  57.3927099 102.8729716
  87.1146290  56.6579859 102.5602953  87.1412431  58.1701776 102.6269684
  82.3743656  48.0546766 105.2336327  82.9487408  47.8321947 104.5009520
  82.9614638  48.1235460 105.9864929  82.7013243  50.0851227  99.2532212
  81.8650555  50.4225913  99.5741487  82.5618013  49.9500206  98.3159349
  84.6766323  44.9288015 103.9611397  84.0230736  44.6137032 103.3368011
  84.6346798  44.3063755 104.6871220  85.7877528  55.2107310  95.8764689
  84.8804590  54.9796563  96.0755838  86.2848560  54.4144929  96.0638670
  88.6945607  63.9204817  98.7961375  88.0207306  64.2236514  99.4046333
  89.0811429  64.7233897  98.4466832  87.9104064  51.4169948 108.2859044
  86.9926625  51.6384895 108.1280732  88.3264207  51.4916259 107.4270752
  88.6939112  52.8161364 103.4161725  89.4410931  53.3282761 103.1068847
  88.9630701  52.4945416 104.2766118  86.9665762  55.3119904 100.3988679
  86.0576981  55.0278937 100.4961149  86.9960846  55.7318983  99.5391986
  91.1417949  49.8518480 105.3980514  90.4040706  49.3395866 105.7290756
  91.3944722  49.4118862 104.5863791  77.5353932  53.0325419 104.3803881
  77.3378332  52.4394779 103.6554948  76.9800596  52.7277629 105.0979820
  85.5150656  52.9248525 106.4998474  85.5699266  51.9722361 106.4240951
  84.7041858  53.0807964 106.9839773  86.6641850  56.8528648  97.7376757
  86.2261280  56.1364507  97.2782395  87.4052290  57.0804763  97.1761849
  83.4543016  51.5425585 104.2588853  82.6410881  51.8419755 104.6654045
  83.9502010  51.1481274 104.9763335  82.9457091  49.1143940 109.8750088
  83.5856470  48.9732699 109.1773051  82.1134621  48.8278454 109.4988690
  83.7217394  58.4146371 105.9885080  84.5157993  57.9196691 105.7867655
  83.0109087  57.8864234 105.6252786  80.0300158  52.5589452 102.0644833
  79.0997746  52.4973908 102.2814795  80.1257630  52.0365405 101.2681474
  79.9485707  49.0844265 104.6523075  80.2092524  49.9989599 104.5432235
  80.7702879  48.6168708 104.8019688  90.7853077  55.7113030  97.3308815
  90.1682248  54.9859858  97.2341868  90.3169566  56.4722390  96.9875889
  82.5751623  49.9298454  96.4530119  81.6981089  49.8087255  96.0892366
  83.0509376  49.1384532  96.2009008  74.0953763  54.7175614 106.5471626
  74.7824803  54.4037344 105.9592642  73.9401892  55.6216978 106.2738878
  78.8988485  49.6065810 110.9756650  78.8146674  48.9991480 110.2407060
  78.0771192  50.0974829 110.9766146  89.0712199  48.0919374 106.3426845
  89.5680899  47.3389336 106.0227915  88.2999181  48.1283691 105.7770054
  90.1541980  56.8491061 103.9165269  89.2198259  56.9692524 103.7469973
  90.3318648  55.9463528 103.6525278  85.6547168  50.2336757 106.0698530
  85.2844956  49.6807797 106.7579435  86.1506260  49.6294890 105.5173530
  93.5414531  52.6908380 104.4515303  94.0074984  53.5236372 104.3775605
  93.9922032  52.2253362 105.1560561  91.6090762  59.0352202 101.4501455
  91.8850606  58.9208796 102.3595329  90.7395261  58.6369687 101.4113628
  73.6721739  52.7976207 108.8189094  73.7105839  52.2639798 109.6126212
  73.1662032  52.2711413 108.2000071  81.0512502  47.6440748 112.3151636
  81.1153828  48.5055579 111.9029034  80.9879622  47.0314749 111.5823994
  77.3030317  51.5240309 101.8943025  77.5983758  50.6150988 101.8410079
  76.4018353  51.5028049 101.5724027  80.8324564  49.5996306 107.8770574
  80.1111150  50.2132274 107.7378047  81.6217820  50.1354071 107.7987219
  79.0318159  49.2054407 102.0182350  78.7030865  48.3251786 101.8357456
  79.3857529  49.1502076 102.9058739  82.1459982  49.4927377 102.3857828
  82.4856054  50.0213298 101.6636436  82.5932102  49.8307783 103.1616394
  85.4919894  44.9613740 110.2888219  86.3145964  44.4874218 110.1667109
  85.7357958  45.7404224 110.7886905  84.1328129  47.9901998 100.5851121
  84.8536491  48.3683251 100.0814837  83.5093433  48.7090875 100.6886098
  88.2759252  48.6947147 101.5209453  88.4922866  49.5771785 101.2198281
  87.7953319  48.3033361 100.7915095  83.0158473  51.6532861 108.0980197
  82.8703054  51.9673164 108.9904479  82.5383677  52.2717761 107.5451096
  84.8754856  48.6435409 108.1461087  84.8616425  47.7476502 107.8093385
  85.5927284  48.6506072 108.7799373  84.2791752  47.5249789 103.4148657
  84.4007663  46.5966435 103.6139545  83.9893794  47.5388475 102.5026973
  87.1482942  45.2104699 106.5515377  87.1704639  45.2744032 105.5967357
  87.5651001  44.3709208 106.7455883  78.7226771  61.2073530 105.9608410
  79.5484791  60.9077302 105.5807054  78.3720823  60.4381152 106.4098199
  76.9235376  59.1259856 106.9197344  76.0867284  58.6982031 106.7381345
  76.8959021  59.3192300 107.8568135  83.2521811  59.1103922 101.5064544
  83.4009931  59.7939386 100.8531217  84.0588254  59.0909012 102.0214000
  81.0074444  55.1369099 102.5125613  80.7620486  54.2331429 102.7105823
  81.1770358  55.1386250 101.5705091  80.2770091  50.8697457 100.0111775
  79.5839336  50.9441812  99.3551811  80.0321843  50.1057800 100.5333292
  86.7517216  61.6052052  98.9776292  86.1791183  62.2242239  98.5246764
  87.3250010  62.1551414  99.5116214  89.9714476  61.8889202 100.1084874
  90.9045149  61.8234764 100.3117749  89.8837689  62.7245469  99.6499407
  92.6002493  61.2055072  97.0688822  92.5216124  60.8714936  97.9624579
  93.4212160  61.6976840  97.0680294  87.1364015  52.9412865  96.3192344
  88.0823120  52.8119073  96.3880762  86.7578260  52.2027527  96.7961772
  85.3206932  50.8662841  96.2547229  84.4138387  50.5695954  96.3309943
  85.5982913  50.5692659  95.3881516  76.2384872  52.1869205 106.7046276
  75.9187657  51.3334513 106.4120650  75.6918301  52.4017783 107.4604243
  86.9368998  45.4099731 102.4091471  86.1269726  45.0646816 102.7846717
  87.6253415  45.1007275 102.9979082  88.8659546  44.4877778 104.0315767
  89.4190585  44.9073231 104.6905790  89.1029632  43.5613526 104.0738723
  84.0905717  47.7249776  96.3959209  84.9524881  48.0504675  96.6555026
  84.2756061  46.9381272  95.8832274  76.1073132  55.8072116 108.6739397
  75.4136604  55.3926069 108.1609352  76.8546123  55.8492653 108.0772816
  92.2438353  46.5978303 103.5394432  91.6637022  47.2563107 103.1572484
  91.9774286  45.7755647 103.1281849  90.6941920  45.9983361 105.7415752
  91.1941698  46.1099895 104.9330071  91.3377527  45.6944413 106.3816560
  78.0209875  55.7390370 106.5505412  77.9980563  55.8378057 105.5987295
  78.3310511  56.5855521 106.8722578  91.0263231  48.7578393 102.5950780
  90.1389086  49.0428044 102.3770975  91.4417220  48.5972157 101.7478057
  90.1706445  58.5223068  96.6898800  90.8742295  58.7273070  97.3056455
  89.4469093  59.0899830  96.9547883  91.0004255  54.2732929 102.8101070
  90.9439456  54.7301481 101.9708702  91.5532597  53.5123614 102.6323913
  94.8109061  50.0622661 103.6351190  94.5545995  49.6619297 104.4659397
  94.1861929  50.7766455 103.5101329  92.0793142  58.9605597  98.7397260
  92.9138746  58.5286796  98.5574735  91.9177485  58.7887611  99.6674154
  91.7339034  55.4637710 100.1053599  91.6787838  55.2981982  99.1642043
  91.1085089  56.1713743 100.2615789  85.0435160  44.9645819  99.6838918
  85.0313830  45.9087659  99.8407188  85.9358582  44.7815965  99.3898379
  88.8587279  41.5588596 103.9384854  88.0919675  41.0047083 104.0841537
  89.2697984  41.6310465 104.7999006  93.4145378  65.2590372  96.4530119
  92.5374844  65.1379173  96.0892366  93.8903131  64.4676450  96.2009008
  96.1600687  66.1954759  96.2547229  95.2532142  65.8987872  96.3309943
  96.4376668  65.8984577  95.3881516  94.9299471  63.0541694  96.3959209
  95.7918635  63.3796592  96.6555026  95.1149815  62.2673190  95.8832274
  60.8572677   2.3024522  91.4856159  60.2937542   2.2114459  90.7172447
  60.7425072   1.4824427  91.9658651  66.4372236   5.9695490  86.7970624
  65.7860215   6.5549570  86.4104638  67.2316598   6.5001685  86.8565661
  60.3627863   3.0584627  87.1957758  61.1358739   2.5113614  87.0570634
  60.7153262   3.9228876  87.4072220  67.9147501   3.6585922  87.3339608
  67.2793334   3.7320548  88.0460513  67.5844907   4.2479521  86.6558687
  62.4190429   1.1205399  87.0300583  62.3026687   0.4450303  87.6981667
  62.5292689   0.6337773  86.2132736  62.1423570  10.8366745  90.3645419
  62.0647600  11.7874570  90.4433899  61.5385214  10.4912618  91.0220345
  68.6871327   3.5210395  94.9349203  68.0580189   3.6856109  94.2325271
  68.2996989   3.9352005  95.7060167  72.5660558   4.4564833  92.2893567
  71.8811597   4.8363734  91.7390600  72.6504408   5.0660160  93.0225515
  64.2399288   3.2584803  92.1999288  64.7037634   3.5372506  91.4103911
  63.9756087   2.3568248  92.0172379  70.9357318   4.9796747  97.0611268
  71.7574762   4.5776935  96.7793949  70.9319721   4.8764982  98.0127384
  64.4161939   6.1948898  89.0850959  64.2807614   7.0400434  89.5135806
  64.9571752   6.3968176  88.3216892  57.8691337   3.7124336  89.6578884
  58.3815857   4.5067586  89.8084448  58.5214049   3.0150627  89.5912485
  59.6786221   6.8290092  91.7401637  59.8552850   7.7508057  91.5522621
  60.4743055   6.5148512  92.1696017  65.9637420   3.7405387  89.5975022
  65.4358782   3.0058146  89.2848260  65.4624923   4.5180063  89.3514991
  64.1090021   1.5585597  82.6009995  63.2017082   1.3274850  82.8001144
  64.6061053   0.7623216  82.7883977  67.0158100  10.2683104  85.5206682
  66.3419798  10.5714801  86.1291639  67.4023921  11.0712184  85.1712139
  65.2878254   1.6598192  87.1233985  64.3789473   1.3757225  87.2206455
  65.3173338   2.0797270  86.2637292  70.5197521   5.2704781  90.8925153
  70.0659849   4.4295691  90.9490344  69.8891488   5.9066180  91.2299933
  68.9630461   7.1081278  91.8274971  69.2553435   7.6686335  91.1087337
  69.4729081   7.4009839  92.5828130  64.9854342   3.2006935  84.4622064
  64.5473772   2.4842794  84.0027701  65.7264783   3.4283050  83.9007155
  63.9264086   7.8861629  92.9168424  63.8840265   8.1122475  91.9876956
  64.8426785   7.6525004  93.0654226  62.0429887   4.7624658  92.7130387
  62.8370485   4.2674978  92.5112962  61.3321579   4.2342521  92.3498093
  66.8624731   7.1442754  97.0642755  66.9161753   7.7133690  97.8320471
  65.9939513   7.3144639  96.6996792  65.2149315  10.4362776  87.7353761
  65.3901070   9.9650820  88.5499383  64.5282103  11.0628543  87.9635021
  66.1706378   4.7135283  93.7817062  65.8356210   4.6736053  94.6774712
  65.6710324   4.0479999  93.3087472  59.7810400  13.5852139  94.5093621
  60.0206998  14.2170663  95.1872639  58.9379596  13.2340179  94.7958980
  64.2938262   9.3931262  96.9135125  64.2208433  10.1986233  97.4254429
  63.8515655   9.5923227  96.0883146  64.0828041   8.6303032  90.4237946
  63.2995563   9.1724712  90.5176171  64.7820787   9.1477011  90.8232188
  66.7536945   9.2918096  99.0693284  67.4664918   9.9265561  98.9969185
  66.2626974   9.3881962  98.2533285  68.4754472   3.1969348  90.6410575
  67.5410751   3.3170811  90.4715280  68.6531141   2.2941815  90.3770585
  69.9303255   5.3830489  88.1746761  70.2063099   5.2687084  89.0840635
  69.0607753   4.9847974  88.1358934  66.5657319   9.6316840  91.8179575
  66.7479713   8.8138496  92.2807327  67.3890305   9.8484532  91.3804465
  66.8999484   8.5585025  89.0794623  67.4287251   8.0477480  88.4664786
  67.1627704   8.2427555  89.9440157  60.2555232   9.6100142  91.8392399
  59.5865607  10.0946269  91.3556439  60.1168102   9.8569362  92.7535778
  64.3960501  11.6443885  98.4375058  64.9478809  11.8075507  99.2024143
  64.7366694  12.2348323  97.7655083  67.5328888   9.5925861  95.4238740
  67.4080027   8.7915600  94.9149685  68.1907979  10.0872054  94.9352710
  69.5963796   7.3934881  97.0518290  68.6494132   7.2740232  96.9796617
  69.9446569   6.5057379  97.1344551  66.6010230   7.1887597  93.2522642
  66.4535192   6.2604304  93.4330212  67.4263723   7.2107688  92.7679717
  70.2044352   8.0116156  94.3387515  71.1290899   7.8059017  94.2011966
  70.0359655   7.7632557  95.2476857  69.9939668   8.5301823  89.6949606
  70.1676545   7.9648246  88.9423459  70.4868559   9.3302718  89.5129096
  70.9814840   7.8468588  86.7946505  71.6765745   8.4675280  87.0133819
  71.3237990   6.9963939  87.0698883  72.8806263   5.2968293  88.3233836
  73.4057587   5.6355566  87.5983156  72.7928616   4.3615308  88.1396970
  64.5646924  11.3640276  92.6829089  64.1251914  10.8716655  93.3761945
  65.3155041  10.8213244  92.4421164  57.0439263   7.5551817  92.6853717
  57.8697283   7.2555589  92.3052360  56.6933315   6.7859440  93.1343505
  62.0120796   6.9078285  94.7551390  61.3900806   6.2448990  94.4553618
  62.6825663   6.9339417  94.0725038  61.5734303   5.4582209  88.2309851
  61.7222424   6.1417673  87.5776524  62.3800747   5.4387299  88.7459307
  59.3286936   1.4847386  89.2370920  59.0832978   0.5809716  89.4351130
  59.4982851   1.4864537  88.2950398  65.0729709   7.9530339  85.7021598
  64.5003676   8.5720526  85.2492070  65.6462502   8.5029701  86.2361520
  68.2926968   8.2367489  86.8330181  69.2257642   8.1713051  87.0363056
  68.2050181   9.0723756  86.3744713  70.9214985   7.5533360  83.7934128
  70.8428617   7.2193223  84.6869886  71.7424652   8.0455128  83.7925601
  57.3559974   9.6864432  94.4067531  57.2214442   8.9264832  93.8405529
  56.9392036  10.4105331  93.9396320  68.4918937   4.8701355  83.4144106
  69.1954787   5.0751358  84.0301762  67.7681586   5.4378117  83.6793190
  60.5129100  10.5833749  94.6185974  60.3961484  11.5279181  94.5164664
  59.6921546  10.2807310  95.0071773  70.4005634   5.3083884  85.4642567
  71.2351238   4.8765083  85.2820041  70.2389977   5.1365898  86.3919461
  61.5383614  11.2362010  97.8341902  62.4410861  11.2685621  98.1508397
  61.3120984  10.3062461  97.8488238  63.2937216   9.9892997  94.4951981
  62.3432847   9.9894859  94.3816353  63.5969702   9.2425732  93.9788016
  79.0289909  15.8253535  95.5597743  79.6668319  15.7060283  94.8561083
  78.9110752  16.7734379  95.6185695  75.8379616  15.7780964  95.4959268
  75.4998127  15.6622028  94.6079803  76.7069384  15.3772129  95.4760274
  71.6966431  17.6316440  91.4856159  71.1331297  17.5406377  90.7172447
  71.5818826  16.8116344  91.9658651  76.3199399  16.9315815 101.4545474
  76.3088039  16.5368614 100.5825977  76.4820038  16.1981888 102.0479245
  69.2430863  19.1267632  94.3240379  70.0352155  18.7858456  93.9086679
  69.4827513  19.2362607  95.2442533  77.2765990  21.2987408  86.7970624
  76.6253970  21.8841488  86.4104638  78.0710353  21.8293603  86.8565661
  71.2021617  18.3876545  87.1957758  71.9752493  17.8405532  87.0570634
  71.5547016  19.2520794  87.4072220  73.0406660  19.7152927 100.4024657
  72.7496526  20.6198558 100.2871324  73.6763644  19.7569455 101.1168727
  73.9662867  17.0929776  96.9926017  74.5626439  16.8685798  96.2782980
  74.0237838  16.3514521  97.5951465  73.5387895  14.5469211  84.8276208
  73.7913416  14.0250732  84.0659671  72.6012454  14.3835356  84.9302892
  78.5831178  13.5504989  92.6350951  79.3694267  13.1324412  92.2841368
  78.8469882  14.4551081  92.8032600  78.7541255  18.9877840  87.3339608
  78.1187088  19.0612466  88.0460513  78.4238662  19.5771438  86.6558687
  83.9839605  13.4880222  93.5383930  84.7164777  12.9179439  93.7721759
  83.2278961  13.1001823  93.9790435  73.2584184  16.4497317  87.0300583
  73.1420442  15.7742220  87.6981667  73.3686444  15.9629691  86.2132736
  75.6015725  15.9107464  90.7347272  75.2373932  15.3838085  91.4460194
  76.4582841  15.5205933  90.5613758  75.2421212  10.9397364  85.7308621
  75.4095614  11.8077600  86.0979092  75.0518381  11.1024645  84.8069910
  77.9996545  19.4014343  97.3974451  77.6997268  20.3039381  97.2890258
  77.6547604  19.1346526  98.2495604  71.4509026  15.8528139  93.4311156
  70.5259523  15.7204353  93.6388847  71.6993440  16.6322359  93.9281098
  81.3993689  11.9196883  95.0771888  80.4910566  11.8512291  94.7830649
  81.3481284  12.3968828  95.9053714  75.2210433  13.3955021  86.7155288
  75.1010058  13.8412072  87.5540768  74.5263021  13.7440339  86.1568826
  68.8117837  15.4961413  94.2654945  68.9410219  15.7495892  95.1794356
  68.1315289  16.0889121  93.9459600  72.9817325  26.1658663  90.3645419
  72.9041354  27.1166488  90.4433899  72.3778968  25.8204535  91.0220345
  80.9195499  13.8676494  87.5435622  81.8313355  14.1003881  87.3683319
  80.4105146  14.4513539  86.9810700  73.7280927  16.1471982 102.5824753
  74.4695611  16.6857026 102.3059576  73.0217912  16.7738270 102.7396305
  79.2036266  18.2901122 101.1796914  79.6119622  17.8483533 100.4351547
  78.4813528  17.7153750 101.4331107  75.5567336  13.2273729  98.5530471
  76.4028532  13.6513142  98.6965120  75.4965974  12.5707353  99.2469034
  79.5265081  18.8502313  94.9349203  78.8973944  19.0148027  94.2325271
  79.1390743  19.2643922  95.7060167  83.4054313  19.7856751  92.2893567
  82.7205351  20.1655652  91.7390600  83.4898162  20.3952077  93.0225515
  80.6605245  17.4316710  98.8888910  80.8722140  18.0748470  98.2123292
  80.6134993  16.5979026  98.4210841  78.2631474  10.0434530  95.7925483
  77.4015953  10.3415784  96.0842220  78.2893908  10.2604929  94.8606515
  75.0793043  18.5876721  92.1999288  75.5431388  18.8664424  91.4103911
  74.8149841  17.6860165  92.0172379  71.9717124  18.1348202  95.1379051
  72.5418481  18.5635471  94.4996536  72.5625236  17.8530787  95.8363237
  74.0161929  14.7099873  89.0088853  74.7185972  15.1620917  89.4762780
  73.6842557  14.0683692  89.6368747  72.4642291  13.3011630 103.3840063
  71.8340951  13.9827911 103.6175460  72.3578378  13.1894711 102.4393201
  67.7587263  12.9683426  94.3105987  66.9686317  13.2240954  93.8346098
  68.2498510  13.7831764  94.4158027  81.7751073  20.3088665  97.0611268
  82.5968516  19.9068852  96.7793949  81.7713475  20.2056899  98.0127384
  69.7102008  13.3328005  91.2689464  68.9133172  13.4446699  91.7872959
  69.4827601  13.6714657  90.4030354  75.5407676  19.8572708  99.2171978
  75.6052108  20.3193116 100.0530150  74.8318600  19.2270073  99.3454288
  66.0424966  13.2213916  96.7420978  66.2933004  14.1060926  97.0078554
  66.5784514  13.0418518  95.9696070  75.2555694  21.5240816  89.0850959
  75.1201368  22.3692352  89.5135806  75.7965506  21.7260093  88.3216892
  68.7085091  19.0416254  89.6578884  69.2209612  19.8359504  89.8084448
  69.3607804  18.3442544  89.5912485  70.5179976  22.1582010  91.7401637
  70.6946604  23.0799975  91.5522621  71.3136809  21.8440429  92.1696017
  69.8032332  14.2046642 101.6163800  69.6885847  13.3031899 101.9170899
  68.9476850  14.4510339 101.2648617  76.8824170  22.1464382 103.2151301
  76.4388024  21.3600761 102.8972205  77.5441384  22.3343533 102.5495191
  71.6411291  23.6760184  97.7411979  72.1918716  23.5477247  96.9688973
  70.8022767  23.9755073  97.3906872  78.9805408  22.4267182 101.2432702
  78.9623883  23.2476063 100.7512971  79.9025328  22.3021258 101.4682843
  75.4378462  19.9411312 102.0856210  75.9706799  19.1799600 101.8555518
  74.9092543  19.6484964 102.8280365  66.6734008  17.3704908  90.4338454
  67.5109230  17.7801917  90.2172162  66.8512275  16.4304350  90.4038648
  78.5698440  15.0379989  86.1222287  78.0545063  15.8084593  86.3610675
  78.2975748  14.3645125  86.7455349  76.1545551   9.8829690  91.1807526
  75.2987147   9.4936540  91.0013164  76.5672503   9.9621650  90.3207311
  77.6844698   7.4176033  95.5799085  77.1809493   7.3806168  94.7666891
  77.9775304   8.3268776  95.6395742  73.9287583   7.5014763  94.5865267
  74.7940580   7.3057571  94.2271157  73.9965092   7.2725114  95.5134624
  83.5432714  17.7912343  88.0575461  82.7662157  17.4523503  87.6130623
  84.2224195  17.7964967  87.3830426  78.3584743  12.9107081  87.9482068
  78.0534879  13.2253230  88.7992212  79.3115185  12.9888501  87.9909401
  76.8031175  19.0697304  89.5975022  76.2752537  18.3350064  89.2848260
  76.3018678  19.8471981  89.3514991  81.7824021  17.2646325  94.7142069
  81.1247695  17.9545586  94.8022197  82.5864420  17.6542757  95.0576055
  71.5349903   9.7316971  91.9581634  72.1093654   9.5092152  91.2254827
  72.1220885   9.8005665  92.7110235  80.5929480  15.6190697  92.7646010
  81.1061361  16.2520689  93.2667720  81.2430704  15.0191893  92.3989370
  71.8619490  11.7621432  85.9777519  71.0256802  12.0996118  86.2986794
  71.7224259  11.6270411  85.0404656  73.8372570   6.6058219  90.6856703
  73.1836983   6.2907237  90.0613318  73.7953044   5.9833960  91.4116526
  74.9483775  16.8877515  82.6009995  74.0410837  16.6566768  82.8001144
  75.4454807  16.0915134  82.7883977  77.8551854  25.5975022  85.5206682
  77.1813553  25.9006718  86.1291639  78.2417676  26.4004102  85.1712139
  77.0710311  13.0940153  95.0104351  76.1532872  13.3155100  94.8526039
  77.4870454  13.1686463  94.1516058  77.8545358  14.4931569  90.1407031
  78.6017177  15.0052966  89.8314153  78.1236948  14.1715621  91.0011425
  76.1272009  16.9890109  87.1233985  75.2183228  16.7049142  87.2206455
  76.1567092  17.4089188  86.2637292  81.3591276  20.5996699  90.8925153
  80.9053603  19.7587609  90.9490344  80.7285243  21.2358097  91.2299933
  80.3024196  11.5288685  92.1225820  79.5646952  11.0166071  92.4536063
  80.5550969  11.0889067  91.3109097  79.8024215  22.4373196  91.8274971
  80.0947190  22.9978253  91.1087337  80.3122836  22.7301757  92.5828130
  66.6960179  14.7095624  91.1049188  66.4984579  14.1164984  90.3800254
  66.1406843  14.4047834  91.8225126  74.6756903  14.6018730  93.2243781
  74.7305512  13.6492566  93.1486257  73.8648105  14.7578169  93.7085079
  75.8248096  18.5298853  84.4622064  75.3867526  17.8134712  84.0027701
  76.5658537  18.7574968  83.9007155  72.6149263  13.2195790  90.9834160
  71.8017128  13.5189960  91.3899352  73.1108257  12.8251479  91.7008642
  74.7657840  23.2153547  92.9168424  74.7234019  23.4414393  91.9876956
  75.6820539  22.9816921  93.0654226  83.9421211  16.8056050  90.5198383
  83.8039110  16.9957646  89.5919572  83.5857430  17.5675433  90.9766434
  72.1063337  10.7914145  96.5995395  72.7462717  10.6502904  95.9018358
  71.2740868  10.5048659  96.2233997  83.9690591  18.8732577  95.5309654
  84.4027097  18.7807866  96.3792708  84.6822171  18.8490078  94.8929670
  72.8823641  20.0916576  92.7130387  73.6764240  19.5966896  92.5112962
  72.1715334  19.5634439  92.3498093  77.7018486  22.4734671  97.0642755
  77.7555508  23.0425608  97.8320471  76.8333267  22.6436556  96.6996792
  69.1906405  14.2359657  88.7890140  68.2603993  14.1744113  89.0060102
  69.2863877  13.7135610  87.9926781  69.1091954  10.7614470  91.3768381
  69.3698771  11.6759803  91.2677542  69.9309126  10.2938913  91.5264994
  70.5816879  12.1752227  98.5467206  71.2539932  11.9669590  97.8979855
  69.7546666  11.9774313  98.1072438  76.6606585  16.6394933  98.6229687
  77.5898645  16.7906093  98.4498654  76.2397615  16.7278954  97.7678333
  75.4594917  20.6645598  96.3928224  75.3206003  20.2964382  97.2654162
  74.6709513  21.1793237  96.2212182  76.0543069  25.7654694  87.7353761
  76.2294825  25.2942737  88.5499383  75.3675857  26.3920460  87.9635021
  77.0100132  20.0427200  93.7817062  76.6749965  20.0027970  94.6774712
  76.5104078  19.3771916  93.3087472  70.9844376  15.4494830  99.3069643
  70.8464174  14.7175069  99.9081182  71.8949300  15.3603730  99.0253831
  79.9459324  17.3883235  84.0554122  79.3288495  16.6630063  83.9587174
  79.4775812  18.1492595  83.7121196  73.6126677  15.1614790  98.7953323
  74.3226295  14.5207982  98.7539941  73.5695985  15.4127685  99.7179504
  72.3255611  12.1480008 100.6148962  71.7892968  11.6970746 101.2670559
  71.7372319  12.2825916  99.8719427  70.6204154  28.9144057  94.5093621
  70.8600753  29.5462581  95.1872639  69.7773351  28.5632097  94.7958980
  71.7357870  11.6068659  83.1775426  70.8587336  11.4857460  82.8137673
  72.2115623  10.8154737  82.9254315  63.2560010  16.3945819  93.2716933
  63.9431050  16.0807549  92.6837948  63.1008139  17.2987183  92.9984184
  68.0594732  11.2836015  97.7001957  67.9752921  10.6761685  96.9652367
  67.2377439  11.7745034  97.7011453  75.1332016  24.7223179  96.9135125
  75.0602188  25.5278151  97.4254429  74.6909409  24.9215145  96.0883146
  74.9221796  23.9594949  90.4237946  74.1389318  24.5016630  90.5176171
  75.6214541  24.4768929  90.8232188  78.2318446   9.7689579  93.0672152
  78.7287146   9.0159541  92.7473222  77.4605428   9.8053895  92.5015361
  77.5930700  24.6210013  99.0693284  78.3058672  25.2557478  98.9969185
  77.1020728  24.7173879  98.2533285  79.3148227  18.5261266  90.6410575
  78.3804505  18.6462729  90.4715280  79.4924895  17.6233733  90.3770585
  74.8153415  11.9106962  92.7943836  74.4451202  11.3578002  93.4824742
  75.3112507  11.3065095  92.2418836  82.7020778  14.3678585  91.1760609
  83.1681230  15.2006577  91.1020912  83.1528279  13.9023567  91.8805868
  72.6442613  22.3704457  99.8898854  73.3452073  23.0040940 100.0428249
  72.1737728  22.7119188  99.1294494  80.7697009  20.7122407  88.1746761
  81.0456853  20.5979001  89.0840635  79.9001508  20.3139891  88.1358934
  80.4443899  14.9249064  97.7151405  79.7915350  15.1724972  97.0603857
  80.8224279  14.1113202  97.3813882  77.4051073  24.9608757  91.8179575
  77.5873468  24.1430413  92.2807327  78.2284059  25.1776450  91.3804465
  77.7393239  23.8876943  89.0794623  78.2681005  23.3769397  88.4664786
  78.0021458  23.5719473  89.9440157  68.2410331  21.9040812  96.8229957
  68.8263768  21.1584500  96.9557861  68.0435170  22.2144769  97.7066621
  71.0948987  24.9392059  91.8392399  70.4259362  25.4238187  91.3556439
  70.9561856  25.1861280  92.7535778  62.8327986  14.4746412  95.5434400
  62.8712086  13.9410003  96.3371518  62.3268279  13.9481618  94.9245377
  75.2354255  26.9735803  98.4375058  75.7872563  27.1367424  99.2024143
  75.5760449  27.5640241  97.7655083  70.2118748   9.3210953  99.0396942
  70.2760075  10.1825784  98.6274340  70.1485869   8.7084954  98.3069301
  66.4636564  13.2010514  88.6188332  66.7590005  12.2921193  88.5655385
  65.5624599  13.1798254  88.2969334  78.3722642  24.9217778  95.4238740
  78.2473782  24.1207518  94.9149685  79.0301734  25.4163972  94.9352710
  69.9930811  11.2766511  94.6015880  69.2717396  11.8902479  94.4623353
  70.7824066  11.8124276  94.5232526  80.4357551  22.7226798  97.0518290
  79.4887886  22.6032150  96.9796617  80.7840324  21.8349296  97.1344551
  68.1924405  10.8824612  88.7427657  67.8637111  10.0021991  88.5602763
  68.5463776  10.8272281  89.6304046  77.4403984  22.5179515  93.2522642
  77.2928947  21.5896222  93.4330212  78.2657478  22.5399605  92.7679717
  71.3066228  11.1697582  89.1103134  71.6462301  11.6983503  88.3881743
  71.7538349  11.5077988  89.8861701  81.0438106  23.3408073  94.3387515
  81.9684653  23.1350935  94.2011966  80.8753409  23.0924475  95.2476857
  74.0009669   9.5534632  98.5606202  73.6606490   8.7542445  98.9626882
  73.2948676   9.8536343  97.9883036  74.6526141   6.6383945  97.0133525
  75.4752210   6.1644423  96.8912416  74.8964205   7.4174429  97.5132212
  73.2934376   9.6672203  87.3096427  74.0142738  10.0453456  86.8060144
  72.6699680  10.3861080  87.4131405  77.4365498  10.3717352  88.2454759
  77.6529113  11.2541990  87.9443588  76.9559566   9.9803566  87.5160401
  72.1764720  13.3303065  94.8225504  72.0309301  13.6443369  95.7149786
  71.6989923  13.9487966  94.2696403  74.0361103  10.3205613  94.8706394
  74.0222672   9.4246707  94.5338692  74.7533531  10.3276277  95.5044680
  75.8887233  10.7542954  96.9159521  75.6305011  11.6760024  96.9143852
  75.3572274  10.3573388  97.6059985  80.8333422  23.8593741  89.6949606
  81.0070300  23.2940163  88.9423459  81.3262313  24.6594636  89.5129096
  66.6510382  15.8708410  97.7613165  66.1063850  16.6468218  97.8933440
  67.5289732  16.2179214  97.6032287  73.4397999   9.2019994  90.1393964
  73.5613910   8.2736640  90.3384851  73.1500041   9.2158680  89.2272279
  76.3089189   6.8874904  93.2760684  76.3310886   6.9514237  92.3212663
  76.7257248   6.0479413  93.4701190  86.6872813  16.6230164  91.3139906
  87.1303959  15.8737489  90.9159029  85.8099324  16.6140300  90.9313638
  81.8208595  23.1760505  86.7946505  82.5159499  23.7967198  87.0133819
  82.1631745  22.3255856  87.0698883  67.4376404  14.9978306 100.6543322
  66.6958140  15.1460942 101.2407953  67.1169148  15.2586572  99.7910072
  83.7200018  20.6260211  88.3233836  84.2451342  20.9647483  87.5983156
  83.6322370  19.6907226  88.1396970  75.3820067  24.5394284 100.4523712
  75.6907193  24.2943431 101.3246412  76.1795549  24.7440923  99.9642582
  75.4040679  26.6932194  92.6829089  74.9645669  26.2008573  93.3761945
  76.1548796  26.1505162  92.4421164  67.8833018  22.8843735  92.6853717
  68.7091037  22.5847507  92.3052360  67.5327070  22.1151357  93.1343505
  72.8514551  22.2370203  94.7551390  72.2294560  21.5740908  94.4553618
  73.5219418  22.2631335  94.0725038  66.0841623  20.8030061  93.6442650
  65.2473531  20.3752236  93.4626652  66.0565268  20.9962505  94.5813442
  72.4128058  20.7874126  88.2309851  72.5616178  21.4709591  87.5776524
  73.2194501  20.7679217  88.7459307  86.2305678  18.0935402  93.7062354
  87.0652569  18.5325206  93.8699914  86.3664807  17.6174055  92.8870600
  70.1680691  16.8139304  89.2370920  69.9226733  15.9101634  89.4351130
  70.3376605  16.8156455  88.2950398  69.4376338  12.5467662  86.7357081
  68.7445583  12.6212017  86.0797117  69.1928090  11.7828005  87.2578598
  75.9123463  23.2822257  85.7021598  75.3397430  23.9012444  85.2492070
  76.4856257  23.8321619  86.2361520  79.1320723  23.5659407  86.8330181
  80.0651396  23.5004969  87.0363056  79.0443936  24.4015674  86.3744713
  81.7608740  22.8825277  83.7934128  81.6822371  22.5485141  84.6869886
  82.5818406  23.3747045  83.7925601  76.2970262  14.6183070  83.0437651
  77.2429366  14.4889278  83.1126069  75.9184507  13.8797732  83.5207079
  74.4813179  12.5433046  82.9792536  73.5744634  12.2466159  83.0555250
  74.7589160  12.2462864  82.1126822  65.3991119  13.8639409  93.4291582
  65.0793904  13.0104718  93.1365956  64.8524547  14.0787988  94.1849550
  69.1771027  16.5801850  97.1461089  69.3957037  17.5118958  97.1649123
  69.5896801  16.2209825  97.9315893  76.0975245   7.0869936  89.1336777
  75.2875973   6.7417021  89.5092023  76.7859661   6.7777479  89.7224389
  73.2511963   9.4019981  83.1204515  74.1131127   9.7274880  83.3800333
  73.4362308   8.6151477  82.6077581  65.2679379  17.4842321  95.3984704
  64.5742851  17.0696274  94.8854658  66.0152370  17.5262857  94.8018123
  81.4044600   8.2748508  90.2639738  80.8243269   8.9333312  89.8817791
  81.1380533   7.4525852  89.8527156  79.8548166   7.6753565  92.4661059
  80.3547945   7.7870100  91.6575377  80.4983774   7.3714618  93.1061867
  67.1816122  17.4160575  93.2750719  67.1586810  17.5148262  92.3232602
  67.4916758  18.2625726  93.5967885  69.8403500  19.4736730  97.3897333
  70.7946753  19.4420672  97.3227265  69.6416023  19.0127353  98.2047559
  70.4302882  18.0437846  99.9568131  71.2495771  18.5381924  99.9802968
  70.7039689  17.1269814  99.9285699  80.1869478  10.4348598  89.3196087
  79.2995333  10.7198249  89.1016281  80.6023467  10.2742361  88.4723363
  68.1953728  25.0156349  94.4067531  68.0608196  24.2556750  93.8405529
  67.7785791  25.7397249  93.9396320  79.3312691  20.1993273  83.4144106
  80.0348542  20.4043275  84.0301762  78.6075340  20.7670035  83.6793190
  80.1610502  15.9503134  89.5346377  80.1045703  16.4071685  88.6954009
  80.7138844  15.1893819  89.3569219  83.9715308  11.7392866  90.3596496
  83.7152242  11.3389502  91.1904704  83.3468176  12.4536660  90.2346635
  71.3522854  25.9125666  94.6185974  71.2355238  26.8571099  94.5164664
  70.5315301  25.6099228  95.0071773  81.2399389  20.6375802  85.4642567
  82.0744993  20.2057000  85.2820041  81.0783732  20.4657816  86.3919461
  80.8945281  17.1407915  86.8298906  80.8394085  16.9752187  85.8887350
  80.2691336  17.8483948  86.9861096  74.2041406   6.6416024  86.4084224
  74.1920076   7.5857864  86.5652495  75.0964828   6.4586170  86.1143685
  72.3777368  26.5653928  97.8341902  73.2804615  26.5977538  98.1508397
  72.1514738  25.6354379  97.8488238  74.1330970  25.3184915  94.4951981
  73.1826601  25.3186776  94.3816353  74.4363457  24.5717649  93.9788016
  89.8683664  31.1545453  95.5597743  90.5062074  31.0352200  94.8561083
  89.7504507  32.1026297  95.6185695  86.6773370  31.1072881  95.4959268
  86.3391882  30.9913946  94.6079803  87.5463138  30.7064046  95.4760274
  82.5360186  32.9608358  91.4856159  81.9725051  32.8698295  90.7172447
  82.4212581  32.1408262  91.9658651  87.1593153  32.2607733 101.4545474
  87.1481794  31.8660531 100.5825977  87.3213793  31.5273806 102.0479245
  80.0824618  34.4559549  94.3240379  80.8745910  34.1150374  93.9086679
  80.3221268  34.5654524  95.2442533  88.1159745  36.6279325  86.7970624
  87.4647724  37.2133406  86.4104638  88.9104107  37.1585520  86.8565661
  82.0415372  33.7168462  87.1957758  82.8146248  33.1697450  87.0570634
  82.3940771  34.5812712  87.4072220  83.8800414  35.0444845 100.4024657
  83.5890280  35.9490476 100.2871324  84.5157399  35.0861372 101.1168727
  84.8056621  32.4221693  96.9926017  85.4020193  32.1977716  96.2782980
  84.8631593  31.6806439  97.5951465  84.3781650  29.8761129  84.8276208
  84.6307170  29.3542650  84.0659671  83.4406209  29.7127274  84.9302892
  89.4224932  28.8796907  92.6350951  90.2088022  28.4616330  92.2841368
  89.6863637  29.7842999  92.8032600  89.5935010  34.3169757  87.3339608
  88.9580843  34.3904384  88.0460513  89.2632416  34.9063356  86.6558687
  94.8233360  28.8172140  93.5383930  95.5558531  28.2471357  93.7721759
  94.0672715  28.4293741  93.9790435  84.0977938  31.7789235  87.0300583
  83.9814196  31.1034138  87.6981667  84.2080198  31.2921608  86.2132736
  86.4409479  31.2399382  90.7347272  86.0767686  30.7130003  91.4460194
  87.2976595  30.8497851  90.5613758  86.0814966  26.2689281  85.7308621
  86.2489369  27.1369518  86.0979092  85.8912135  26.4316563  84.8069910
  88.8390299  34.7306260  97.3974451  88.5391022  35.6331299  97.2890258
  88.4941359  34.4638443  98.2495604  82.2902781  31.1820057  93.4311156
  81.3653277  31.0496271  93.6388847  82.5387194  31.9614276  93.9281098
  92.2387443  27.2488800  95.0771888  91.3304321  27.1804209  94.7830649
  92.1875039  27.7260745  95.9053714  86.0604187  28.7246939  86.7155288
  85.9403812  29.1703990  87.5540768  85.3656775  29.0732256  86.1568826
  79.6511592  30.8253331  94.2654945  79.7803973  31.0787810  95.1794356
  78.9709043  31.4181039  93.9459600  83.8211079  41.4950581  90.3645419
  83.7435109  42.4458406  90.4433899  83.2172723  41.1496453  91.0220345
  91.7589253  29.1968412  87.5435622  92.6707109  29.4295799  87.3683319
  91.2498900  29.7805456  86.9810700  84.5674681  31.4763899 102.5824753
  85.3089366  32.0148943 102.3059576  83.8611667  32.1030188 102.7396305
  90.0430021  33.6193040 101.1796914  90.4513377  33.1775450 100.4351547
  89.3207282  33.0445667 101.4331107  86.3961091  28.5565647  98.5530471
  87.2422286  28.9805060  98.6965120  86.3359729  27.8999271  99.2469034
  90.3658836  34.1794230  94.9349203  89.7367698  34.3439945  94.2325271
  89.9784498  34.5935840  95.7060167  94.2448067  35.1148668  92.2893567
  93.5599106  35.4947570  91.7390600  94.3291917  35.7243995  93.0225515
  91.4998999  32.7608627  98.8888910  91.7115894  33.4040387  98.2123292
  91.4528747  31.9270944  98.4210841  89.1025228  25.3726448  95.7925483
  88.2409707  25.6707702  96.0842220  89.1287663  25.5896847  94.8606515
  85.9186797  33.9168639  92.1999288  86.3825143  34.1956342  91.4103911
  85.6543596  33.0152083  92.0172379  82.8110879  33.4640120  95.1379051
  83.3812236  33.8927388  94.4996536  83.4018990  33.1822705  95.8363237
  84.8555683  30.0391791  89.0088853  85.5579727  30.4912835  89.4762780
  84.5236312  29.3975610  89.6368747  83.3036045  28.6303548 103.3840063
  82.6734706  29.3119828 103.6175460  83.1972133  28.5186629 102.4393201
  78.5981017  28.2975344  94.3105987  77.8080071  28.5532872  93.8346098
  79.0892265  29.1123681  94.4158027  92.6144827  35.6380583  97.0611268
  93.4362271  35.2360770  96.7793949  92.6107230  35.5348817  98.0127384
  80.5495763  28.6619923  91.2689464  79.7526926  28.7738617  91.7872959
  80.3221355  29.0006575  90.4030354  86.3801430  35.1864626  99.2171978
  86.4445863  35.6485033 100.0530150  85.6712354  34.5561991  99.3454288
  76.8818720  28.5505834  96.7420978  77.1326759  29.4352844  97.0078554
  77.4178269  28.3710436  95.9696070  86.0949448  36.8532734  89.0850959
  85.9595123  37.6984269  89.5135806  86.6359261  37.0552011  88.3216892
  79.5478846  34.3708172  89.6578884  80.0603366  35.1651422  89.8084448
  80.2001558  33.6734462  89.5912485  81.3573730  37.4873928  91.7401637
  81.5340359  38.4091893  91.5522621  82.1530564  37.1732347  92.1696017
  80.6426087  29.5338560 101.6163800  80.5279602  28.6323817 101.9170899
  79.7870605  29.7802256 101.2648617  87.7217924  37.4756300 103.2151301
  87.2781779  36.6892679 102.8972205  88.3835138  37.6635451 102.5495191
  82.4805046  39.0052102  97.7411979  83.0312471  38.8769165  96.9688973
  81.6416522  39.3046991  97.3906872  89.8199163  37.7559100 101.2432702
  89.8017638  38.5767981 100.7512971  90.7419083  37.6313175 101.4682843
  86.2772217  35.2703229 102.0856210  86.8100554  34.5091518 101.8555518
  85.7486298  34.9776881 102.8280365  77.5127762  32.6996826  90.4338454
  78.3502984  33.1093834  90.2172162  77.6906030  31.7596268  90.4038648
  89.4092194  30.3671907  86.1222287  88.8938818  31.1376511  86.3610675
  89.1369503  29.6937043  86.7455349  86.9939305  25.2121607  91.1807526
  86.1380902  24.8228458  91.0013164  87.4066257  25.2913568  90.3207311
  88.5238452  22.7467951  95.5799085  88.0203248  22.7098086  94.7666891
  88.8169059  23.6560693  95.6395742  84.7681338  22.8306680  94.5865267
  85.6334335  22.6349489  94.2271157  84.8358847  22.6017032  95.5134624
  94.3826469  33.1204261  88.0575461  93.6055911  32.7815421  87.6130623
  95.0617950  33.1256884  87.3830426  89.1978498  28.2398999  87.9482068
  88.8928633  28.5545148  88.7992212  90.1508940  28.3180419  87.9909401
  87.6424929  34.3989222  89.5975022  87.1146291  33.6641982  89.2848260
  87.1412432  35.1763898  89.3514991  92.6217775  32.5938242  94.7142069
  91.9641450  33.2837504  94.8022197  93.4258175  32.9834674  95.0576055
  82.3743657  25.0608888  91.9581634  82.9487409  24.8384070  91.2254827
  82.9614639  25.1297583  92.7110235  91.4323234  30.9482615  92.7646010
  91.9455116  31.5812607  93.2667720  92.0824458  30.3483811  92.3989370
  82.7013244  27.0913349  85.9777519  81.8650556  27.4288036  86.2986794
  82.5618014  26.9562329  85.0404656  84.6766325  21.9350137  90.6856703
  84.0230737  21.6199154  90.0613318  84.6346799  21.3125878  91.4116526
  85.7877530  32.2169432  82.6009995  84.8804591  31.9858686  82.8001144
  86.2848562  31.4207051  82.7883977  88.6945608  40.9266939  85.5206682
  88.0207307  41.2298636  86.1291639  89.0811430  41.7296020  85.1712139
  87.9104065  28.4232071  95.0104351  86.9926626  28.6447018  94.8526039
  88.3264209  28.4978381  94.1516058  88.6939113  29.8223486  90.1407031
  89.4410932  30.3344884  89.8314153  88.9630702  29.5007539  91.0011425
  86.9665763  32.3182027  87.1233985  86.0576982  32.0341060  87.2206455
  86.9960847  32.7381106  86.2637292  92.1985030  35.9288617  90.8925153
  91.7447358  35.0879526  90.9490344  91.5678997  36.5650015  91.2299933
  91.1417950  26.8580603  92.1225820  90.4040707  26.3457989  92.4536063
  91.3944724  26.4180984  91.3109097  90.6417970  37.7665113  91.8274971
  90.9340944  38.3270170  91.1087337  91.1516590  38.0593674  92.5828130
  77.5353933  30.0387541  91.1049188  77.3378333  29.4456902  90.3800254
  76.9800597  29.7339751  91.8225126  85.5150657  29.9310648  93.2243781
  85.5699267  28.9784484  93.1486257  84.7041859  30.0870087  93.7085079
  86.6641851  33.8590771  84.4622064  86.2261281  33.1426630  84.0027701
  87.4052292  34.0866886  83.9007155  83.4543017  28.5487707  90.9834160
  82.6410883  28.8481878  91.3899352  83.9502011  28.1543396  91.7008642
  85.6051595  38.5445464  92.9168424  85.5627774  38.7706311  91.9876956
  86.5214294  38.3108839  93.0654226  94.7814966  32.1347968  90.5198383
  94.6432864  32.3249564  89.5919572  94.4251184  32.8967351  90.9766434
  82.9457092  26.1206063  96.5995395  83.5856471  25.9794822  95.9018358
  82.1134622  25.8340576  96.2233997  94.8084345  34.2024495  95.5309654
  95.2420852  34.1099784  96.3792708  95.5215926  34.1781995  94.8929670
  83.7217396  35.4208493  92.7130387  84.5157994  34.9258813  92.5112962
  83.0109088  34.8926356  92.3498093  88.5412240  37.8026589  97.0642755
  88.5949262  38.3717525  97.8320471  87.6727022  37.9728474  96.6996792
  80.0300159  29.5651575  88.7890140  79.0997747  29.5036031  89.0060102
  80.1257631  29.0427528  87.9926781  79.9485708  26.0906388  91.3768381
  80.2092525  27.0051721  91.2677542  80.7702881  25.6230830  91.5264994
  81.4210634  27.5044145  98.5467206  82.0933687  27.2961507  97.8979855
  80.5940420  27.3066231  98.1072438  87.5000340  31.9686851  98.6229687
  88.4292400  32.1198011  98.4498654  87.0791370  32.0570872  97.7678333
  86.2988672  35.9937515  96.3928224  86.1599757  35.6256300  97.2654162
  85.5103268  36.5085155  96.2212182  86.8936824  41.0946612  87.7353761
  87.0688579  40.6234655  88.5499383  86.2069612  41.7212378  87.9635021
  87.8493887  35.3719118  93.7817062  87.5143719  35.3319888  94.6774712
  87.3497832  34.7063834  93.3087472  81.8238131  30.7786748  99.3069643
  81.6857929  30.0466987  99.9081182  82.7343054  30.6895648  99.0253831
  90.7853078  32.7175152  84.0554122  90.1682249  31.9921981  83.9587174
  90.3169567  33.4784513  83.7121196  84.4520431  30.4906707  98.7953323
  85.1620050  29.8499900  98.7539941  84.4089740  30.7419602  99.7179504
  83.1649365  27.4771925 100.6148962  82.6286722  27.0262664 101.2670559
  82.5766074  27.6117834  99.8719427  81.4597909  44.2435975  94.5093621
  81.6994507  44.8754499  95.1872639  80.6167105  43.8924015  94.7958980
  82.5751624  26.9360577  83.1775426  81.6981091  26.8149377  82.8137673
  83.0509377  26.1446655  82.9254315  74.0953764  31.7237736  93.2716933
  74.7824804  31.4099466  92.6837948  73.9401893  32.6279101  92.9984184
  78.8988487  26.6127933  97.7001957  78.8146675  26.0053603  96.9652367
  78.0771193  27.1036951  97.7011453  85.9725771  40.0515097  96.9135125
  85.8995942  40.8570069  97.4254429  85.5303164  40.2507063  96.0883146
  85.7615550  39.2886867  90.4237946  84.9783072  39.8308547  90.5176171
  86.4608296  39.8060847  90.8232188  89.0712201  25.0981497  93.0672152
  89.5680900  24.3451459  92.7473222  88.2999182  25.1345813  92.5015361
  88.4324454  39.9501931  99.0693284  89.1452427  40.5849396  98.9969185
  87.9414483  40.0465797  98.2533285  90.1541981  33.8553184  90.6410575
  89.2198260  33.9754646  90.4715280  90.3318650  32.9525650  90.3770585
  85.6547169  27.2398879  92.7943836  85.2844957  26.6869920  93.4824742
  86.1506262  26.6357013  92.2418836  93.5414533  29.6970503  91.1760609
  94.0074985  30.5298495  91.1020912  93.9922033  29.2315485  91.8805868
  83.4836368  37.6996375  99.8898854  84.1845827  38.3332857 100.0428249
  83.0131483  38.0411106  99.1294494  91.6090764  36.0414324  88.1746761
  91.8850608  35.9270919  89.0840635  90.7395262  35.6431809  88.1358934
  91.2837654  30.2540982  97.7151405  90.6309104  30.5016889  97.0603857
  91.6618034  29.4405120  97.3813882  88.2444828  40.2900675  91.8179575
  88.4267222  39.4722331  92.2807327  89.0677814  40.5068367  91.3804465
  88.5786993  39.2168860  89.0794623  89.1074760  38.7061315  88.4664786
  88.8415213  38.9011390  89.9440157  79.0804086  37.2332730  96.8229957
  79.6657523  36.4876417  96.9557861  78.8828924  37.5436686  97.7066621
  81.9342741  40.2683977  91.8392399  81.2653116  40.7530105  91.3556439
  81.7955611  40.5153197  92.7535778  73.6721741  29.8038330  95.5434400
  73.7105840  29.2701920  96.3371518  73.1662033  29.2773535  94.9245377
  86.0748010  42.3027720  98.4375058  86.6266318  42.4659342  99.2024143
  86.4154203  42.8932158  97.7655083  81.0512503  24.6502870  99.0396942
  81.1153829  25.5117701  98.6274340  80.9879623  24.0376872  98.3069301
  80.5264775  26.7226003 102.6869977  81.1536814  26.3403080 103.3007501
  79.6692694  26.5040205 103.0525669  77.3030318  28.5302432  88.6188332
  77.5983759  27.6213110  88.5655385  76.4018354  28.5090171  88.2969334
  89.2116397  40.2509696  95.4238740  89.0867536  39.4499436  94.9149685
  89.8695488  40.7455889  94.9352710  80.8324565  26.6058428  94.6015880
  80.1111151  27.2194396  94.4623353  81.6217821  27.1416193  94.5232526
  91.2751305  38.0518716  97.0518290  90.3281641  37.9324067  96.9796617
  91.6234078  37.1641214  97.1344551  79.0318160  26.2116530  88.7427657
  78.7030866  25.3313909  88.5602763  79.3857530  26.1564198  89.6304046
  88.2797739  37.8471432  93.2522642  88.1322701  36.9188140  93.4330212
  89.1051232  37.8691523  92.7679717  82.1459983  26.4989499  89.1103134
  82.4856055  27.0275421  88.3881743  82.5932103  26.8369906  89.8861701
  91.8831860  38.6699991  94.3387515  92.8078408  38.4642852  94.2011966
  91.7147164  38.4216392  95.2476857  84.8403424  24.8826550  98.5606202
  84.5000244  24.0834363  98.9626882  84.1342430  25.1828261  97.9883036
  85.4919896  21.9675863  97.0133525  86.3145965  21.4936341  96.8912416
  85.7357959  22.7466346  97.5132212  84.1328130  24.9964121  87.3096427
  84.8536493  25.3745374  86.8060144  83.5093434  25.7152998  87.4131405
  88.2759253  25.7009270  88.2454759  88.4922867  26.5833908  87.9443588
  87.7953320  25.3095483  87.5160401  83.0158474  28.6594983  94.8225504
  82.8703055  28.9735286  95.7149786  82.5383678  29.2779883  94.2696403
  84.8754857  25.6497531  94.8706394  84.8616426  24.7538624  94.5338692
  85.5927285  25.6568195  95.5044680  86.7280988  26.0834871  96.9159521
  86.4698766  27.0051942  96.9143852  86.1966028  25.6865306  97.6059985
  91.6727177  39.1885658  89.6949606  91.8464054  38.6232081  88.9423459
  92.1656068  39.9886553  89.5129096  77.4904137  31.2000328  97.7613165
  76.9457605  31.9760136  97.8933440  78.3683486  31.5471132  97.6032287
  84.2791753  24.5311911  90.1393964  84.4007664  23.6028558  90.3384851
  83.9893796  24.5450597  89.2272279  87.1482944  22.2166822  93.2760684
  87.1704640  22.2806155  92.3212663  87.5651003  21.3771331  93.4701190
  97.5266568  31.9522081  91.3139906  97.9697714  31.2029407  90.9159029
  96.6493078  31.9432218  90.9313638  92.6602349  38.5052423  86.7946505
  93.3553254  39.1259116  87.0133819  93.0025499  37.6547774  87.0698883
  78.2770158  30.3270224 100.6543322  77.5351894  30.4752859 101.2407953
  77.9562903  30.5878489  99.7910072  94.5593772  35.9552128  88.3233836
  95.0845096  36.2939401  87.5983156  94.4716125  35.0199144  88.1396970
  86.2213821  39.8686202 100.4523712  86.5300947  39.6235349 101.3246412
  87.0189303  40.0732841  99.9642582  86.2434433  42.0224112  92.6829089
  85.8039423  41.5300490  93.3761945  86.9942550  41.4797079  92.4421164
  78.7226772  38.2135653  92.6853717  79.5484792  37.9139424  92.3052360
  78.3720824  37.4443275  93.1343505  83.6908305  37.5662121  94.7551390
  83.0688315  36.9032826  94.4553618  84.3613172  37.5923253  94.0725038
  76.9235377  36.1321979  93.6442650  76.0867285  35.7044153  93.4626652
  76.8959023  36.3254422  94.5813442  83.2521812  36.1166044  88.2309851
  83.4009932  36.8001509  87.5776524  84.0588256  36.0971134  88.7459307
  97.0699433  33.4227320  93.7062354  97.9046324  33.8617124  93.8699914
  97.2058561  32.9465973  92.8870600  81.0074445  32.1431222  89.2370920
  80.7620487  31.2393552  89.4351130  81.1770360  32.1448372  88.2950398
  80.2770093  27.8759579  86.7357081  79.5839338  27.9503934  86.0797117
  80.0321845  27.1119923  87.2578598  86.7517218  38.6114175  85.7021598
  86.1791185  39.2304362  85.2492070  87.3250011  39.1613536  86.2361520
  89.9714477  38.8951325  86.8330181  90.9045151  38.8296886  87.0363056
  89.8837690  39.7307592  86.3744713  92.6002494  38.2117195  83.7934128
  92.5216126  37.8777059  84.6869886  93.4212161  38.7038963  83.7925601
  87.1364016  29.9474987  83.0437651  88.0823121  29.8181195  83.1126069
  86.7578261  29.2089649  83.5207079  85.3206933  27.8724964  82.9792536
  84.4138389  27.5758076  83.0555250  85.5982914  27.5754782  82.1126822
  76.2384874  29.1931327  93.4291582  75.9187658  28.3396635  93.1365956
  75.6918302  29.4079905  94.1849550  80.0164781  31.9093768  97.1461089
  80.2350791  32.8410876  97.1649123  80.4290555  31.5501743  97.9315893
  86.9368999  22.4161853  89.1336777  86.1269727  22.0708938  89.5092023
  87.6253416  22.1069397  89.7224389  88.8659547  21.4939900  90.7561074
  89.4190586  21.9135354  91.4151097  89.1029634  20.5675648  90.7984030
  84.0905718  24.7311899  83.1204515  84.9524882  25.0566797  83.3800333
  84.2756062  23.9443395  82.6077581  76.1073134  32.8134239  95.3984704
  75.4136605  32.3988191  94.8854658  76.8546125  32.8554775  94.8018123
  92.2438354  23.6040425  90.2639738  91.6637023  24.2625229  89.8817791
  91.9774287  22.7817770  89.8527156  90.6941921  23.0045483  92.4661059
  91.1941699  23.1162018  91.6575377  91.3377529  22.7006536  93.1061867
  78.0209876  32.7452492  93.2750719  77.9980564  32.8440180  92.3232602
  78.3310513  33.5917643  93.5967885  80.6797254  34.8028647  97.3897333
  81.6340508  34.7712590  97.3227265  80.4809778  34.3419271  98.2047559
  81.2696636  33.3729763  99.9568131  82.0889525  33.8673842  99.9802968
  81.5433444  32.4561732  99.9285699  91.0263232  25.7640516  89.3196087
  90.1389087  26.0490166  89.1016281  91.4417222  25.6034279  88.4723363
  79.0347483  40.3448267  94.4067531  78.9001951  39.5848668  93.8405529
  78.6179545  41.0689167  93.9396320  90.1706446  35.5285190  83.4144106
  90.8742296  35.7335193  84.0301762  89.4469095  36.0961952  83.6793190
  91.0004256  31.2795052  89.5346377  90.9439458  31.7363603  88.6954009
  91.5532599  30.5185736  89.3569219  94.8109062  27.0684784  90.3596496
  94.5545996  26.6681419  91.1904704  94.1861930  27.7828578  90.2346635
  82.1916609  41.2417584  94.6185974  82.0748993  42.1863016  94.5164664
  81.3709055  40.9391145  95.0071773  92.0793143  35.9667720  85.4642567
  92.9138747  35.5348918  85.2820041  91.9177486  35.7949733  86.3919461
  91.7339035  32.4699833  86.8298906  91.6787839  32.3044104  85.8887350
  91.1085091  33.1775866  86.9861096  76.5231550  27.7067897 100.6560328
  77.1690414  27.1966851 101.1447553  76.3148702  28.4436579 101.2303753
  85.0435161  21.9707942  86.4084224  85.0313831  22.9149782  86.5652495
  85.9358583  21.7878087  86.1143685  83.2171123  41.8945846  97.8341902
  84.1198370  41.9269456  98.1508397  82.9908493  40.9646297  97.8488238
  84.9724725  40.6476832  94.4951981  84.0220356  40.6478694  94.3816353
  85.2757211  39.9009567  93.9788016  88.8587280  18.5650719  90.6630161
  88.0919676  18.0109205  90.8086843  89.2697985  18.6372587  91.5244313
 100.7077418  46.4837371  95.5597743 101.3455828  46.3644118  94.8561083
 100.5898261  47.4318215  95.6185695  97.5167125  46.4364799  95.4959268
  97.1785636  46.3205864  94.6079803  98.3856893  46.0355964  95.4760274
  93.3753940  48.2900275  91.4856159  92.8118806  48.1990212  90.7172447
  93.2606335  47.4700180  91.9658651  97.9986908  47.5899651 101.4545474
  97.9875548  47.1952449 100.5825977  98.1607547  46.8565723 102.0479245
  90.9218372  49.7851467  94.3240379  91.7139664  49.4442292  93.9086679
  91.1615022  49.8946442  95.2442533  98.9553499  51.9571243  86.7970624
  98.3041479  52.5425323  86.4104638  99.7497862  52.4877438  86.8565661
  92.8809126  49.0460380  87.1957758  93.6540002  48.4989367  87.0570634
  93.2334525  49.9104629  87.4072220  94.7194169  50.3736762 100.4024657
  94.4284035  51.2782393 100.2871324  95.3551153  50.4153290 101.1168727
  95.6450376  47.7513611  96.9926017  96.2413948  47.5269633  96.2782980
  95.7025347  47.0098356  97.5951465  95.2175404  45.2053046  84.8276208
  95.4700925  44.6834568  84.0659671  94.2799963  45.0419192  84.9302892
 100.2618687  44.2088825  92.6350951 101.0481776  43.7908248  92.2841368
 100.5257391  45.1134917  92.8032600 100.4328764  49.6461675  87.3339608
  99.7974597  49.7196301  88.0460513 100.1026171  50.2355274  86.6558687
 105.6627114  44.1464058  93.5383930 106.3952286  43.5763275  93.7721759
 104.9066470  43.7585658  93.9790435  94.9371693  47.1081152  87.0300583
  94.8207951  46.4326056  87.6981667  95.0473953  46.6213526  86.2132736
  97.2803234  46.5691299  90.7347272  96.9161441  46.0421920  91.4460194
  98.1370350  46.1789768  90.5613758  96.9208721  41.5981199  85.7308621
  97.0883123  42.4661435  86.0979092  96.7305890  41.7608481  84.8069910
  99.6784054  50.0598178  97.3974451  99.3784777  50.9623217  97.2890258
  99.3335113  49.7930361  98.2495604  93.1296535  46.5111975  93.4311156
  92.2047032  46.3788189  93.6388847  93.3780949  47.2906194  93.9281098
 103.0781198  42.5780718  95.0771888 102.1698075  42.5096127  94.7830649
 103.0268793  43.0552663  95.9053714  96.8997942  44.0538856  86.7155288
  96.7797567  44.4995907  87.5540768  96.2050530  44.4024174  86.1568826
  90.4905346  46.1545248  94.2654945  90.6197728  46.4079727  95.1794356
  89.8102798  46.7472956  93.9459600  94.6604834  56.8242498  90.3645419
  94.5828863  57.7750323  90.4433899  94.0566477  56.4788371  91.0220345
 102.5983008  44.5260330  87.5435622 103.5100864  44.7587716  87.3683319
 102.0892655  45.1097374  86.9810700  95.4068436  46.8055817 102.5824753
  96.1483120  47.3440861 102.3059576  94.7005421  47.4322106 102.7396305
 100.8823775  48.9484958 101.1796914 101.2907131  48.5067368 100.4351547
 100.1601037  48.3737585 101.4331107  97.2354845  43.8857564  98.5530471
  98.0816041  44.3096978  98.6965120  97.1753483  43.2291189  99.2469034
 101.2052590  49.5086148  94.9349203 100.5761452  49.6731862  94.2325271
 100.8178252  49.9227758  95.7060167 105.0841822  50.4440586  92.2893567
 104.3992860  50.8239487  91.7390600 105.1685671  51.0535913  93.0225515
 102.3392754  48.0900545  98.8888910 102.5509649  48.7332305  98.2123292
 102.2922502  47.2562862  98.4210841  99.9418983  40.7018366  95.7925483
  99.0803462  40.9999619  96.0842220  99.9681417  40.9188765  94.8606515
  96.7580552  49.2460556  92.1999288  97.2218897  49.5248259  91.4103911
  96.4937350  48.3444001  92.0172379  93.6504633  48.7932038  95.1379051
  94.2205990  49.2219306  94.4996536  94.2412745  48.5114622  95.8363237
  95.6949438  45.3683709  89.0088853  96.3973481  45.8204752  89.4762780
  95.3630066  44.7267527  89.6368747  94.1429800  43.9595465 103.3840063
  93.5128460  44.6411746 103.6175460  94.0365887  43.8478547 102.4393201
  89.4374772  43.6267261  94.3105987  88.6473826  43.8824790  93.8346098
  89.9286019  44.4415599  94.4158027 103.4538582  50.9672500  97.0611268
 104.2756025  50.5652688  96.7793949 103.4500984  50.8640735  98.0127384
  91.3889517  43.9911840  91.2689464  90.5920681  44.1030535  91.7872959
  91.1615110  44.3298493  90.4030354  97.2195185  50.5156544  99.2171978
  97.2839617  50.9776951 100.0530150  96.5106109  49.8853909  99.3454288
  87.7212475  43.8797752  96.7420978  87.9720513  44.7644762  97.0078554
  88.2572023  43.7002353  95.9696070  96.9343203  52.1824651  89.0850959
  96.7988877  53.0276187  89.5135806  97.4753015  52.3843929  88.3216892
  90.3872600  49.7000089  89.6578884  90.8997121  50.4943339  89.8084448
  91.0395313  49.0026380  89.5912485  92.1967485  52.8165846  91.7401637
  92.3734113  53.7383810  91.5522621  92.9924318  52.5024265  92.1696017
  91.4819841  44.8630477 101.6163800  91.3673356  43.9615735 101.9170899
  90.6264359  45.1094174 101.2648617  98.5611679  52.8048218 103.2151301
  98.1175533  52.0184596 102.8972205  99.2228893  52.9927368 102.5495191
  93.3198800  54.3344019  97.7411979  93.8706225  54.2061083  96.9688973
  92.4810276  54.6338908  97.3906872 100.6592917  53.0851018 101.2432702
 100.6411392  53.9059899 100.7512971 101.5812837  52.9605093 101.4682843
  97.1165971  50.5995147 102.0856210  97.6494308  49.8383435 101.8555518
  96.5880052  50.3068799 102.8280365  88.3521517  48.0288744  90.4338454
  89.1896739  48.4385752  90.2172162  88.5299784  47.0888186  90.4038648
 100.2485949  45.6963824  86.1222287  99.7332572  46.4668429  86.3610675
  99.9763257  45.0228960  86.7455349  97.8333060  40.5413525  91.1807526
  96.9774656  40.1520375  91.0013164  98.2460012  40.6205486  90.3207311
  99.3632207  38.0759868  95.5799085  98.8597002  38.0390003  94.7666891
  99.6562813  38.9852611  95.6395742  95.6075092  38.1598598  94.5865267
  96.4728089  37.9641407  94.2271157  95.6752601  37.9308950  95.5134624
 105.2220223  48.4496179  88.0575461 104.4449666  48.1107338  87.6130623
 105.9011704  48.4548802  87.3830426 100.0372252  43.5690916  87.9482068
  99.7322388  43.8837065  88.7992212 100.9902694  43.6472336  87.9909401
  98.4818684  49.7281140  89.5975022  97.9540045  48.9933899  89.2848260
  97.9806187  50.5055816  89.3514991 103.4611530  47.9230160  94.7142069
 102.8035204  48.6129421  94.8022197 104.2651929  48.3126592  95.0576055
  93.2137412  40.3900806  91.9581634  93.7881163  40.1675987  91.2254827
  93.8008394  40.4589500  92.7110235 102.2716989  46.2774533  92.7646010
 102.7848870  46.9104525  93.2667720 102.9218213  45.6775728  92.3989370
  93.5406999  42.4205267  85.9777519  92.7044311  42.7579953  86.2986794
  93.4011768  42.2854247  85.0404656  95.5160079  37.2642055  90.6856703
  94.8624492  36.9491072  90.0613318  95.4740553  36.6417795  91.4116526
  96.6271284  47.5461350  82.6009995  95.7198346  47.3150603  82.8001144
  97.1242316  46.7498969  82.7883977  99.5339363  56.2558857  85.5206682
  98.8601062  56.5590554  86.1291639  99.9205185  57.0587937  85.1712139
  98.7497820  43.7523988  95.0104351  97.8320381  43.9738935  94.8526039
  99.1657963  43.8270299  94.1516058  99.5332867  45.1515404  90.1407031
 100.2804686  45.6636801  89.8314153  99.8024457  44.8299457  91.0011425
  97.8059518  47.6473945  87.1233985  96.8970737  47.3632978  87.2206455
  97.8354601  48.0673023  86.2637292 103.0378785  51.2580534  90.8925153
 102.5841112  50.4171444  90.9490344 102.4072752  51.8941933  91.2299933
 101.9811705  42.1872520  92.1225820 101.2434461  41.6749906  92.4536063
 102.2338478  41.7472902  91.3109097 101.4811724  53.0957031  91.8274971
 101.7734699  53.6562088  91.1087337 101.9910345  53.3885592  92.5828130
  88.3747688  45.3679459  91.1049188  88.1772088  44.7748820  90.3800254
  87.8194352  45.0631669  91.8225126  96.3544412  45.2602565  93.2243781
  96.4093021  44.3076402  93.1486257  95.5435614  45.4162004  93.7085079
  97.5035605  49.1882688  84.4622064  97.0655035  48.4718547  84.0027701
  98.2446046  49.4158803  83.9007155  94.2936771  43.8779625  90.9834160
  93.4804637  44.1773796  91.3899352  94.7895766  43.4835314  91.7008642
  96.4445349  53.8737382  92.9168424  96.4021528  54.0998228  91.9876956
  97.3608048  53.6400757  93.0654226 105.6208720  47.4639885  90.5198383
 105.4826619  47.6541481  89.5919572 105.2644939  48.2259268  90.9766434
  93.7850846  41.4497981  96.5995395  94.4250226  41.3086740  95.9018358
  92.9528377  41.1632494  96.2233997 105.6478100  49.5316412  95.5309654
 106.0814606  49.4391702  96.3792708 106.3609680  49.5073913  94.8929670
  94.5611150  50.7500411  92.7130387  95.3551749  50.2550731  92.5112962
  93.8502843  50.2218274  92.3498093  99.3805995  53.1318507  97.0642755
  99.4343017  53.7009443  97.8320471  98.5120776  53.3020392  96.6996792
  90.8693914  44.8943493  88.7890140  89.9391502  44.8327948  89.0060102
  90.9651386  44.3719446  87.9926781  90.7879463  41.4198306  91.3768381
  91.0486280  42.3343639  91.2677542  91.6096635  40.9522748  91.5264994
  92.2604388  42.8336063  98.5467206  92.9327441  42.6253425  97.8979855
  91.4334175  42.6358149  98.1072438  98.3394094  47.2978769  98.6229687
  99.2686154  47.4489928  98.4498654  97.9185124  47.3862789  97.7678333
  97.1382426  51.3229433  96.3928224  96.9993512  50.9548217  97.2654162
  96.3497022  51.8377072  96.2212182  97.7330578  56.4238529  87.7353761
  97.9082334  55.9526573  88.5499383  97.0463366  57.0504296  87.9635021
  98.6887641  50.7011036  93.7817062  98.3537474  50.6611806  94.6774712
  98.1891587  50.0355752  93.3087472  92.6631885  46.1078666  99.3069643
  92.5251683  45.3758905  99.9081182  93.5736809  46.0187566  99.0253831
 101.6246833  48.0467070  84.0554122 101.0076004  47.3213898  83.9587174
 101.1563321  48.8076430  83.7121196  95.2914186  45.8198625  98.7953323
  96.0013804  45.1791817  98.7539941  95.2483494  46.0711520  99.7179504
  94.0043120  42.8063843 100.6148962  93.4680477  42.3554581 101.2670559
  93.4159828  42.9409752  99.8719427  92.2991663  59.5727892  94.5093621
  92.5388262  60.2046416  95.1872639  91.4560860  59.2215932  94.7958980
  93.4145379  42.2652494  83.1775426  92.5374845  42.1441295  82.8137673
  93.8903132  41.4738573  82.9254315  84.9347519  47.0529654  93.2716933
  85.6218559  46.7391384  92.6837948  84.7795648  47.9571019  92.9984184
  89.7382241  41.9419851  97.7001957  89.6540430  41.3345520  96.9652367
  88.9164948  42.4328869  97.7011453  96.8119525  55.3807015  96.9135125
  96.7389697  56.1861986  97.4254429  96.3696918  55.5798981  96.0883146
  96.6009305  54.6178785  90.4237946  95.8176827  55.1600465  90.5176171
  97.3002050  55.1352764  90.8232188  99.9105955  40.4273414  93.0672152
 100.4074655  39.6743377  92.7473222  99.1392937  40.4637731  92.5015361
  99.2718209  55.2793849  99.0693284  99.9846181  55.9141314  98.9969185
  98.7808237  55.3757715  98.2533285 100.9935736  49.1845101  90.6410575
 100.0592014  49.3046564  90.4715280 101.1712404  48.2817568  90.3770585
  96.4940924  42.5690797  92.7943836  96.1238711  42.0161838  93.4824742
  96.9900016  41.9648931  92.2418836 104.3808287  45.0262421  91.1760609
 104.8468739  45.8590412  91.1020912 104.8315788  44.5607402  91.8805868
  94.3230122  53.0288292  99.8898854  95.0239582  53.6624775 100.0428249
  93.8525237  53.3703024  99.1294494 102.4484518  51.3706242  88.1746761
 102.7244362  51.2562837  89.0840635 101.5789017  50.9723727  88.1358934
 102.1231408  45.5832900  97.7151405 101.4702859  45.8308807  97.0603857
 102.5011788  44.7697038  97.3813882  99.0838582  55.6192593  91.8179575
  99.2660977  54.8014249  92.2807327  99.9071568  55.8360285  91.3804465
  99.4180748  54.5460778  89.0794623  99.9468514  54.0353233  88.4664786
  99.6808967  54.2303308  89.9440157  89.9197840  52.5624647  96.8229957
  90.5051277  51.8168335  96.9557861  89.7222679  52.8728604  97.7066621
  92.7736496  55.5975895  91.8392399  92.1046871  56.0822022  91.3556439
  92.6349365  55.8445115  92.7535778  84.5115495  45.1330247  95.5434400
  84.5499595  44.5993838  96.3371518  84.0055788  44.6065453  94.9245377
  96.9141764  57.6319638  98.4375058  97.4660072  57.7951260  99.2024143
  97.2547958  58.2224076  97.7655083  91.8906257  39.9794788  99.0396942
  91.9547584  40.8409619  98.6274340  91.8273378  39.3668790  98.3069301
  91.3658530  42.0517920 102.6869977  91.9930569  41.6694998 103.3007501
  90.5086449  41.8332122 103.0525669  88.1424073  43.8594350  88.6188332
  88.4377514  42.9505028  88.5655385  87.2412108  43.8382089  88.2969334
 100.0510151  55.5801614  95.4238740  99.9261291  54.7791354  94.9149685
 100.7089243  56.0747807  94.9352710  91.6718320  41.9350346  94.6015880
  90.9504905  42.5486314  94.4623353  92.4611575  42.4708111  94.5232526
 102.1145060  53.3810634  97.0518290 101.1675395  53.2615985  96.9796617
 102.4627833  52.4933132  97.1344551  89.8711914  41.5408447  88.7427657
  89.5424620  40.6605826  88.5602763  90.2251285  41.4856116  89.6304046
  99.1191493  53.1763350  93.2522642  98.9716456  52.2480057  93.4330212
  99.9444987  53.1983441  92.7679717  92.9853737  41.8281417  89.1103134
  93.3249810  42.3567338  88.3881743  93.4325858  42.1661823  89.8861701
 102.7225615  53.9991909  94.3387515 103.6472162  53.7934770  94.2011966
 102.5540918  53.7508310  95.2476857  95.6797178  40.2118468  98.5606202
  95.3393999  39.4126281  98.9626882  94.9736185  40.5120179  97.9883036
  96.3313650  37.2967780  97.0133525  97.1539719  36.8228258  96.8912416
  96.5751714  38.0758264  97.5132212  94.9721885  40.3256039  87.3096427
  95.6930247  40.7037291  86.8060144  94.3487189  41.0444915  87.4131405
  99.1153007  41.0301188  88.2454759  99.3316622  41.9125825  87.9443588
  98.6347075  40.6387401  87.5160401  93.8552229  43.9886901  94.8225504
  93.7096810  44.3027204  95.7149786  93.3777432  44.6071801  94.2696403
  95.7148612  40.9789449  94.8706394  95.7010180  40.0830542  94.5338692
  96.4321040  40.9860113  95.5044680  97.5674742  41.4126789  96.9159521
  97.3092520  42.3343860  96.9143852  97.0359783  41.0157224  97.6059985
 102.5120931  54.5177576  89.6949606 102.6857809  53.9523999  88.9423459
 103.0049822  55.3178471  89.5129096  88.3297891  46.5292245  97.7613165
  87.7851359  47.3052053  97.8933440  89.2077241  46.8763050  97.6032287
  95.1185508  39.8603829  90.1393964  95.2401419  38.9320475  90.3384851
  94.8287550  39.8742515  89.2272279  97.9876698  37.5458740  93.2760684
  98.0098395  37.6098073  92.3212663  98.4044757  36.7063248  93.4701190
 103.4996104  53.8344341  86.7946505 104.1947008  54.4551033  87.0133819
 103.8419254  52.9839692  87.0698883  89.1163913  45.6562142 100.6543322
  88.3745649  45.8044777 101.2407953  88.7956657  45.9170407  99.7910072
 105.3987527  51.2844046  88.3233836 105.9238851  51.6231319  87.5983156
 105.3109879  50.3491061  88.1396970  97.0607576  55.1978120 100.4523712
  97.3694702  54.9527267 101.3246412  97.8583058  55.4024758  99.9642582
  97.0828188  57.3516029  92.6829089  96.6433178  56.8592408  93.3761945
  97.8336305  56.8088997  92.4421164  89.5620527  53.5427570  92.6853717
  90.3878546  53.2431342  92.3052360  89.2114579  52.7735193  93.1343505
  94.5302060  52.8954038  94.7551390  93.9082069  52.2324743  94.4553618
  95.2006927  52.9215170  94.0725038  87.7629132  51.4613897  93.6442650
  86.9261040  51.0336071  93.4626652  87.7352777  51.6546340  94.5813442
  94.0915567  51.4457962  88.2309851  94.2403687  52.1293426  87.5776524
  94.8982010  51.4263052  88.7459307  91.8468200  47.4723139  89.2370920
  91.6014242  46.5685469  89.4351130  92.0164114  47.4740290  88.2950398
  91.1163847  43.2051497  86.7357081  90.4233092  43.2795852  86.0797117
  90.8715599  42.4411841  87.2578598  97.5910972  53.9406092  85.7021598
  97.0184939  54.5596279  85.2492070  98.1643766  54.4905454  86.2361520
 100.8108232  54.2243242  86.8330181 101.7438905  54.1588804  87.0363056
 100.7231445  55.0599509  86.3744713 103.4396249  53.5409113  83.7934128
 103.3609880  53.2068976  84.6869886 104.2605915  54.0330881  83.7925601
  97.9757771  45.2766905  83.0437651  98.9216875  45.1473113  83.1126069
  97.5972016  44.5381567  83.5207079  96.1600688  43.2016881  82.9792536
  95.2532143  42.9049994  83.0555250  96.4376669  42.9046699  82.1126822
  87.0778628  44.5223245  93.4291582  86.7581413  43.6688553  93.1365956
  86.5312056  44.7371823  94.1849550  90.8558536  47.2385686  97.1461089
  91.0744546  48.1702794  97.1649123  91.2684310  46.8793660  97.9315893
  97.7762754  37.7453771  89.1336777  96.9663482  37.4000856  89.5092023
  98.4647170  37.4361315  89.7224389  99.7053302  36.8231818  90.7561074
 100.2584340  37.2427271  91.4151097  99.9423388  35.8967566  90.7984030
  94.9299472  40.0603817  83.1204515  95.7918636  40.3858715  83.3800333
  95.1149817  39.2735313  82.6077581  86.9466888  48.1426156  95.3984704
  86.2530360  47.7280109  94.8854658  87.6939879  48.1846693  94.8018123
 103.0832109  38.9332343  90.2639738 102.5030778  39.5917147  89.8817791
 102.8168042  38.1109688  89.8527156 101.5335675  38.3337401  92.4661059
 102.0335454  38.4453935  91.6575377 102.1771283  38.0298454  93.1061867
  88.8603631  48.0744410  93.2750719  88.8374319  48.1732097  92.3232602
  89.1704267  48.9209561  93.5967885  91.5191009  50.1320565  97.3897333
  92.4734262  50.1004507  97.3227265  91.3203532  49.6711189  98.2047559
  92.1090391  48.7021681  99.9568131  92.9283280  49.1965760  99.9802968
  92.3827198  47.7853649  99.9285699 101.8656987  41.0932433  89.3196087
 100.9782842  41.3782084  89.1016281 102.2810976  40.9326197  88.4723363
  89.8741237  55.6740185  94.4067531  89.7395705  54.9140585  93.8405529
  89.4573300  56.3981084  93.9396320 101.0100200  50.8577108  83.4144106
 101.7136051  51.0627111  84.0301762 100.2862849  51.4253870  83.6793190
 101.8398011  46.6086969  89.5346377 101.7833212  47.0655521  88.6954009
 102.3926353  45.8477654  89.3569219 105.6502817  42.3976701  90.3596496
 105.3939751  41.9973337  91.1904704 105.0255685  43.1120495  90.2346635
  93.0310363  56.5709502  94.6185974  92.9142747  57.5154934  94.5164664
  92.2102810  56.2683063  95.0071773 102.9186898  51.2959637  85.4642567
 103.7532502  50.8640836  85.2820041 102.7571241  51.1241651  86.3919461
 102.5732790  47.7991751  86.8298906 102.5181594  47.6336022  85.8887350
 101.9478845  48.5067784  86.9861096  87.3625305  43.0359815 100.6560328
  88.0084169  42.5258769 101.1447553  87.1542456  43.7728497 101.2303753
  95.8828915  37.2999860  86.4084224  95.8707585  38.2441700  86.5652495
  96.7752337  37.1170005  86.1143685  94.0564877  57.2237763  97.8341902
  94.9592124  57.2561374  98.1508397  93.8302247  56.2938214  97.8488238
  95.8118479  55.9768750  94.4951981  94.8614110  55.9770612  94.3816353
  96.1150966  55.2301485  93.9788016  99.6981035  33.8942636  90.6630161
  98.9313431  33.3401123  90.8086843 100.1091740  33.9664505  91.5244313
 104.2147695  63.6192193  91.4856159 103.6512560  63.5282130  90.7172447
 104.1000090  62.7992097  91.9658651 103.7202881  64.3752298  87.1957758
 104.4933757  63.8281285  87.0570634 104.0728280  65.2396547  87.4072220
 106.0569159  60.5344964  84.8276208 106.3094679  60.0126485  84.0659671
 105.1193718  60.3711109  84.9302892 105.7765447  62.4373070  87.0300583
 105.6601705  61.7617973  87.6981667 105.8867707  61.9505444  86.2132736
 107.7602475  56.9273117  85.7308621 107.9276878  57.7953353  86.0979092
 107.5699644  57.0900398  84.8069910 103.9690290  61.8403892  93.4311156
 103.0440786  61.7080107  93.6388847 104.2174703  62.6198112  93.9281098
 107.7391696  59.3830774  86.7155288 107.6191321  59.8287825  87.5540768
 107.0444284  59.7316092  86.1568826 101.3299101  61.4837166  94.2654945
 101.4591482  61.7371645  95.1794356 100.6496552  62.0764874  93.9459600
 107.5974306  64.5752474  92.1999288 108.0612652  64.8540177  91.4103911
 107.3331105  63.6735918  92.0172379 106.5343192  60.6975626  89.0088853
 107.2367236  61.1496670  89.4762780 106.2023821  60.0559445  89.6368747
 100.2768526  58.9559179  94.3105987  99.4867580  59.2116707  93.8346098
 100.7679774  59.7707517  94.4158027 102.2283272  59.3203758  91.2689464
 101.4314435  59.4322452  91.7872959 102.0008864  59.6590410  90.4030354
  98.5606229  59.2089669  96.7420978  98.8114268  60.0936679  97.0078554
  99.0965778  59.0294271  95.9696070 107.7736957  67.5116569  89.0850959
 107.6382632  68.3568105  89.5135806 108.3146770  67.7135847  88.3216892
 101.2266354  65.0292007  89.6578884 101.7390875  65.8235257  89.8084448
 101.8789067  64.3318297  89.5912485 103.0361239  68.1457763  91.7401637
 103.2127868  69.0675728  91.5522621 103.8318073  67.8316182  92.1696017
  99.1915271  63.3580661  90.4338454 100.0290493  63.7677670  90.2172162
  99.3693539  62.4180103  90.4038648 106.4468847  53.4890516  94.5865267
 107.3121844  53.2933324  94.2271157 106.5146356  53.2600867  95.5134624
 104.0531166  55.7192724  91.9581634 104.6274918  55.4967905  91.2254827
 104.6402148  55.7881418  92.7110235 104.3800753  57.7497185  85.9777519
 103.5438065  58.0871871  86.2986794 104.2405523  57.6146164  85.0404656
 106.3553834  52.5933972  90.6856703 105.7018246  52.2782990  90.0613318
 106.3134308  51.9709713  91.4116526 107.4665039  62.8753268  82.6009995
 106.5592100  62.6442521  82.8001144 107.9636071  62.0790887  82.7883977
  99.2141442  60.6971377  91.1049188  99.0165842  60.1040737  90.3800254
  98.6588106  60.3923587  91.8225126 107.1938166  60.5894483  93.2243781
 107.2486776  59.6368319  93.1486257 106.3829368  60.7453922  93.7085079
 105.1330526  59.2071543  90.9834160 104.3198392  59.5065713  91.3899352
 105.6289520  58.8127232  91.7008642 104.6244601  56.7789898  96.5995395
 105.2643980  56.6378657  95.9018358 103.7922131  56.4924412  96.2233997
 105.4004905  66.0792329  92.7130387 106.1945503  65.5842649  92.5112962
 104.6896597  65.5510192  92.3498093 101.7087668  60.2235410  88.7890140
 100.7785256  60.1619866  89.0060102 101.8045140  59.7011363  87.9926781
 101.6273217  56.7490223  91.3768381 101.8880034  57.6635557  91.2677542
 102.4490389  56.2814666  91.5264994 104.2539133  57.5944412  83.1775426
 103.3768600  57.4733213  82.8137673 104.7296886  56.8030490  82.9254315
  95.7741273  62.3821572  93.2716933  96.4612313  62.0683302  92.6837948
  95.6189402  63.2862936  92.9984184 100.5775996  57.2711768  97.7001957
 100.4934184  56.6637438  96.9652367  99.7558702  57.7620787  97.7011453
 107.3334678  57.8982715  92.7943836 106.9632466  57.3453755  93.4824742
 107.8293771  57.2940848  92.2418836  95.3509250  60.4622165  95.5434400
  95.3893349  59.9285756  96.3371518  94.8449542  59.9357371  94.9245377
 102.7300012  55.3086706  99.0396942 102.7941338  56.1701537  98.6274340
 102.6667132  54.6960707  98.3069301  98.9817827  59.1886267  88.6188332
  99.2771268  58.2796946  88.5655385  98.0805863  59.1674007  88.2969334
 102.5112074  57.2642264  94.6015880 101.7898660  57.8778232  94.4623353
 103.3005330  57.8000029  94.5232526 100.7105669  56.8700365  88.7427657
 100.3818375  55.9897744  88.5602763 101.0645039  56.8148034  89.6304046
 103.8247492  57.1573335  89.1103134 104.1643564  57.6859256  88.3881743
 104.2719612  57.4953741  89.8861701 107.1707405  52.6259698  97.0133525
 107.9933474  52.1520176  96.8912416 107.4145468  53.4050182  97.5132212
 105.8115639  55.6547956  87.3096427 106.5324002  56.0329209  86.8060144
 105.1880943  56.3736833  87.4131405 104.6945983  59.3178819  94.8225504
 104.5490564  59.6319122  95.7149786 104.2171187  59.9363719  94.2696403
 106.5542366  56.3081367  94.8706394 106.5403935  55.4122460  94.5338692
 107.2714794  56.3152030  95.5044680 105.9579262  55.1895747  90.1393964
 106.0795173  54.2612393  90.3384851 105.6681305  55.2034433  89.2272279
 100.4014281  68.8719488  92.6853717 101.2272301  68.5723260  92.3052360
 100.0508333  68.1027110  93.1343505  98.6022886  66.7905814  93.6442650
  97.7654794  66.3627989  93.4626652  98.5746532  66.9838258  94.5813442
 104.9309321  66.7749879  88.2309851 105.0797441  67.4585344  87.5776524
 105.7375765  66.7554970  88.7459307 102.6861954  62.8015057  89.2370920
 102.4407996  61.8977387  89.4351130 102.8557869  62.8032208  88.2950398
 101.9557602  58.5343415  86.7357081 101.2626847  58.6087770  86.0797117
 101.7109354  57.7703758  87.2578598 106.9994442  58.5308799  82.9792536
 106.0925898  58.2341912  83.0555250 107.2770423  58.2338617  82.1126822
  97.9172383  59.8515162  93.4291582  97.5975167  58.9980471  93.1365956
  97.3705811  60.0663741  94.1849550 105.7693227  55.3895734  83.1204515
 106.6312391  55.7150633  83.3800333 105.9543571  54.6027230  82.6077581
  97.7860643  63.4718074  95.3984704  97.0924114  63.0572027  94.8854658
  98.5333634  63.5138610  94.8018123  99.6997385  63.4036328  93.2750719
  99.6768073  63.5024015  92.3232602 100.0098022  64.2501479  93.5967885
 106.7222670  52.6291777  86.4084224 106.7101340  53.5733617  86.5652495
 107.6146092  52.4461923  86.1143685  70.6204156   5.9206179  81.2338928
  70.8600754   6.5524704  81.9117946  69.7773352   5.5694220  81.5204287
  82.5360187   9.9670480  78.2101466  81.9725052   9.8760417  77.4417753
  82.4212582   9.1470385  78.6903958  80.0824619  11.4621672  81.0485686
  80.8745911  11.1212496  80.6331985  80.3221269  11.5716647  81.9687839
  88.1159746  13.6341448  73.5215930  87.4647726  14.2195528  73.1349944
  88.9104109  14.1647643  73.5810968  82.0415373  10.7230585  73.9203065
  82.8146249  10.1759572  73.7815941  82.3940772  11.5874834  74.1317526
  83.8800416  12.0506967  87.1269964  83.5890282  12.9552598  87.0116630
  84.5157400  12.0923495  87.8414034  84.8056622   9.4283816  83.7171324
  85.4020195   9.2039838  83.0028287  84.8631594   8.6868561  84.3196772
  89.5935011  11.3231880  74.0584915  88.9580844  11.3966506  74.7705819
  89.2632417  11.9125479  73.3803994  84.0977940   8.7851357  73.7545890
  83.9814198   8.1096260  74.4226974  84.2080199   8.2983731  72.9378043
  88.8390301  11.7368383  84.1219758  88.5391024  12.6393422  84.0135565
  88.4941360  11.4700566  84.9740911  82.2902782   8.1882180  80.1556462
  81.3653279   8.0558394  80.3634154  82.5387195   8.9676399  80.6526405
  79.6511593   7.8315453  80.9900251  79.7803974   8.0849932  81.9039663
  78.9709044   8.4243161  80.6704906  83.8211080  18.5012703  77.0890726
  83.7435110  19.4520528  77.1679206  83.2172724  18.1558576  77.7465652
  84.5674683   8.4826022  89.3070059  85.3089367   9.0211066  89.0304883
  83.8611668   9.1092311  89.4641611  90.0430022  10.6255162  87.9042221
  90.4513378  10.1837573  87.1596853  89.3207284  10.0507790  88.1576414
  90.3658837  11.1856353  81.6594510  89.7367699  11.3502067  80.9570578
  89.9784499  11.5997963  82.4305474  94.2448069  12.1210791  79.0138874
  93.5599107  12.5009692  78.4635907  94.3291918  12.7306118  79.7470821
  85.9186799  10.9230761  78.9244595  86.3825144  11.2018464  78.1349217
  85.6543597  10.0214206  78.7417686  82.8110880  10.4702243  81.8624358
  83.3812237  10.8989511  81.2241843  83.4018992  10.1884827  82.5608544
  92.6144828  12.6442705  83.7856574  93.4362272  12.2422893  83.5039256
  92.6107231  12.5410940  84.7372690  86.3801432  12.1926749  85.9417285
  86.4445864  12.6547156  86.7775457  85.6712356  11.5624114  86.0699595
  76.8818722   5.5567957  83.4666284  77.1326760   6.4414967  83.7323860
  77.4178270   5.3772558  82.6941376  86.0949449  13.8594856  75.8096265
  85.9595124  14.7046392  76.2381113  86.6359262  14.0614134  75.0462199
  79.5478847  11.3770294  76.3824190  80.0603367  12.1713544  76.5329755
  80.2001560  10.6796585  76.3157792  81.3573731  14.4936050  78.4646944
  81.5340360  15.4154015  78.2767927  82.1530565  14.1794470  78.8941323
  87.7217926  14.4818423  89.9396607  87.2781780  13.6954801  89.6217512
  88.3835139  14.6697573  89.2740498  82.4805047  16.0114224  84.4657286
  83.0312472  15.8831288  83.6934280  81.6416523  16.3109113  84.1152179
  89.8199164  14.7621223  87.9678009  89.8017639  15.5830104  87.4758278
  90.7419084  14.6375298  88.1928150  86.2772218  12.2765352  88.8101517
  86.8100555  11.5153640  88.5800825  85.7486299  11.9839004  89.5525671
  77.5127764   9.7058948  77.1583761  78.3502986  10.1155957  76.9417469
  77.6906031   8.7658391  77.1283955  87.6424931  11.4051345  76.3220329
  87.1146292  10.6704104  76.0093566  87.1412433  12.1826021  76.0760297
  85.7877531   9.2231555  69.3255302  84.8804593   8.9920808  69.5246451
  86.2848563   8.4269174  69.5129284  88.6945610  17.9329062  72.2451988
  88.0207309  18.2360759  72.8536946  89.0811432  18.7358142  71.8957445
  86.9665764   9.3244150  73.8479292  86.0576984   9.0403182  73.9451762
  86.9960848   9.7443228  72.9882599  92.1985032  12.9350739  77.6170460
  91.7447359  12.0941649  77.6735650  91.5678998  13.5712138  77.9545240
  90.6417971  14.7727236  78.5520278  90.9340945  15.3332293  77.8332643
  91.1516592  15.0655797  79.3073437  77.5353935   7.0449664  77.8294494
  77.3378334   6.4519024  77.1045561  76.9800599   6.7401874  78.5470433
  86.6641852  10.8652893  71.1867371  86.2261282  10.1488752  70.7273008
  87.4052293  11.0929008  70.6252462  85.6051596  15.5507587  79.6413731
  85.5627775  15.7768433  78.7122263  86.5214295  15.3170962  79.7899532
  83.7217397  12.4270616  79.4375694  84.5157995  11.9320936  79.2358269
  83.0109089  11.8988479  79.0743399  88.5412241  14.8088711  83.7888061
  88.5949264  15.3779648  84.5565777  87.6727023  14.9790597  83.4242098
  87.5000341   8.9748974  85.3474993  88.4292401   9.1260133  85.1743961
  87.0791371   9.0632994  84.4923640  86.2988673  12.9999638  83.1173531
  86.1599759  12.6318422  83.9899469  85.5103269  13.5147277  82.9457489
  86.8936825  18.1008734  74.4599067  87.0688581  17.6296778  75.2744690
  86.2069613  18.7274501  74.6880328  87.8493888  12.3781241  80.5062369
  87.5143721  12.3382011  81.4020019  87.3497834  11.7125957  80.0332779
  81.8238132   7.7848871  86.0314950  81.6857930   7.0529109  86.6326489
  82.7343055   7.6957771  85.7499138  81.4597910  21.2498097  81.2338928
  81.6994508  21.8816621  81.9117946  80.6167107  20.8986137  81.5204287
  74.0953766   8.7299859  79.9962240  74.7824806   8.4161589  79.4083255
  73.9401894   9.6341224  79.7229491  85.9725772  17.0577220  83.6380432
  85.8995944  17.8632191  84.1499736  85.5303165  17.2569185  82.8128453
  85.7615552  16.2948990  77.1483253  84.9783074  16.8370670  77.2421478
  86.4608297  16.8122969  77.5477494  88.4324456  16.9564054  85.7938590
  89.1452428  17.5911518  85.7214492  87.9414484  17.0527920  84.9778592
  90.1541982  10.8615306  77.3655882  89.2198261  10.9816769  77.1960586
  90.3318651   9.9587773  77.1015892  83.4836369  14.7058497  86.6144161
  84.1845829  15.3394980  86.7673555  83.0131484  15.0473229  85.8539800
  91.6090765  13.0476447  74.8992068  91.8850609  12.9333041  75.8085942
  90.7395264  12.6493932  74.8604241  88.2444829  17.2962798  78.5424882
  88.4267223  16.4784454  79.0052634  89.0677815  17.5130490  78.1049772
  88.5786994  16.2230983  75.8039930  89.1074761  15.7123437  75.1910092
  88.8415214  15.9073513  76.6685463  79.0804087  14.2394852  83.5475264
  79.6657524  13.4938540  83.6803168  78.8828926  14.5498809  84.4311928
  81.9342742  17.2746100  78.5637706  81.2653118  17.7592227  78.0801746
  81.7955612  17.5215320  79.4781085  73.6721742   6.8100452  82.2679707
  73.7105841   6.2764043  83.0616825  73.1662035   6.2835658  81.6490684
  86.0748011  19.3089843  85.1620364  86.6266319  19.4721465  85.9269450
  86.4154204  19.8994281  84.4900389  89.2116398  17.2571819  82.1484047
  89.0867538  16.4561558  81.6394992  89.8695489  17.7518012  81.6598017
  91.2751307  15.0580839  83.7763597  90.3281642  14.9386190  83.7041923
  91.6234080  14.1703337  83.8589858  88.2797740  14.8533555  79.9767949
  88.1322702  13.9250262  80.1575519  89.1051233  14.8753646  79.4925024
  91.8831862  15.6762114  81.0632822  92.8078409  15.4704975  80.9257273
  91.7147165  15.4278515  81.9722163  91.6727178  16.1947781  76.4194913
  91.8464056  15.6294204  75.6668766  92.1656069  16.9948676  76.2374403
  77.4904138   8.2062450  84.4858472  76.9457606   8.9822258  84.6178746
  78.3683488   8.5533255  84.3277593  92.6602350  15.5114545  73.5191811
  93.3553255  16.1321238  73.7379126  93.0025501  14.6609897  73.7944189
  78.2770160   7.3332346  87.3788629  77.5351896   7.4814982  87.9653259
  77.9562904   7.5940612  86.5155378  94.5593774  12.9614251  75.0479142
  95.0845098  13.3001524  74.3228462  94.4716126  12.0261266  74.8642277
  86.2213822  16.8748325  87.1769019  86.5300949  16.6297471  88.0491718
  87.0189304  17.0794963  86.6887889  86.2434434  19.0286234  79.4074395
  85.8039425  18.5362613  80.1007252  86.9942551  18.4859202  79.1666471
  78.7226773  15.2197775  79.4099023  79.5484793  14.9201547  79.0297667
  78.3720825  14.4505398  79.8588812  83.6908306  14.5724243  81.4796697
  83.0688316  13.9094948  81.1798925  84.3613173  14.5985375  80.7970345
  76.9235378  13.1384102  80.3687957  76.0867287  12.7106276  80.1871958
  76.8959024  13.3316545  81.3058748  83.2521813  13.1228167  74.9555158
  83.4009934  13.8063631  74.3021830  84.0588257  13.1033257  75.4704613
  81.0074446   9.1493344  75.9616226  80.7620488   8.2455674  76.1596437
  81.1770361   9.1510495  75.0195704  86.7517219  15.6176297  72.4266905
  86.1791186  16.2366484  71.9737377  87.3250013  16.1675659  72.9606827
  89.9714479  15.9013447  73.5575487  90.9045152  15.8359009  73.7608363
  89.8837692  16.7369714  73.0990020  92.6002495  15.2179318  70.5179435
  92.5216127  14.8839181  71.4115193  93.4212162  15.7101086  70.5170907
  76.2384875   6.1993450  80.1536889  75.9187659   5.3458758  79.8611263
  75.6918303   6.4142028  80.9094856  80.0164782   8.9155891  83.8706396
  80.2350792   9.8472999  83.8894429  80.4290556   8.5563865  84.6561199
  76.1073135   9.8196361  82.1230011  75.4136606   9.4050314  81.6099965
  76.8546126   9.8616898  81.5263430  78.0209877   9.7514615  79.9996026
  77.9980566   9.8502302  79.0477909  78.3310514  10.5979766  80.3213192
  80.6797255  11.8090770  84.1142640  81.6340509  11.7774712  84.0472572
  80.4809779  11.3481394  84.9292866  81.2696637  10.3791886  86.6813438
  82.0889526  10.8735965  86.7048275  81.5433445   9.4623854  86.6531005
  79.0347484  17.3510390  81.1312838  78.9001952  16.5910790  80.5650836
  78.6179546  18.0751289  80.6641627  90.1706447  12.5347313  70.1389413
  90.8742297  12.7397316  70.7547069  89.4469096  13.1024075  70.4038497
  82.1916610  18.2479707  81.3431281  82.0748994  19.1925139  81.2409971
  81.3709056  17.9453268  81.7317080  92.0793145  12.9729842  72.1887873
  92.9138748  12.5411041  72.0065348  91.9177487  12.8011856  73.1164768
  83.2171124  18.9007968  84.5587209  84.1198371  18.9331579  84.8753704
  82.9908494  17.9708419  84.5733545  84.9724726  17.6538955  81.2197288
  84.0220357  17.6540817  81.1061660  85.2757212  16.9071690  80.7033322
 100.7077420  23.4899493  82.2843050 101.3455830  23.3706241  81.5806390
 100.5898263  24.4380337  82.3431002  97.5167126  23.4426921  82.2204575
  97.1785637  23.3267986  81.3325109  98.3856894  23.0418087  82.2005581
  93.3753942  25.2962398  78.2101466  92.8118807  25.2052335  77.4417753
  93.2606337  24.4762302  78.6903958  97.9986909  24.5961773  88.1790780
  97.9875550  24.2014571  87.3071284  98.1607548  23.8627846  88.7724552
  90.9218374  26.7913589  81.0485686  91.7139665  26.4504414  80.6331985
  91.1615024  26.9008565  81.9687839  98.9553500  28.9633366  73.5215930
  98.3041480  29.5487446  73.1349944  99.7497863  29.4939560  73.5810968
  92.8809127  26.0522503  73.9203065  93.6540003  25.5051490  73.7815941
  93.2334526  26.9166752  74.1317526  94.7194170  27.3798885  87.1269964
  94.4284036  28.2844516  87.0116630  95.3551154  27.4215413  87.8414034
  95.6450377  24.7575734  83.7171324  96.2413949  24.5331756  83.0028287
  95.7025348  24.0160479  84.3196772  95.2175405  22.2115169  71.5521515
  95.4700926  21.6896690  70.7904978  94.2799964  22.0481314  71.6548198
 100.2618688  21.2150947  79.3596258 101.0481777  20.7970370  79.0086675
 100.5257392  22.1197039  79.5277906 100.4328765  26.6523798  74.0584915
  99.7974598  26.7258424  74.7705819 100.1026172  27.2417396  73.3803994
 105.6627115  21.1526180  80.2629236 106.3952287  20.5825397  80.4967066
 104.9066471  20.7647781  80.7035742  94.9371694  24.1143275  73.7545890
  94.8207952  23.4388178  74.4226974  95.0473954  23.6275649  72.9378043
  97.2803235  23.5753422  77.4592579  96.9161442  23.0484043  78.1705500
  98.1370351  23.1851891  77.2859064  96.9208722  18.6043322  72.4553927
  97.0883124  19.4723558  72.8224399  96.7305891  18.7670603  71.5315217
  99.6784055  27.0660301  84.1219758  99.3784778  27.9685339  84.0135565
  99.3335115  26.7992484  84.9740911  93.1296537  23.5174097  80.1556462
  92.2047033  23.3850311  80.3634154  93.3780950  24.2968317  80.6526405
 103.0781199  19.5842841  81.8017195 102.1698076  19.5158249  81.5075956
 103.0268795  20.0614786  82.6299021  96.8997943  21.0600979  73.4400594
  96.7797568  21.5058030  74.2786075  96.2050531  21.4086297  72.8814132
  90.4905348  23.1607371  80.9900251  90.6197729  23.4141850  81.9039663
  89.8102799  23.7535079  80.6704906  94.6604835  33.8304621  77.0890726
  94.5828865  34.7812446  77.1679206  94.0566479  33.4850493  77.7465652
 102.5983009  21.5322452  74.2680928 103.5100865  21.7649839  74.0928626
 102.0892656  22.1159496  73.7056007  95.4068437  23.8117940  89.3070059
  96.1483121  24.3502984  89.0304883  94.7005422  24.4384228  89.4641611
 100.8823777  25.9547080  87.9042221 101.2907133  25.5129491  87.1596853
 100.1601038  25.3799708  88.1576414  97.2354847  20.8919687  85.2775778
  98.0816042  21.3159100  85.4210427  97.1753484  20.2353311  85.9714341
 101.2052591  26.5148271  81.6594510 100.5761454  26.6793985  80.9570578
 100.8178253  26.9289880  82.4305474 105.0841823  27.4502709  79.0138874
 104.3992861  27.8301610  78.4635907 105.1685673  28.0598035  79.7470821
 102.3392755  25.0962668  85.6134217 102.5509650  25.7394427  84.9368598
 102.2922503  24.2624984  85.1456147  99.9418984  17.7080488  82.5170789
  99.0803463  18.0061742  82.8087527  99.9681418  17.9250887  81.5851822
  96.7580553  26.2522679  78.9244595  97.2218899  26.5310382  78.1349217
  96.4937351  25.3506123  78.7417686  93.6504634  25.7994160  81.8624358
  94.2205991  26.2281429  81.2241843  94.2412746  25.5176745  82.5608544
  95.6949439  22.3745831  75.7334160  96.3973483  22.8266875  76.2008086
  95.3630068  21.7329650  76.3614053  94.1429801  20.9657588  90.1085369
  93.5128461  21.6473869  90.3420766  94.0365889  20.8540669  89.1638508
  89.4374773  20.6329384  81.0351294  88.6473827  20.8886912  80.5591404
  89.9286021  21.4477722  81.1403334 103.4538583  27.9734623  83.7856574
 104.2756026  27.5714810  83.5039256 103.4500986  27.8702857  84.7372690
  91.3889519  20.9973963  77.9934770  90.5920682  21.1092657  78.5118266
  91.1615111  21.3360615  77.1275661  97.2195186  27.5218666  85.9417285
  97.2839619  27.9839074  86.7775457  96.5106110  26.8916031  86.0699595
  87.7212476  20.8859874  83.4666284  87.9720515  21.7706884  83.7323860
  88.2572025  20.7064476  82.6941376  96.9343204  29.1886774  75.8096265
  96.7988879  30.0338310  76.2381113  97.4753016  29.3906051  75.0462199
  90.3872601  26.7062212  76.3824190  90.8997122  27.5005462  76.5329755
  91.0395314  26.0088502  76.3157792  92.1967486  29.8227968  78.4646944
  92.3734114  30.7445933  78.2767927  92.9924319  29.5086387  78.8941323
  91.4819842  21.8692600  88.3409107  91.3673358  20.9677857  88.6416206
  90.6264360  22.1156297  87.9893923  98.5611680  29.8110340  89.9396607
  98.1175534  29.0246719  89.6217512  99.2228894  29.9989491  89.2740498
  93.3198801  31.3406142  84.4657286  93.8706227  31.2123205  83.6934280
  92.4810277  31.6401031  84.1152179 100.6592918  30.0913140  87.9678009
 100.6411394  30.9122021  87.4758278 101.5812838  29.9667215  88.1928150
  97.1165972  27.6057270  88.8101517  97.6494309  26.8445558  88.5800825
  96.5880054  27.3130922  89.5525671  88.3521518  25.0350866  77.1583761
  89.1896740  25.4447875  76.9417469  88.5299786  24.0950308  77.1283955
 100.2485950  22.7025947  72.8467594  99.7332574  23.4730551  73.0855981
  99.9763259  22.0291083  73.4700655  97.8333061  17.5475648  77.9052832
  96.9774658  17.1582498  77.7258471  98.2460013  17.6267608  77.0452618
  99.3632208  15.0821991  82.3044392  98.8597003  15.0452126  81.4912197
  99.6562815  15.9914734  82.3641049  95.6075094  15.1660721  81.3110574
  96.4728090  14.9703529  80.9516463  95.6752603  14.9371072  82.2379930
 105.2220224  25.4558301  74.7820767 104.4449667  25.1169461  74.3375929
 105.9011705  25.4610925  74.1075732 100.0372253  20.5753039  74.6727375
  99.7322389  20.8899188  75.5237518 100.9902695  20.6534459  74.7154708
  98.4818685  26.7343262  76.3220329  97.9540047  25.9996022  76.0093566
  97.9806188  27.5117939  76.0760297 103.4611531  24.9292283  81.4387375
 102.8035206  25.6191544  81.5267504 104.2651930  25.3188715  81.7821362
  93.2137413  17.3962928  78.6826941  93.7881165  17.1738110  77.9500133
  93.8008395  17.4651623  79.4355542 102.2716990  23.2836655  79.4891317
 102.7848872  23.9166647  79.9913027 102.9218214  22.6837851  79.1234677
  93.5407000  19.4267390  72.7022826  92.7044312  19.7642076  73.0232101
  93.4011770  19.2916369  71.7649963  95.5160080  14.2704177  77.4102010
  94.8624493  13.9553195  76.7858625  95.4740555  13.6479918  78.1361833
  96.6271285  24.5523472  69.3255302  95.7198347  24.3212726  69.5246451
  97.1242317  23.7561092  69.5129284  99.5339364  33.2620980  72.2451988
  98.8601063  33.5652676  72.8536946  99.9205186  34.0650060  71.8957445
  98.7497821  20.7586111  81.7349658  97.8320382  20.9801058  81.5771346
  99.1657964  20.8332421  80.8761365  99.5332869  22.1577527  76.8652338
 100.2804688  22.6698924  76.5559460  99.8024458  21.8361579  77.7256731
  97.8059519  24.6536067  73.8479292  96.8970738  24.3695100  73.9451762
  97.8354603  25.0735146  72.9882599 103.0378786  28.2642657  77.6170460
 102.5841113  27.4233567  77.6735650 102.4072753  28.9004055  77.9545240
 101.9811706  19.1934643  78.8471127 101.2434463  18.6812029  79.1781370
 102.2338479  18.7535024  78.0354404 101.4811725  30.1019154  78.5520278
 101.7734700  30.6624211  77.8332643 101.9910346  30.3947715  79.3073437
  88.3747689  22.3741581  77.8294494  88.1772089  21.7810942  77.1045561
  87.8194353  22.0693792  78.5470433  96.3544413  22.2664688  79.9489087
  96.4093023  21.3138524  79.8731564  95.5435615  22.4224127  80.4330386
  97.5035607  26.1944811  71.1867371  97.0655037  25.4780670  70.7273008
  98.2446047  26.4220926  70.6252462  94.2936773  20.8841748  77.7079466
  93.4804638  21.1835918  78.1144658  94.7895767  20.4897436  78.4253949
  96.4445351  30.8799505  79.6413731  96.4021529  31.1060351  78.7122263
  97.3608049  30.6462879  79.7899532 105.6208721  24.4702008  77.2443689
 105.4826620  24.6603604  76.3164878 105.2644940  25.2321391  77.7011740
  93.7850848  18.4560103  83.3240701  94.4250227  18.3148862  82.6263665
  92.9528378  18.1694617  82.9479303 105.6478101  26.5378535  82.2554961
 106.0814608  26.4453824  83.1038015 106.3609682  26.5136036  81.6174977
  94.5611151  27.7562534  79.4375694  95.3551750  27.2612854  79.2358269
  93.8502844  27.2280397  79.0743399  99.3805996  30.1380629  83.7888061
  99.4343018  30.7071565  84.5565777  98.5120777  30.3082514  83.4242098
  90.8693915  21.9005615  75.5135446  89.9391503  21.8390071  75.7305409
  90.9651387  21.3781568  74.7172088  90.7879464  18.4260428  78.1013688
  91.0486281  19.3405761  77.9922849  91.6096636  17.9584871  78.2510301
  92.2604389  19.8398185  85.2712513  92.9327443  19.6315547  84.6225162
  91.4334176  19.6420271  84.8317745  98.3394096  24.3040891  85.3474993
  99.2686156  24.4552051  85.1743961  97.9185126  24.3924912  84.4923640
  97.1382427  28.3291556  83.1173531  96.9993513  27.9610340  83.9899469
  96.3497024  28.8439195  82.9457489  97.7330579  33.4300652  74.4599067
  97.9082335  32.9588695  75.2744690  97.0463367  34.0566418  74.6880328
  98.6887643  27.7073158  80.5062369  98.3537475  27.6673928  81.4020019
  98.1891588  27.0417874  80.0332779  92.6631887  23.1140788  86.0314950
  92.5251684  22.3821027  86.6326489  93.5736810  23.0249688  85.7499138
 101.6246834  25.0529193  70.7799428 101.0076005  24.3276021  70.6832481
 101.1563323  25.8138553  70.4366503  95.2914187  22.8260748  85.5198629
  96.0013806  22.1853940  85.4785248  95.2483495  23.0773643  86.4424810
  94.0043121  19.8125966  87.3394269  93.4680478  19.3616704  87.9915865
  93.4159830  19.9471874  86.5964733  92.2991665  36.5790015  81.2338928
  92.5388263  37.2108539  81.9117946  91.4560861  36.2278055  81.5204287
  93.4145380  19.2714617  69.9020733  92.5374846  19.1503418  69.5382979
  93.8903133  18.4800695  69.6499621  84.9347520  24.0591777  79.9962240
  85.6218560  23.7453507  79.4083255  84.7795649  24.9633141  79.7229491
  89.7382242  18.9481973  84.4247263  89.6540431  18.3407643  83.6897673
  88.9164949  19.4390992  84.4256760  96.8119527  32.3869137  83.6380432
  96.7389698  33.1924109  84.1499736  96.3696920  32.5861103  82.8128453
  96.6009306  31.6240907  77.1483253  95.8176828  32.1662588  77.2421478
  97.3002051  32.1414887  77.5477494  99.9105956  17.4335537  79.7917458
 100.4074656  16.6805499  79.4718529  99.1392938  17.4699853  79.2260668
  99.2718210  32.2855971  85.7938590  99.9846182  32.9203436  85.7214492
  98.7808239  32.3819837  84.9778592 100.9935737  26.1907224  77.3655882
 100.0592016  26.3108686  77.1960586 101.1712405  25.2879691  77.1015892
  96.4940925  19.5752920  79.5189143  96.1238713  19.0223960  80.2070049
  96.9900017  18.9711053  78.9664143 104.3808288  22.0324543  77.9005916
 104.8468741  22.8652535  77.8266219 104.8315789  21.5669525  78.6051174
  94.3230124  30.0350415  86.6144161  95.0239583  30.6686898  86.7673555
  93.8525239  30.3765146  85.8539800 102.4484519  28.3768365  74.8992068
 102.7244363  28.2624959  75.8085942 101.5789018  27.9785849  74.8604241
 102.1231410  22.5895022  84.4396711 101.4702860  22.8370930  83.7849164
 102.5011789  21.7759160  84.1059189  99.0838583  32.6254715  78.5424882
  99.2660978  31.8076371  79.0052634  99.9071569  32.8422408  78.1049772
  99.4180749  31.5522901  75.8039930  99.9468515  31.0415355  75.1910092
  99.6808969  31.2365431  76.6685463  89.9197842  29.5686770  83.5475264
  90.5051278  28.8230458  83.6803168  89.7222680  29.8790727  84.4311928
  92.7736497  32.6038017  78.5637706  92.1046872  33.0884145  78.0801746
  92.6349367  32.8507238  79.4781085  84.5115496  22.1392370  82.2679707
  84.5499596  21.6055961  83.0616825  84.0055789  21.6127576  81.6490684
  96.9141765  34.6381761  85.1620364  97.4660073  34.8013382  85.9269450
  97.2547959  35.2286199  84.4900389  91.8906259  16.9856911  85.7642249
  91.9547585  17.8471741  85.3519647  91.8273379  16.3730912  85.0314608
  91.3658531  19.0580043  89.4115283  91.9930570  18.6757120  90.0252808
  90.5086450  18.8394245  89.7770976  88.1424074  20.8656472  75.3433638
  88.4377515  19.9567151  75.2900692  87.2412110  20.8444212  75.0214641
 100.0510153  32.5863736  82.1484047  99.9261292  31.7853476  81.6394992
 100.7089244  33.0809930  81.6598017  91.6718321  18.9412469  81.3261187
  90.9504907  19.5548436  81.1868660  92.4611577  19.4770234  81.2477833
 102.1145061  30.3872756  83.7763597 101.1675397  30.2678108  83.7041923
 102.4627834  29.4995254  83.8589858  89.8711916  18.5470570  75.4672963
  89.5424622  17.6667949  75.2848069  90.2251286  18.4918239  76.3549353
  99.1191494  30.1825473  79.9767949  98.9716457  29.2542180  80.1575519
  99.9444988  30.2045563  79.4925024  92.9853739  18.8343540  75.8348441
  93.3249811  19.3629461  75.1127049  93.4325859  19.1723946  76.6107008
 102.7225616  31.0054031  81.0632822 103.6472164  30.7996893  80.9257273
 102.5540920  30.7570432  81.9722163  95.6797180  17.2180590  85.2851509
  95.3394000  16.4188403  85.6872189  94.9736186  17.5182301  84.7128342
  96.3313651  14.3029903  83.7378832  97.1539721  13.8290381  83.6157722
  96.5751715  15.0820387  84.2377518  94.9721886  17.3318161  74.0341734
  95.6930248  17.7099414  73.5305451  94.3487190  18.0507038  74.1376712
  99.1153009  18.0363310  74.9700066  99.3316623  18.9187948  74.6688894
  98.6347076  17.6449524  74.2405708  93.8552230  20.9949023  81.5470811
  93.7096811  21.3089327  82.4395092  93.3777434  21.6133924  80.9941709
  95.7148613  17.9851571  81.5951700  95.7010182  17.0892665  81.2583998
  96.4321041  17.9922235  82.2289986  97.5674744  18.4188912  83.6404828
  97.3092522  19.3405982  83.6389158  97.0359784  18.0219346  84.3305292
 102.5120932  31.5239699  76.4194913 102.6857810  30.9586121  75.6668766
 103.0049824  32.3240594  76.2374403  88.3297892  23.5354368  84.4858472
  87.7851360  24.3114176  84.6178746  89.2077242  23.8825172  84.3277593
  95.1185509  16.8665952  76.8639270  95.2401420  15.9382598  77.0630158
  94.8287551  16.8804638  75.9517586  97.9876699  14.5520862  80.0005990
  98.0098396  14.6160195  79.0457970  98.4044758  13.7125371  80.1946496
 103.4996105  30.8406463  73.5191811 104.1947010  31.4613156  73.7379126
 103.8419255  29.9901814  73.7944189  89.1163914  22.6624264  87.3788629
  88.3745650  22.8106899  87.9653259  88.7956658  22.9232530  86.5155378
 105.3987528  28.2906169  75.0479142 105.9238852  28.6293441  74.3228462
 105.3109881  27.3553184  74.8642277  97.0607577  32.2040242  87.1769019
  97.3694703  31.9589389  88.0491718  97.8583059  32.4086881  86.6887889
  97.0828189  34.3578152  79.4074395  96.6433179  33.8654531  80.1007252
  97.8336306  33.8151120  79.1666471  89.5620528  30.5489693  79.4099023
  90.3878548  30.2493465  79.0297667  89.2114580  29.7797315  79.8588812
  94.5302061  29.9016161  81.4796697  93.9082070  29.2386866  81.1798925
  95.2006928  29.9277293  80.7970345  87.7629133  28.4676019  80.3687957
  86.9261041  28.0398194  80.1871958  87.7352778  28.6608463  81.3058748
  94.0915568  28.4520084  74.9555158  94.2403688  29.1355549  74.3021830
  94.8982011  28.4325174  75.4704613  91.8468201  24.4785262  75.9616226
  91.6014243  23.5747592  76.1596437  92.0164115  24.4802412  75.0195704
  91.1163848  20.2113620  73.4602388  90.4233093  20.2857975  72.8042424
  90.8715600  19.4473963  73.9823905  97.5910973  30.9468215  72.4266905
  97.0184940  31.5658402  71.9737377  98.1643767  31.4967577  72.9606827
 100.8108233  31.2305365  73.5575487 101.7438906  31.1650927  73.7608363
 100.7231446  32.0661632  73.0990020 103.4396250  30.5471235  70.5179435
 103.3609881  30.2131099  71.4115193 104.2605917  31.0393003  70.5170907
  97.9757772  22.2829028  69.7682957  98.9216877  22.1535236  69.8371376
  97.5972017  21.5443689  70.2452386  96.1600689  20.2079004  69.7037843
  95.2532144  19.9112117  69.7800556  96.4376670  19.9108822  68.8372129
  87.0778629  21.5285367  80.1536889  86.7581414  20.6750676  79.8611263
  86.5312058  21.7433946  80.9094856  90.8558537  24.2447808  83.8706396
  91.0744547  25.1764916  83.8894429  91.2684311  23.8855783  84.6561199
  97.7762755  14.7515894  75.8582084  96.9663483  14.4062979  76.2337330
  98.4647172  14.4423437  76.4469696  94.9299474  17.0665939  69.8449822
  95.7918638  17.3920838  70.1045639  95.1149818  16.2797435  69.3322888
  86.9466889  25.1488279  82.1230011  86.2530361  24.7342232  81.6099965
  87.6939880  25.1908815  81.5263430 103.0832110  15.9394466  76.9885045
 102.5030779  16.5979270  76.6063097 102.8168043  15.1171810  76.5772462
 101.5335677  15.3399523  79.1906365 102.0335455  15.4516058  78.3820684
 102.1771284  15.0360576  79.8307174  88.8603632  25.0806533  79.9996026
  88.8374320  25.1794220  79.0477909  89.1704268  25.9271683  80.3213192
  91.5191010  27.1382688  84.1142640  92.4734263  27.1066630  84.0472572
  91.3203533  26.6773311  84.9292866  92.1090392  25.7083804  86.6813438
  92.9283281  26.2027882  86.7048275  92.3827200  24.7915772  86.6531005
 101.8656988  18.0994556  76.0441393 100.9782843  18.3844207  75.8261588
 102.2810977  17.9388319  75.1968670  89.8741239  32.6802307  81.1312838
  89.7395707  31.9202708  80.5650836  89.4573301  33.4043207  80.6641627
 101.0100202  27.8639231  70.1389413 101.7136052  28.0689233  70.7547069
 100.2862850  28.4315993  70.4038497 101.8398012  23.6149092  76.2591683
 101.7833213  24.0717643  75.4199316 102.3926354  22.8539777  76.0814526
 105.6502818  19.4038824  77.0841803 105.3939752  19.0035460  77.9150011
 105.0255686  20.1182618  76.9591942  93.0310365  33.5771624  81.3431281
  92.9142749  34.5217057  81.2409971  92.2102811  33.2745186  81.7317080
 102.9186899  28.3021760  72.1887873 103.7532503  27.8702958  72.0065348
 102.7571242  28.1303774  73.1164768 102.5732791  24.8053873  73.5544213
 102.5181595  24.6398145  72.6132657 101.9478847  25.5129906  73.7106402
  87.3625306  20.0421938  87.3805635  88.0084170  19.5320892  87.8692860
  87.1542457  20.7790619  87.9549060  95.8828917  14.3061982  73.1329531
  95.8707587  15.2503822  73.2897802  96.7752339  14.1232128  72.8388992
  94.0564879  34.2299886  84.5587209  94.9592125  34.2623496  84.8753704
  93.8302249  33.3000337  84.5733545  95.8118481  32.9830873  81.2197288
  94.8614112  32.9832734  81.1061660  96.1150967  32.2363607  80.7033322
 104.2147696  40.6254316  78.2101466 103.6512561  40.5344252  77.4417753
 104.1000091  39.8054220  78.6903958 103.7202882  41.3814420  73.9203065
 104.4933758  40.8343407  73.7815941 104.0728281  42.2458670  74.1317526
 105.5587925  42.7090803  87.1269964 105.2677791  43.6136434  87.0116630
 106.1944909  42.7507330  87.8414034 106.4844131  40.0867651  83.7171324
 107.0807704  39.8623674  83.0028287 106.5419103  39.3452397  84.3196772
 106.0569160  37.5407087  71.5521515 106.3094680  37.0188608  70.7904978
 105.1193719  37.3773232  71.6548198 105.7765449  39.4435192  73.7545890
 105.6601707  38.7680096  74.4226974 105.8867708  38.9567566  72.9378043
 107.7602476  33.9335239  72.4553927 107.9276879  34.8015476  72.8224399
 107.5699646  34.0962521  71.5315217 103.9690291  38.8466015  80.1556462
 103.0440788  38.7142229  80.3634154 104.2174704  39.6260234  80.6526405
 107.7391697  36.3892897  73.4400594 107.6191323  36.8349948  74.2786075
 107.0444286  36.7378214  72.8814132 101.3299102  38.4899289  80.9900251
 101.4591483  38.7433767  81.9039663 100.6496553  39.0826997  80.6704906
 105.4998589  49.1596539  77.0890726 105.4222619  50.1104364  77.1679206
 104.8960233  48.8142411  77.7465652 106.2462192  39.1409857  89.3070059
 106.9876876  39.6794901  89.0304883 105.5399177  39.7676146  89.4641611
 107.5974308  41.5814596  78.9244595 108.0612653  41.8602299  78.1349217
 107.3331106  40.6798041  78.7417686 104.4898389  41.1286078  81.8624358
 105.0599746  41.5573346  81.2241843 105.0806501  40.8468663  82.5608544
 106.5343194  37.7037749  75.7334160 107.2367237  38.1558793  76.2008086
 106.2023822  37.0621568  76.3614053 104.9823555  36.2949505  90.1085369
 104.3522216  36.9765786  90.3420766 104.8759643  36.1832587  89.1638508
 100.2768528  35.9621302  81.0351294  99.4867582  36.2178830  80.5591404
 100.7679775  36.7769639  81.1403334 102.2283273  36.3265881  77.9934770
 101.4314436  36.4384575  78.5118266 102.0008865  36.6652533  77.1275661
 108.0588941  42.8510584  85.9417285 108.1233373  43.3130991  86.7775457
 107.3499865  42.2207949  86.0699595  98.5606231  36.2151792  83.4666284
  98.8114269  37.0998802  83.7323860  99.0965779  36.0356393  82.6941376
 107.7736958  44.5178691  75.8096265 107.6382633  45.3630227  76.2381113
 108.3146771  44.7197969  75.0462199 101.2266356  42.0354130  76.3824190
 101.7390876  42.8297380  76.5329755 101.8789069  41.3380420  76.3157792
 103.0361240  45.1519886  78.4646944 103.2127869  46.0737850  78.2767927
 103.8318074  44.8378305  78.8941323 102.3213597  37.1984518  88.3409107
 102.2067112  36.2969775  88.6416206 101.4658115  37.4448214  87.9893923
 104.1592556  46.6698060  84.4657286 104.7099981  46.5415123  83.6934280
 103.3204032  46.9692949  84.1152179  99.1915273  40.3642784  77.1583761
 100.0290495  40.7739792  76.9417469  99.3693540  39.4242226  77.1283955
 106.4468848  30.4952638  81.3110574 107.3121845  30.2995447  80.9516463
 106.5146357  30.2662990  82.2379930 104.0531167  32.7254846  78.6826941
 104.6274919  32.5030028  77.9500133 104.6402150  32.7943541  79.4355542
 104.3800754  34.7559307  72.7022826 103.5438067  35.0933994  73.0232101
 104.2405524  34.6208287  71.7649963 106.3553835  29.5996095  77.4102010
 105.7018247  29.2845112  76.7858625 106.3134309  28.9771836  78.1361833
 107.4665040  39.8815390  69.3255302 106.5592102  39.6504644  69.5246451
 107.9636072  39.0853009  69.5129284  99.2141444  37.7033499  77.8294494
  99.0165843  37.1102860  77.1045561  98.6588108  37.3985709  78.5470433
 107.1938167  37.5956606  79.9489087 107.2486777  36.6430442  79.8731564
 106.3829369  37.7516045  80.4330386 105.1330527  36.2133665  77.7079466
 104.3198393  36.5127836  78.1144658 105.6289521  35.8189354  78.4253949
 107.2839105  46.2091422  79.6413731 107.2415284  46.4352269  78.7122263
 108.2001804  45.9754797  79.7899532 104.6244602  33.7852021  83.3240701
 105.2643981  33.6440780  82.6263665 103.7922133  33.4986534  82.9479303
 105.4004906  43.0854451  79.4375694 106.1945504  42.5904771  79.2358269
 104.6896598  42.5572314  79.0743399 101.7087669  37.2297533  75.5135446
 100.7785257  37.1681989  75.7305409 101.8045141  36.7073486  74.7172088
 101.6273218  33.7552346  78.1013688 101.8880036  34.6697679  77.9922849
 102.4490391  33.2876788  78.2510301 103.0998144  35.1690103  85.2712513
 103.7721197  34.9607465  84.6225162 102.2727930  34.9712189  84.8317745
 107.9776182  43.6583473  83.1173531 107.8387268  43.2902258  83.9899469
 107.1890778  44.1731113  82.9457489 103.5025641  38.4432706  86.0314950
 103.3645439  37.7112945  86.6326489 104.4130564  38.3541606  85.7499138
 106.1307942  38.1552665  85.5198629 106.8407560  37.5145858  85.4785248
 106.0877250  38.4065560  86.4424810 104.8436876  35.1417883  87.3394269
 104.3074233  34.6908622  87.9915865 104.2553584  35.2763792  86.5964733
 103.1385419  51.9081933  81.2338928 103.3782017  52.5400457  81.9117946
 102.2954616  51.5569973  81.5204287 104.2539135  34.6006535  69.9020733
 103.3768601  34.4795335  69.5382979 104.7296888  33.8092613  69.6499621
  95.7741275  39.3883694  79.9962240  96.4612315  39.0745424  79.4083255
  95.6189403  40.2925059  79.7229491 100.5775997  34.2773891  84.4247263
 100.4934186  33.6699560  83.6897673  99.7558703  34.7682909  84.4256760
 107.6513281  47.7161055  83.6380432 107.5783452  48.5216026  84.1499736
 107.2090674  47.9153021  82.8128453 107.4403061  46.9532825  77.1483253
 106.6570583  47.4954505  77.2421478 108.1395806  47.4706805  77.5477494
 107.3334680  34.9044837  79.5189143 106.9632467  34.3515878  80.2070049
 107.8293772  34.3002971  78.9664143 105.1623878  45.3642332  86.6144161
 105.8633338  45.9978815  86.7673555 104.6918993  45.7057064  85.8539800
 100.7591596  44.8978688  83.5475264 101.3445033  44.1522375  83.6803168
 100.5616435  45.2082644  84.4311928 103.6130251  47.9329935  78.5637706
 102.9440627  48.4176063  78.0801746 103.4743121  48.1799155  79.4781085
  95.3509251  37.4684288  82.2679707  95.3893350  36.9347878  83.0616825
  94.8449544  36.9419493  81.6490684 107.7535520  49.9673678  85.1620364
 108.3053828  50.1305300  85.9269450 108.0941713  50.5578116  84.4900389
 102.7300013  32.3148828  85.7642249 102.7941340  33.1763659  85.3519647
 102.6667133  31.7022830  85.0314608 102.2052286  34.3871961  89.4115283
 102.8324325  34.0049038  90.0252808 101.3480205  34.1686163  89.7770976
  98.9817828  36.1948390  75.3433638  99.2771270  35.2859068  75.2900692
  98.0805864  36.1736129  75.0214641 102.5112075  34.2704386  81.3261187
 101.7898661  34.8840354  81.1868660 103.3005331  34.8062151  81.2477833
 100.7105670  33.8762488  75.4672963 100.3818376  32.9959866  75.2848069
 101.0645041  33.8210156  76.3549353 103.8247493  34.1635457  75.8348441
 104.1643566  34.6921379  75.1127049 104.2719614  34.5015863  76.6107008
 106.5190934  32.5472508  85.2851509 106.1787754  31.7480321  85.6872189
 105.8129940  32.8474219  84.7128342 107.1707406  29.6321820  83.7378832
 107.9933475  29.1582299  83.6157722 107.4145469  30.4112304  84.2377518
 105.8115640  32.6610079  74.0341734 106.5324003  33.0391332  73.5305451
 105.1880944  33.3798956  74.1376712 104.6945985  36.3240941  81.5470811
 104.5490565  36.6381244  82.4395092 104.2171188  36.9425841  80.9941709
 106.5542367  33.3143489  81.5951700 106.5403936  32.4184582  81.2583998
 107.2714796  33.3214153  82.2289986  99.1691647  38.8646286  84.4858472
  98.6245115  39.6406093  84.6178746 100.0470997  39.2117090  84.3277593
 105.9579263  32.1957869  76.8639270 106.0795175  31.2674516  77.0630158
 105.6681306  32.2096555  75.9517586  99.9557669  37.9916182  87.3788629
  99.2139405  38.1398817  87.9653259  99.6350413  38.2524447  86.5155378
 100.4014282  45.8781610  79.4099023 101.2272302  45.5785382  79.0297667
 100.0508334  45.1089233  79.8588812 105.3695815  45.2308079  81.4796697
 104.7475825  44.5678784  81.1798925 106.0400682  45.2569211  80.7970345
  98.6022887  43.7967937  80.3687957  97.7654796  43.3690111  80.1871958
  98.5746533  43.9900380  81.3058748 104.9309322  43.7812002  74.9555158
 105.0797443  44.4647466  74.3021830 105.7375766  43.7617092  75.4704613
 102.6861955  39.8077180  75.9616226 102.4407997  38.9039510  76.1596437
 102.8557870  39.8094330  75.0195704 101.9557603  35.5405537  73.4602388
 101.2626848  35.6149892  72.8042424 101.7109355  34.7765881  73.9823905
 106.9994444  35.5370922  69.7037843 106.0925899  35.2404034  69.7800556
 107.2770425  35.2400740  68.8372129  97.9172384  36.8577285  80.1536889
  97.5975168  36.0042593  79.8611263  97.3705812  37.0725863  80.9094856
 101.6952291  39.5739726  83.8706396 101.9138301  40.5056834  83.8894429
 102.1078065  39.2147700  84.6561199 105.7693228  32.3957857  69.8449822
 106.6312392  32.7212755  70.1045639 105.9543572  31.6089353  69.3322888
  97.7860644  40.4780197  82.1230011  97.0924115  40.0634149  81.6099965
  98.5333635  40.5200733  81.5263430  99.6997386  40.4098450  79.9996026
  99.6768075  40.5086138  79.0477909 100.0098023  41.2563601  80.3213192
 102.3584764  42.4674605  84.1142640 103.3128018  42.4358548  84.0472572
 102.1597288  42.0065229  84.9292866 102.9484146  41.0375721  86.6813438
 103.7677035  41.5319800  86.7048275 103.2220954  40.1207690  86.6531005
 100.7134993  48.0094225  81.1312838 100.5789461  47.2494626  80.5650836
 100.2967055  48.7335125  80.6641627 103.8704119  48.9063542  81.3431281
 103.7536503  49.8508974  81.2409971 103.0496565  48.6037103  81.7317080
  98.2019061  35.3713855  87.3805635  98.8477924  34.8612809  87.8692860
  97.9936212  36.1082537  87.9549060 106.7222671  29.6353900  73.1329531
 106.7101341  30.5795740  73.2897802 107.6146093  29.4524045  72.8388992
 104.8958633  49.5591804  84.5587209 105.7985880  49.5915414  84.8753704
 104.6696003  48.6292255  84.5733545 106.6512235  48.3122790  81.2197288
 105.7007866  48.3124652  81.1061660 106.9544721  47.5655525  80.7033322
 106.6135029  54.7175612  79.9962240 107.3006069  54.4037342  79.4083255
 106.4583158  55.6216977  79.7229491 106.1903005  52.7976205  82.2679707
 106.2287105  52.2639796  83.0616825 105.6843298  52.2711411  81.6490684
  92.2991666  13.5852137  67.9584234  92.5388264  14.2170662  68.6363253
  91.4560862  13.2340177  68.2449593 104.2147697  17.6316438  64.9346772
 103.6512563  17.5406375  64.1663060 104.1000092  16.8116343  65.4149265
 101.7612129  19.1267630  67.7730993 102.5533421  18.7858454  67.3577292
 102.0008779  19.2362605  68.6933146 103.7202883  18.3876543  60.6448371
 104.4933759  17.8405530  60.5061247 104.0728282  19.2520792  60.8562833
 105.5587926  19.7152925  73.8515271 105.2677792  20.6198556  73.7361937
 106.1944910  19.7569453  74.5659340 106.4844133  17.0929774  70.4416630
 107.0807705  16.8685796  69.7273593 106.5419104  16.3514519  71.0442078
 105.7765450  16.4497315  60.4791196 105.6601708  15.7742218  61.1472281
 105.8867710  15.9629689  59.6623349 103.9690292  15.8528138  66.8801769
 103.0440789  15.7204352  67.0879461 104.2174706  16.6322357  67.3771711
 101.3299103  15.4961411  67.7145558 101.4591485  15.7495890  68.6284970
 100.6496555  16.0889119  67.3950213 105.4998591  26.1658661  63.8136032
 105.4222620  27.1166486  63.8924513 104.8960234  25.8204534  64.4710958
 106.2462193  16.1471980  76.0315366 106.9876877  16.6857024  75.7550190
 105.5399178  16.7738269  76.1886918 107.5974309  18.5876719  65.6489902
 108.0612654  18.8664422  64.8594524 107.3331107  17.6860164  65.4662992
 104.4898390  18.1348201  68.5869665 105.0599747  18.5635469  67.9487149
 105.0806502  17.8530785  69.2853850 108.0588942  19.8572707  72.6662592
 108.1233374  20.3193114  73.5020763 107.3499866  19.2270072  72.7944901
  98.5606232  13.2213915  70.1911591  98.8114270  14.1060924  70.4569167
  99.0965780  13.0418516  69.4186683 107.7736960  21.5240814  62.5341572
 107.6382634  22.3692350  62.9626420 108.3146772  21.7260092  61.7707506
 101.2266357  19.0416252  63.1069497 101.7390878  19.8359502  63.2575062
 101.8789070  18.3442543  63.0403098 103.0361242  22.1582008  65.1892250
 103.2127870  23.0799973  65.0013234 103.8318075  21.8440428  65.6186630
 104.1592557  23.6760182  71.1902592 104.7099982  23.5477246  70.4179586
 103.3204033  23.9755071  70.8397485  99.1915274  17.3704906  63.8829068
 100.0290496  17.7801915  63.6662775  99.3693541  16.4304349  63.8529261
 107.4665041  16.8877513  56.0500609 106.5592103  16.6566766  56.2491758
 107.9636073  16.0915132  56.2374590  99.2141445  14.7095622  64.5539801
  99.0165845  14.1164982  63.8290868  98.6588109  14.4047832  65.2715740
 107.2839106  23.2153545  66.3659038 107.2415285  23.4414391  65.4367570
 108.2001805  22.9816919  66.5144839 105.4004907  20.0916574  66.1621000
 106.1945506  19.5966894  65.9603575 104.6896600  19.5634437  65.7988706
 107.9776183  20.6645596  69.8418837 107.8387269  20.2964380  70.7144776
 107.1890779  21.1793235  69.6702795 103.5025642  15.4494829  72.7560256
 103.3645440  14.7175067  73.3571795 104.4130566  15.3603729  72.4744444
 103.1385420  28.9144055  67.9584234 103.3782019  29.5462579  68.6363253
 102.2954617  28.5632095  68.2449593  95.7741276  16.3945817  66.7207546
  96.4612316  16.0807547  66.1328562  95.6189405  17.2987182  66.4474798
 107.6513282  24.7223178  70.3625738 107.5783454  25.5278149  70.8745043
 107.2090675  24.9215143  69.5373760 107.4403062  23.9594948  63.8728560
 106.6570584  24.5016628  63.9666784 108.1395807  24.4768927  64.2722801
 105.1623879  22.3704455  73.3389468 105.8633339  23.0040938  73.4918862
 104.6918994  22.7119187  72.5785107 100.7591597  21.9040810  70.2720570
 101.3445034  21.1584498  70.4048475 100.5616436  22.2144767  71.1557234
 103.6130253  24.9392057  65.2883013 102.9440628  25.4238185  64.8047053
 103.4743122  25.1861278  66.2026391  95.3509252  14.4746410  68.9925013
  95.3893352  13.9410001  69.7862132  94.8449545  13.9481616  68.3735991
 107.7535521  26.9735801  71.8865671 108.3053829  27.1367423  72.6514756
 108.0941715  27.5640239  71.2145696  99.1691648  15.8708408  71.2103779
  98.6245116  16.6468216  71.3424053 100.0470998  16.2179213  71.0522900
  99.9557670  14.9978304  74.1033935  99.2139406  15.1460940  74.6898566
  99.6350414  15.2586570  73.2400685 100.4014284  22.8843733  66.1344330
 101.2272303  22.5847505  65.7542974 100.0508336  22.1151356  66.5834119
 105.3695817  22.2370201  68.2042004 104.7475826  21.5740906  67.9044232
 106.0400684  22.2631333  67.5215651  98.6022889  20.8030060  67.0933264
  97.7654797  20.3752234  66.9117265  98.5746534  20.9962503  68.0304055
 104.9309324  20.7874125  61.6800464 105.0797444  21.4709589  61.0267137
 105.7375767  20.7679215  62.1949920 102.6861957  16.8139302  62.6861533
 102.4407999  15.9101632  62.8841743 102.8557871  16.8156453  61.7441011
  97.9172385  13.8639408  66.8782196  97.5975170  13.0104716  66.5856570
  97.3705813  14.0787986  67.6340163 101.6952293  16.5801849  70.5951702
 101.9138303  17.5118956  70.6139736 102.1078067  16.2209823  71.3806506
  97.7860645  17.4842319  68.8475317  97.0924117  17.0696272  68.3345272
  98.5333636  17.5262856  68.2508736  99.6997388  17.4160573  66.7241332
  99.6768076  17.5148260  65.7723215 100.0098024  18.2625724  67.0458498
 102.3584766  19.4736728  70.8387947 103.3128019  19.4420670  70.7717878
 102.1597289  19.0127352  71.6538173 102.9484148  18.0437844  73.4058744
 103.7677037  18.5381923  73.4293582 103.2220955  17.1269812  73.3776312
 100.7134994  25.0156347  67.8558144 100.5789462  24.2556748  67.2896143
 100.2967057  25.7397247  67.3886933 103.8704120  25.9125664  68.0676587
 103.7536504  26.8571097  67.9655277 103.0496567  25.6099226  68.4562386
 104.8958634  26.5653926  71.2832516 105.7985881  26.5977537  71.5999011
 104.6696004  25.6354377  71.2978851 106.6512236  25.3184913  67.9442594
 105.7007867  25.3186775  67.8306966 106.9544723  24.5717647  67.4278629
 106.6135030  31.7237735  66.7207546 107.3006070  31.4099465  66.1328562
 106.4583159  32.6279099  66.4474798 106.1903007  29.8038328  68.9925013
 106.2287106  29.2701919  69.7862132 105.6843299  29.2773534  68.3735991
  34.4976834  56.2558859 112.0716065  33.8238532  56.5590556 112.6801023
  34.8842655  57.0587939 111.7221522  38.4033719  53.5409114 110.3443512
  38.3247351  53.2068978 111.2379270  39.2243386  54.0330882 110.3434984
  35.9737671  50.8577110 109.9653490  36.6773521  51.0627112 110.5811146
  35.2500320  51.4253872 110.2302574  39.1785165  63.6192195 118.0365543
  38.6150031  63.5282132 117.2681830  39.0637560  62.7992099 118.5168035
  44.7584724  67.2863162 113.3480007  44.1072704  67.8717243 112.9614021
  45.5529087  67.8169357 113.4075045  38.6840351  64.3752300 113.7467142
  39.4571227  63.8281287 113.6080018  39.0365750  65.2396549 113.9581603
  41.0206629  60.5344966 111.3785592  41.2732150  60.0126487 110.6169055
  40.0831188  60.3711111 111.4812275  46.0649912  59.5380744 119.1860335
  46.8513001  59.1200167 118.8350752  46.3288616  60.4426836 119.3541983
  46.2359989  64.9753594 113.8848992  45.6005822  65.0488221 114.5969896
  45.9057396  65.5647193 113.2068071  40.7402918  62.4373072 113.5809967
  40.6239176  61.7617975 114.2491051  40.8505178  61.9505446 112.7642120
  43.0834459  61.8983219 117.2856656  42.7192666  61.3713840 117.9969577
  43.9401575  61.5081688 117.1123141  42.7239946  56.9273118 112.2818004
  42.8914348  57.7953355 112.6488476  42.5337115  57.0900400 111.3579294
  42.7029167  59.3830776 113.2664671  42.5828792  59.8287827 114.1050152
  42.0081755  59.7316094 112.7078209  48.4014233  59.8552249 114.0945005
  49.3132089  60.0879636 113.9192703  47.8923880  60.4389293 113.5320084
  42.5611777  64.5752476 118.7508672  43.0250122  64.8540179 117.9613294
  42.2968575  63.6735920 118.5681763  41.4980663  60.6975628 115.5598237
  42.2004706  61.1496672 116.0272163  41.1661292  60.0559447 116.1878130
  42.7374428  67.5116571 115.6360342  42.6020102  68.3568106 116.0645190
  43.2784240  67.7135848 114.8726276  36.1903825  65.0292009 116.2088267
  36.7028346  65.8235259 116.3593832  36.8426538  64.3318299 116.1421869
  37.9998710  68.1457765 118.2911021  38.1765338  69.0675730 118.1032004
  38.7955543  67.8316184 118.7205400  46.0517174  61.0255744 112.6731671
  45.5363797  61.7960348 112.9120058  45.7794482  60.3520880 113.2964732
  51.0251448  63.7788098 114.6084844  50.2480891  63.4399258 114.1640006
  51.7042929  63.7840721 113.9339809  45.8403477  58.8982836 114.4991452
  45.5353613  59.2128985 115.3501595  46.7933919  58.9764256 114.5418785
  44.2849909  65.0573059 116.1484406  43.7571271  64.3225819 115.8357643
  43.7837412  65.8347735 115.9024374  39.3438224  57.7497186 112.5286903
  38.5075536  58.0871873 112.8496178  39.2042993  57.6146166 111.5914040
  42.4302509  62.8753269 109.1519379  41.5229571  62.6442523 109.3510528
  42.9273541  62.0790889 109.3393361  45.3370588  71.5850777 112.0716065
  44.6632287  71.8882473 112.6801023  45.7236410  72.3879857 111.7221522
  45.3364092  60.4807323 116.6916415  46.0835911  60.9928721 116.3823537
  45.6055682  60.1591376 117.5520808  43.6090743  62.9765864 113.6743369
  42.7001962  62.6924897 113.7715839  43.6385826  63.3964943 112.8146676
  47.7842930  57.5164440 118.6735204  47.0465686  57.0041826 119.0045447
  48.0369703  57.0764821 117.8618481  43.3066830  64.5174608 111.0131448
  42.8686260  63.8010467 110.5537085  44.0477271  64.7450723 110.4516539
  40.3642375  66.0792330 119.2639771  41.1582974  65.5842651 119.0622346
  39.6534068  65.5510194 118.9007476  36.6725139  60.2235412 115.3399523
  35.7422727  60.1619868 115.5569486  36.7682611  59.7011365 114.5436165
  47.4278058  63.3758990 110.6063505  46.8107229  62.6505818 110.5096558
  46.9594546  64.1368350 110.2630580  39.2176604  57.5944414 109.7284810
  38.3406070  57.4733215 109.3647056  39.6934357  56.8030492 109.4763698
  46.7966961  64.5137021 117.1919959  45.8623239  64.6338483 117.0224663
  46.9743629  63.6109488 116.9279969  50.1839512  60.3554340 117.7269993
  50.6499964  61.1882332 117.6530296  50.6347013  59.8899322 118.4315251
  48.2515743  66.6998161 114.7256145  48.5275587  66.5854756 115.6350019
  47.3820242  66.3015646 114.6868318  40.7753110  55.6547958 113.8605811
  41.4961472  56.0329211 113.3569528  40.1518414  56.3736835 113.9640789
  44.9184232  56.3593107 114.7964143  45.1347847  57.2417745 114.4952971
  44.4378300  55.9679320 114.0669785  39.8946792  66.7749881 114.7819235
  40.0434912  67.4585346 114.1285907  40.7013235  66.7554971 115.2968690
  37.6499425  62.8015059 115.7880303  37.4045467  61.8977389 115.9860514
  37.8195339  62.8032209 114.8459781  36.9195072  58.5343416 113.2866465
  36.2264317  58.6087771 112.6306501  36.6746824  57.7703760 113.8087982
  43.3942197  69.2698012 112.2530982  42.8216164  69.8888199 111.8001454
  43.9674991  69.8197373 112.7870904  46.6139457  69.5535162 113.3839564
  47.5470130  69.4880724 113.5872440  46.5262670  70.3891429 112.9254097
  49.2427474  68.8701032 110.3443512  49.1641105  68.5360896 111.2379270
  50.0637140  69.3622800 110.3434984  43.7788996  60.6058824 109.5947034
  44.7248100  60.4765033 109.6635453  43.4003241  59.8673486 110.0716463
  41.9631913  58.5308801 109.5301920  41.0563368  58.2341914 109.6064633
  42.2407894  58.2338619 108.6636206  40.7330697  55.3895736 109.6713899
  41.5949861  55.7150634 109.9309716  40.9181042  54.6027232 109.1586965
  48.8863334  54.2624263 116.8149122  48.3062003  54.9209067 116.4327174
  48.6199267  53.4401607 116.4036539  47.6688212  56.4224353 115.8705470
  46.7814067  56.7074004 115.6525665  48.0842201  56.2618116 115.0232747
  51.0202748  56.4470874 119.5859809  51.7963138  56.9367326 119.8584426
  50.2950882  56.8728928 120.0431679  46.8131425  66.1869028 109.9653490
  47.5167276  66.3919030 110.5811146  46.0894074  66.7545789 110.2302574
  47.6429236  61.9378889 116.0855760  47.5864437  62.3947440 115.2463393
  48.1957578  61.1769573 115.9078603  51.4534042  57.7268621 116.9105880
  51.1970976  57.3265256 117.7414088  50.8286910  58.4412415 116.7856019
  48.7218123  66.6251557 112.0151950  49.5563727  66.1932755 111.8329425
  48.5602466  66.4533570 112.9428845  48.3764015  63.1283670 113.3808290
  48.3212819  62.9627942 112.4396734  47.7510070  63.8359703 113.5370479
  41.6860140  52.6291779 112.9593608  41.6738810  53.5733619 113.1161879
  42.5783562  52.4461924 112.6653069  50.0570358  72.9236331 109.7284810
  49.1799825  72.8025132 109.3647056  50.5328111  72.1322410 109.4763698
  52.8025667  73.8600719 109.5301920  51.8957123  73.5633831 109.6064633
  53.0801648  73.5630537 108.6636206  51.5724452  70.7187654 109.6713899
  52.4343616  71.0442552 109.9309716  51.7574796  69.9319150 109.1586965
  34.4976835  33.2620981  98.7961372  33.8238534  33.5652678  99.4046330
  34.8842657  34.0650062  98.4466829  38.4033720  30.5471237  97.0688818
  38.3247352  30.2131101  97.9624576  39.2243387  31.0393005  97.0680291
  35.9737672  27.8639232  96.6898797  36.6773522  28.0689235  97.3056452
  35.2500321  28.4315994  96.9547880  39.1785167  40.6254317 104.7610849
  38.6150032  40.5344254 103.9927137  39.0637562  39.8054222 105.2413342
  44.7584725  44.2925285 100.0725314  44.1072705  44.8779365  99.6859328
  45.5529088  44.8231480 100.1320352  38.6840353  41.3814422 100.4712448
  39.4571229  40.8343409 100.3325324  39.0365751  42.2458671 100.6826910
  41.0206630  37.5407088  98.1030898  41.2732151  37.0188610  97.3414361
  40.0831189  37.3773234  98.2057582  46.0649913  36.5442867 105.9105642
  46.8513002  36.1262290 105.5596059  46.3288617  37.4488959 106.0787290
  46.2359991  41.9815717 100.6094298  45.6005824  42.0550343 101.3215203
  45.9057397  42.5709316  99.9313378  51.4658340  36.4818100 106.8138620
  52.1983512  35.9117317 107.0476450  50.7097696  36.0939700 107.2545126
  40.7402919  39.4435194 100.3055273  40.6239177  38.7680098 100.9736358
  40.8505179  38.9567568  99.4887426  43.0834460  38.9045341 104.0101963
  42.7192667  38.3775962 104.7214884  43.9401576  38.5143810 103.8368448
  42.7239947  33.9335241  99.0063311  42.8914349  34.8015477  99.3733782
  42.5337116  34.0962523  98.0824600  42.7029168  36.3892899  99.9909978
  42.5828793  36.8349949 100.8295458  42.0081756  36.7378216  99.4323516
  40.4636060  49.1596540 103.6400109  40.3860090  50.1104365 103.7188590
  39.8597704  48.8142413 104.2975035  48.4014234  36.8614372 100.8190312
  49.3132090  37.0941758 100.6438010  47.8923881  37.4451416 100.2565391
  47.0083816  41.8440190 108.2103893  46.3792679  42.0085904 107.5079961
  46.6209478  42.2581800 108.9814857  50.8873048  42.7794628 105.5648257
  50.2024086  43.1593529 105.0145291  50.9716898  43.3889955 106.2980205
  42.5611778  41.5814598 105.4753979  43.0250124  41.8602301 104.6858601
  42.2968576  40.6798043 105.2927069  41.4980664  37.7037751 102.2843544
  42.2004708  38.1558794 102.7517470  41.1661293  37.0621569 102.9123437
  49.2569808  43.3026542 110.3365958  50.0787252  42.9006730 110.0548640
  49.2532211  43.1994777 111.2882074  57.3475801  39.6465291 106.6850930
  56.5939509  39.0772689 106.5294934  57.4823342  39.6127955 107.6321564
  42.7374429  44.5178693 102.3605649  42.6020104  45.3630229 102.7890497
  43.2784241  44.7197971 101.5971583  36.1903826  42.0354131 102.9333574
  36.7028347  42.8297382 103.0839139  36.8426539  41.3380422 102.8667175
  37.9998711  45.1519888 105.0156327  38.1765339  46.0737852 104.8277311
  38.7955545  44.8378307 105.4450707  46.0517175  38.0317866  99.3976977
  45.5363799  38.8022471  99.6365365  45.7794484  37.3583002 100.0210039
  51.0251449  40.7850221 101.3330151  50.2480892  40.4461380 100.8885313
  51.7042930  40.7902844 100.6585116  45.8403478  35.9044958 101.2236759
  45.5353614  36.2191108 102.0746902  46.7933920  35.9826378 101.2664092
  44.2849910  42.0635182 102.8729713  43.7571272  41.3287941 102.5602950
  43.7837413  42.8409858 102.6269681  49.2642756  40.2584202 107.9896759
  48.6066431  40.9483464 108.0776888  50.0683155  40.6480634 108.3330745
  48.0748215  38.6128575 106.0400701  48.5880097  39.2458567 106.5422410
  48.7249439  38.0129770 105.6744061  39.3438225  34.7559309  99.2532209
  38.5075537  35.0933996  99.5741484  39.2042995  34.6208289  98.3159346
  42.4302510  39.8815392  95.8764686  41.5229572  39.6504645  96.0755835
  42.9273542  39.0853011  96.0638667  45.3370589  48.5912899  98.7961372
  44.6632288  48.8944596  99.4046330  45.7236411  49.3941979  98.4466829
  45.3364094  37.4869446 103.4161721  46.0835913  37.9990843 103.1068844
  45.6055683  37.1653499 104.2766115  43.6090744  39.9827987 100.3988676
  42.7001963  39.6987020 100.4961145  43.6385828  40.4027065  99.5391983
  48.8410011  43.5934576 104.1679843  48.3872338  42.7525486 104.2245034
  48.2103978  44.2295975 104.5054623  47.7842931  34.5226562 105.3980511
  47.0465688  34.0103949 105.7290753  48.0369704  34.0826944 104.5863788
  47.2842950  45.4311073 105.1029661  47.5765925  45.9916130 104.3842027
  47.7941571  45.7239634 105.8582821  43.3066832  41.5236730  97.7376754
  42.8686262  40.8072589  97.2782392  44.0477272  41.7512845  97.1761846
  42.2476576  46.2091424 106.1923115  42.2052754  46.4352270 105.2631647
  43.1639275  45.9754799 106.3408916  51.4239946  39.7993927 103.7953073
  51.2857845  39.9895523 102.8674262  51.0676165  40.5613310 104.2521124
  51.4509326  41.8670455 108.8064344  51.8845833  41.7745744 109.6547398
  52.1640907  41.8427955 108.1684360  40.3642376  43.0854453 105.9885077
  41.1582975  42.5904773 105.7867652  39.6534069  42.5572316 105.6252783
  45.1837221  45.4672549 110.3397445  45.2374243  46.0363485 111.1075161
  44.3152002  45.6374434 109.9751482  36.6725140  37.2297535 102.0644830
  35.7422728  37.1681990 102.2814792  36.7682612  36.7073488 101.2681471
  43.5361804  48.7592572 101.0108451  43.7113560  48.2880615 101.8254074
  42.8494592  49.3858338 101.2389712  44.4918868  43.0365078 107.0571752
  44.1568700  42.9965848 107.9529402  43.9922813  42.3709794 106.5842162
  47.4278059  40.3821112  97.3308812  46.8107230  39.6567940  97.2341865
  46.9594548  41.1430472  96.9875886  38.1022890  51.9081934 107.7848311
  38.3419488  52.5400458 108.4627330  37.2592086  51.5569974 108.0713670
  39.2176605  34.6006536  96.4530116  38.3406071  34.4795337  96.0892363
  39.6934358  33.8092615  96.2009005  42.6150752  47.7161057 110.1889815
  42.5420923  48.5216028 110.7009120  42.1728145  47.9153023 109.3637837
  42.4040531  46.9532827 103.6992637  41.6208053  47.4954507 103.7930861
  43.1033276  47.4706806 104.0986878  53.5666939  38.4667822 107.9845134
  53.5556815  39.3492537 107.6139067  52.6984318  38.1139373 107.7899671
  45.0749435  47.6147891 112.3447974  45.7877407  48.2495356 112.2723875
  44.5839464  47.7111757 111.5287976  46.7966962  41.5199143 103.9165265
  45.8623241  41.6400606 103.7469970  46.9743630  40.6171610 103.6525275
  50.1839513  37.3616463 104.4515300  50.6499966  38.1944454 104.3775602
  50.6347014  36.8961444 105.1560558  48.2515744  43.7060284 101.4501452
  48.5275588  43.5916879 102.3595326  47.3820243  43.3077769 101.4113625
  44.8869808  47.9546635 105.0934265  45.0692203  47.1368291 105.5562018
  45.7102794  48.1714327 104.6559155  45.2211974  46.8814820 102.3549314
  45.7499740  46.3707275 101.7419476  45.4840194  46.5657350 103.2194847
  38.5767722  47.9329937 105.1147090  37.9078097  48.4176064 104.6311130
  38.4380592  48.1799157 106.0290468  42.7172990  49.9673680 111.7129748
  43.2691299  50.1305302 112.4778833  43.0579184  50.5578118 111.0409773
  45.8541378  47.9155656 108.6993430  45.7292517  47.1145396 108.1904376
  46.5120469  48.4101849 108.2107400  47.9176286  45.7164676 110.3272980
  46.9706622  45.5970027 110.2551307  48.2659059  44.8287174 110.4099242
  44.9222719  45.5117392 106.5277333  44.7747682  44.5834099 106.7084903
  45.7476213  45.5337483 106.0434408  48.5256841  46.3345951 107.6142205
  49.4503389  46.1288812 107.4766656  48.3572145  46.0862352 108.5231547
  40.7753111  32.6610081 100.5851117  41.4961473  33.0391333 100.0814834
  40.1518415  33.3798958 100.6886095  44.9184234  33.3655230 101.5209450
  45.1347848  34.2479868 101.2198278  44.4378301  32.9741443 100.7915092
  48.3152158  46.8531618 102.9704297  48.4889035  46.2878041 102.2178149
  48.8081049  47.6532513 102.7883787  54.1691549  39.6168041 104.5894596
  54.6122695  38.8675366 104.1913720  53.2918059  39.6078178 104.2068328
  49.3027330  46.1698383 100.0701195  49.9978235  46.7905075 100.2888510
  49.6450480  45.3193734 100.3453573  51.2018753  43.6198088 101.5988526
  51.7270077  43.9585361 100.8737846  51.1141106  42.6845103 101.4151660
  42.8859414  49.6870071 105.9583779  42.4464404  49.1946450 106.6516636
  43.6367531  49.1443039 105.7175854  35.3651753  45.8781612 105.9608407
  36.1909773  45.5785384 105.5807051  35.0145805  45.1089235 106.4098196
  40.3333286  45.2308081 108.0306081  39.7113295  44.5678786 107.7308309
  41.0038153  45.2569212 107.3479728  39.8946793  43.7812004 101.5064541
  40.0434913  44.4647468 100.8531214  40.7013236  43.7617094 102.0213997
  53.7124413  41.0873279 106.9817044  54.5471305  41.5263084 107.1454604
  53.8483542  40.6111933 106.1625290  37.6499426  39.8077181 102.5125610
  37.4045468  38.9039511 102.7105820  37.8195340  39.8094332 101.5705088
  36.9195073  35.5405539 100.0111772  36.2264318  35.6149894  99.3551808
  36.6746825  34.7765883 100.5333288  43.3942198  46.2760134  98.9776289
  42.8216166  46.8950321  98.5246760  43.9674992  46.8259496  99.5116211
  46.6139458  46.5597284 100.1084871  47.5470131  46.4942846 100.3117746
  46.5262671  47.3953551  99.6499404  49.2427475  45.8763155  97.0688818
  49.1641106  45.5423018  97.9624576  50.0637142  46.3684923  97.0680291
  43.7788997  37.6120947  96.3192341  44.7248102  37.4827155  96.3880759
  43.4003242  36.8735609  96.7961769  57.7582216  39.8040901 109.4171174
  58.4885604  39.5426189 109.9778877  57.1489161  39.0669623 109.4573242
  55.8397513  37.9448763 110.0145625  55.1130677  37.8104728 109.4062117
  55.4244800  38.2525592 110.8202343  41.9631914  35.5370923  96.2547226
  41.0563369  35.2404036  96.3309940  42.2407895  35.2400742  95.3881513
  40.7330699  32.3957859  96.3959206  41.5949863  32.7212757  96.6555023
  40.9181043  31.6089355  95.8832271  48.8863335  31.2686385 103.5394429
  48.3062004  31.9271189 103.1572481  48.6199268  30.4463730 103.1281846
  47.6688213  33.4286475 102.5950777  46.7814068  33.7136126 102.3770972
  48.0842202  33.2680239 101.7478054  51.0202749  33.4532996 106.3105116
  51.7963139  33.9429449 106.5829733  50.2950884  33.8791051 106.7676986
  53.4575308  34.1660616 107.3679057  54.0519799  33.9256352 106.6572365
  53.5301892  33.4467746 107.9952593  35.6772464  48.0094227 107.6822221
  35.5426932  47.2494628 107.1160220  35.2604526  48.7335126 107.2151010
  46.8131427  43.1931150  96.6898797  47.5167277  43.3981153  97.3056452
  46.0894075  43.7607912  96.9547880  47.6429237  38.9441011 102.8101067
  47.5864438  39.4009563 101.9708699  48.1957579  38.1831696 102.6323910
  51.4534043  34.7330743 103.6351186  51.1970977  34.3327379 104.4659394
  50.8286911  35.4474537 103.5101326  55.7646381  37.4726817 106.1422478
  55.2045939  37.5420006 106.9154040  55.1589884  37.2967801 105.4221974
  38.8341590  48.9063544 107.8940664  38.7173974  49.8508976 107.7919354
  38.0134036  48.6037105 108.2826463  48.7218124  43.6313679  98.7397257
  49.5563728  43.1994878  98.5574732  48.5602467  43.4595693  99.6674151
  48.3764016  40.1345793 100.1053596  48.3212820  39.9690064  99.1642040
  47.7510072  40.8421826 100.2615786  41.6860142  29.6353902  99.6838915
  41.6738812  30.5795742  99.8407185  42.5783564  29.4524047  99.3898376
  39.8596104  49.5591806 111.1096593  40.7623350  49.5915416 111.4263088
  39.6333474  48.6292256 111.1242928  41.6149706  48.3122792 107.7706671
  40.6645337  48.3124654 107.6571043  41.9182192  47.5655527 107.2542706
  57.3502399  54.1483330 108.8352434  57.9880809  54.0290078 108.1315774
  57.2323242  55.0964174 108.8940386  54.1592105  54.1010759 108.7713958
  53.8210617  53.9851823 107.8834493  55.0281874  53.7001924 108.7514964
  50.0178921  55.9546235 104.7610849  49.4543786  55.8636172 103.9927137
  49.9031316  55.1346139 105.2413342  54.6411888  55.2545610 114.7300164
  54.6300529  54.8598409 113.8580667  54.8032528  54.5211683 115.3233935
  47.5643353  57.4497427 107.5995070  48.3564645  57.1088251 107.1841369
  47.8040003  57.5592402 108.5197223  55.5978480  59.6217203 100.0725314
  54.9466460  60.2071283  99.6859328  56.3922843  60.1523398 100.1320352
  49.5234107  56.7106340 100.4712448  50.2964983  56.1635327 100.3325324
  49.8759506  57.5750589 100.6826910  51.3619150  58.0382722 113.6779348
  51.0709016  58.9428353 113.5626014  51.9976134  58.0799250 114.3923417
  52.2875356  55.4159571 110.2680707  52.8838929  55.1915593 109.5537670
  52.3450328  54.6744316 110.8706155  51.8600385  52.8699006  98.1030898
  52.1125906  52.3480527  97.3414361  50.9224944  52.7065151  98.2057582
  56.9043668  51.8734784 105.9105642  57.6906757  51.4554207 105.5596059
  57.1682372  52.7780877 106.0787290  57.0753745  57.3107635 100.6094298
  56.4399578  57.3842261 101.3215203  56.7451151  57.9001233  99.9313378
  62.3052095  51.8110018 106.8138620  63.0377267  51.2409234 107.0476450
  61.5491450  51.4231618 107.2545126  51.5796674  54.7727112 100.3055273
  51.4632932  54.0972015 100.9736358  51.6898933  54.2859486  99.4887426
  53.9228215  54.2337259 104.0101963  53.5586422  53.7067880 104.7214884
  54.7795330  53.8435728 103.8368448  59.8277515  45.5231592 111.2733229
  59.4960840  46.3927003 111.0494444  59.2323129  45.2067876 111.9527259
  53.5633701  49.2627159  99.0063311  53.7308104  50.1307395  99.3733782
  53.3730871  49.4254440  98.0824600  56.3209035  57.7244138 110.6729141
  56.0209758  58.6269176 110.5644949  55.9760094  57.4576321 111.5250294
  49.7721516  54.1757934 106.7065846  48.8472013  54.0434149 106.9143538
  50.0205929  54.9552154 107.2035788  59.7206178  50.2426678 108.3526579
  58.8123056  50.1742086 108.0585340  59.6693774  50.7198623 109.1808404
  53.5422922  51.7184816  99.9909978  53.4222548  52.1641867 100.8295458
  52.8475511  52.0670134  99.4323516  47.1330327  53.8191208 107.5409635
  47.2622708  54.0725687 108.4549047  46.4527778  54.4118916 107.2214290
  51.3029814  64.4888458 103.6400109  51.2253844  65.4396283 103.7188590
  50.6991458  64.1434330 104.2975035  53.7947044  51.6616323 116.2961476
  53.0180378  52.2210244 116.2864341  54.4337607  52.1473106 116.8176346
  61.5867825  48.4443116 110.1304453  60.9442205  48.7375649 109.4844247
  61.0822753  48.3296037 110.9357649  59.2407989  52.1906289 100.8190312
  60.1525845  52.4233676 100.6438010  58.7317636  52.7743334 100.2565391
  52.0493417  54.4701777 115.8579443  52.7908101  55.0086821 115.5814267
  51.3430402  55.0968066 116.0150995  57.5248756  56.6130917 114.4551605
  57.9332112  56.1713328 113.7106237  56.8026018  56.0383545 114.7085797
  53.8779826  51.5503524 111.8285162  54.7241021  51.9742938 111.9719811
  53.8178464  50.8937148 112.5223725  57.8477571  57.1732108 108.2103893
  57.2186433  57.3377822 107.5079961  57.4603233  57.5873717 108.9814857
  61.7266803  58.1086546 105.5648257  61.0417841  58.4885447 105.0145291
  61.8110652  58.7181872 106.2980205  57.0279272  49.2107892 113.4866335
  56.7840203  49.9649953 112.9500611  57.3039202  49.5893240 114.3213582
  58.9817734  55.7546505 112.1643601  59.1934630  56.3978265 111.4877982
  58.9347483  54.9208821 111.6965531  56.5843963  48.3664325 109.0680173
  55.7228442  48.6645579 109.3596910  56.6106398  48.5834724 108.1361206
  53.4005533  56.9106516 105.4753979  53.8643878  57.1894219 104.6858601
  53.1362331  56.0089961 105.2927069  50.2929614  56.4577997 108.4133742
  50.8630971  56.8865266 107.7751226  50.8837726  56.1760582 109.1117927
  52.3374419  53.0329668 102.2843544  53.0398462  53.4850712 102.7517470
  52.0055047  52.3913487 102.9123437  50.7854780  51.6241425 116.6594753
  50.1553441  52.3057706 116.8930150  50.6790868  51.5124507 115.7147891
  46.0799753  51.2913221 107.5860677  45.2898807  51.5470750 107.1100788
  46.5711000  52.1061559 107.6912718  60.0963562  58.6318460 110.3365958
  60.9181006  58.2298647 110.0548640  60.0925965  58.5286694 111.2882074
  48.0314498  51.6557800 104.5444154  47.2345661  51.7676494 105.0627650
  47.8040090  51.9944452 103.6785044  53.8620166  58.1802503 112.4926669
  53.9264598  58.6422911 113.3284840  53.1531090  57.5499868 112.6208978
  44.3637456  51.5443711 110.0175668  44.6145494  52.4290721 110.2833244
  44.8997004  51.3648313 109.2450760  68.1869555  54.9757209 106.6850930
  67.4333264  54.4064607 106.5294934  68.3217097  54.9419873 107.6321564
  53.5768183  59.8470611 102.3605649  53.4413858  60.6922147 102.7890497
  54.1177996  60.0489889 101.5971583  47.0297581  57.3646049 102.9333574
  47.5422101  58.1589299 103.0839139  47.6820294  56.6672339 102.8667175
  48.8392465  60.4811805 105.0156327  49.0159094  61.4029770 104.8277311
  49.6349299  60.1670224 105.4450707  48.1244822  52.5276437 114.8918490
  48.0098337  51.6261694 115.1925589  47.2689340  52.7740134 114.5403307
  55.2036660  60.4694177 116.4905991  54.7600514  59.6830556 116.1726895
  55.8653873  60.6573328 115.8249882  49.9623781  61.9989979 111.0166669
  50.5131206  61.8707042 110.2443663  49.1235257  62.2984868 110.6661562
  57.3017898  60.7496977 114.5187392  57.2836373  61.5705858 114.0267661
  58.2237818  60.6251053 114.7437533  53.7590952  58.2641107 115.3610901
  54.2919289  57.5029395 115.1310209  53.2305033  57.9714759 116.1035055
  56.9260647  43.3701173 110.8904542  56.5824916  44.2602814 110.8143653
  57.2939610  43.1802830 110.0274127  44.9946498  55.6934703 103.7093145
  45.8321720  56.1031712 103.4926852  45.1724765  54.7534145 103.6793338
  56.8910930  53.3609784  99.3976977  56.3757553  54.1314389  99.6365365
  56.6188238  52.6874920 100.0210039  54.4758041  48.2059485 104.4562216
  53.6199637  47.8166335 104.2767855  54.8884992  48.2851446 103.5962001
  56.0057187  45.7405828 108.8553776  55.5021983  45.7035963 108.0421581
  56.2987794  46.6498571 108.9150432  52.2500073  45.8244558 107.8619957
  53.1153070  45.6287366 107.5025847  52.3177582  45.5954909 108.7889314
  61.8645204  56.1142139 101.3330151  61.0874647  55.7753298 100.8885313
  62.5436685  56.1194762 100.6585116  56.6797233  51.2336876 101.2236759
  56.3747368  51.5483025 102.0746902  57.6327675  51.3118296 101.2664092
  55.1243665  57.3927099 102.8729713  54.5965026  56.6579859 102.5602950
  54.6231167  58.1701776 102.6269681  60.1036511  55.5876120 107.9896759
  59.4460185  56.2775381 108.0776888  60.9076910  55.9772552 108.3330745
  49.8562392  48.0546766 105.2336324  50.4306144  47.8321947 104.5009517
  50.4433375  48.1235460 105.9864925  58.9141970  53.9420493 106.0400701
  59.4273851  54.5750484 106.5422410  59.5643193  53.3421688 105.6744061
  50.1831979  50.0851227  99.2532209  49.3469292  50.4225913  99.5741484
  50.0436749  49.9500206  98.3159346  52.1585060  44.9288015 103.9611394
  51.5049472  44.6137032 103.3368008  52.1165534  44.3063755 104.6871217
  53.2696265  55.2107310  95.8764686  52.3623327  54.9796563  96.0755835
  53.7667297  54.4144929  96.0638667  56.1764344  63.9204817  98.7961372
  55.5026043  64.2236514  99.4046330  56.5630166  64.7233897  98.4466829
  55.3922800  51.4169948 108.2859041  54.4745362  51.6384895 108.1280729
  55.8082944  51.4916259 107.4270749  56.1757848  52.8161364 103.4161721
  56.9229667  53.3282761 103.1068844  56.4449438  52.4945416 104.2766115
  54.4484498  55.3119904 100.3988676  53.5395718  55.0278937 100.4961145
  54.4779582  55.7318983  99.5391983  59.6803766  58.9226494 104.1679843
  59.2266093  58.0817404 104.2245034  59.0497732  59.5587892 104.5054623
  58.6236685  49.8518480 105.3980511  57.8859442  49.3395866 105.7290753
  58.8763459  49.4118862 104.5863788  58.1236705  60.7602991 105.1029661
  58.4159679  61.3208048 104.3842027  58.6335326  61.0531552 105.8582821
  58.7248313  42.6294732 105.9922280  59.0307189  41.7692095 105.7048195
  59.4500917  43.2212352 105.7921274  45.0172669  53.0325419 104.3803878
  44.8197069  52.4394779 103.6554945  44.4619333  52.7277629 105.0979817
  52.9969392  52.9248525 106.4998471  53.0518002  51.9722361 106.4240948
  52.1860594  53.0807964 106.9839770  54.1460586  56.8528648  97.7376754
  53.7080016  56.1364507  97.2782392  54.8871027  57.0804763  97.1761846
  50.9361752  51.5425585 104.2588850  50.1229618  51.8419755 104.6654042
  51.4320746  51.1481274 104.9763332  53.0870330  61.5383342 106.1923115
  53.0446509  61.7644188 105.2631647  54.0033029  61.3046716 106.3408916
  56.5335964  52.0067409 113.0903744  56.8885352  52.2338882 113.9498210
  57.1808095  52.3385786 112.4680999  62.2633701  55.1285845 103.7953073
  62.1251599  55.3187441 102.8674262  61.9069920  55.8905228 104.2521124
  50.4275827  49.1143940 109.8750085  51.0675206  48.9732699 109.1773048
  49.5953358  48.8278454 109.4988687  62.2903081  57.1962372 108.8064344
  62.7239587  57.1037661 109.6547398  63.0034661  57.1719873 108.1684360
  51.2036131  58.4146371 105.9885077  51.9976729  57.9196691 105.7867652
  50.4927823  57.8864234 105.6252783  56.0230975  60.7964466 110.3397445
  56.0767998  61.3655403 111.1075161  55.1545757  60.9666351 109.9751482
  47.5118894  52.5589452 102.0644830  46.5816483  52.4973908 102.2814792
  47.6076366  52.0365405 101.2681471  47.4304443  49.0844265 104.6523072
  47.6911261  49.9989599 104.5432232  48.2521616  48.6168708 104.8019685
  48.9029369  50.4982022 111.8221896  49.5752422  50.2899385 111.1734545
  48.0759155  50.3004108 111.3827129  63.1518630  57.2386073 111.3397230
  63.3454520  58.1431883 111.5856505  63.0519248  56.7793492 112.1735815
  54.8054941  47.1243963 113.8387557  54.1582856  47.8233913 113.7452034
  55.5755956  47.5580107 114.2063805  54.9819075  54.9624728 111.8984377
  55.9111135  55.1135888 111.7253344  54.5610105  55.0508749 111.0433023
  53.7807407  58.9875393 109.6682914  53.6418493  58.6194177 110.5408853
  52.9922003  59.5023032 109.4966872  54.3755559  64.0884489 101.0108451
  54.5507315  63.6172532 101.8254074  53.6888347  64.7150255 101.2389712
  55.3312622  58.3656995 107.0571752  54.9962455  58.3257765 107.9529402
  54.8316568  57.7001711 106.5842162  49.3056866  53.7724625 112.5824333
  49.1676664  53.0404864 113.1835872  50.2161790  53.6833526 112.3008521
  58.2671814  55.7113030  97.3308812  57.6500984  54.9859858  97.2341865
  57.7988302  56.4722390  96.9875886  51.9339167  53.4844585 112.0708013
  52.6438785  52.8437777 112.0294631  51.8908475  53.7357480 112.9934194
  50.6468101  50.4709803 113.8903653  50.1105458  50.0200541 114.5425249
  50.0584809  50.6055712 113.1474117  48.9416644  67.2373852 107.7848311
  49.1813242  67.8692376 108.4627330  48.0985841  66.8861892 108.0713670
  50.0570360  49.9298454  96.4530116  49.1799826  49.8087255  96.0892363
  50.5328113  49.1384532  96.2009005  59.9243353  58.3851522 113.2228572
  59.0370131  58.0477444 113.3454971  60.4941904  57.6534553 113.4597337
  41.5772500  54.7175614 106.5471623  42.2643540  54.4037344 105.9592639
  41.4220628  55.6216978 106.2738875  46.3807222  49.6065810 110.9756647
  46.2965411  48.9991480 110.2407057  45.5589928  50.0974829 110.9766143
  53.4544506  63.0452974 110.1889815  53.3814678  63.8507946 110.7009120
  53.0121899  63.2444940 109.3637837  53.2434286  62.2824744 103.6992637
  52.4601808  62.8246425 103.7930861  53.9427031  62.7998724 104.0986878
  56.5530936  48.0919374 106.3426842  57.0499635  47.3389336 106.0227912
  55.7817917  48.1283691 105.7770051  64.4060693  53.7959739 107.9845134
  64.3950569  54.6784455 107.6139067  63.5378073  53.4431290 107.7899671
  55.9143190  62.9439808 112.3447974  56.6271162  63.5787273 112.2723875
  55.4233218  63.0403674 111.5287976  57.6360716  56.8491061 103.9165265
  56.7016995  56.9692524 103.7469970  57.8137385  55.9463528 103.6525275
  53.1365905  50.2336757 106.0698527  52.7663692  49.6807797 106.7579432
  53.6324997  49.6294890 105.5173527  61.0233268  52.6908380 104.4515300
  61.4893720  53.5236372 104.3775602  61.4740768  52.2253362 105.1560558
  50.9655103  60.6934252 113.1653545  51.6664563  61.3270735 113.3182939
  50.4950218  61.0348983 112.4049184  59.0909499  59.0352202 101.4501452
  59.3669343  58.9208796 102.3595326  58.2213998  58.6369687 101.4113625
  58.9949931  45.0588967 108.4906201  58.0813010  45.2893194 108.6588408
  59.4243032  45.1427411 109.3420233  58.7656389  53.2478859 110.9906095
  58.1127839  53.4954767 110.3358548  59.1436769  52.4342998 110.6568572
  55.7263563  63.2838553 105.0934265  55.9085957  62.4660208 105.5562018
  56.5496549  63.5006245 104.6559155  56.0605728  62.2106738 102.3549314
  56.5893495  61.6999192 101.7419476  56.3233948  61.8949268 103.2194847
  54.8143962  53.9898670 117.4772132  54.1384599  53.8892800 118.1474507
  55.6371596  53.8337884 117.9408129  46.5622821  60.2270607 110.0984647
  47.1476258  59.4814295 110.2312552  46.3647660  60.5374564 110.9821311
  49.4161476  63.2621854 105.1147090  48.7471852  63.7467982 104.6311130
  49.2774346  63.5091075 106.0290468  41.1540476  52.7976207 108.8189090
  41.1924575  52.2639798 109.6126209  40.6480769  52.2711413 108.2000068
  53.5566745  65.2965598 111.7129748  54.1085053  65.4597219 112.4778833
  53.8972938  65.8870036 111.0409773  48.5331238  47.6440748 112.3151633
  48.5972565  48.5055579 111.9029030  48.4698358  47.0314749 111.5823991
  44.7849053  51.5240309 101.8943022  45.0802495  50.6150988 101.8410076
  43.8837089  51.5028049 101.5724024  56.6935132  63.2447573 108.6993430
  56.5686272  62.4437313 108.1904376  57.3514223  63.7393767 108.2107400
  48.3143300  49.5996306 107.8770570  47.5929886  50.2132274 107.7378044
  49.1036556  50.1354071 107.7987216  58.7570041  61.0456593 110.3272980
  57.8100376  60.9261945 110.2551307  59.1052814  60.1579092 110.4099242
  51.1169614  46.9350732 114.1511222  51.6404016  47.1813029 114.9137532
  50.8981947  47.7670767 113.7314360  46.5136895  49.2054407 102.0182347
  46.1849601  48.3251786 101.8357453  46.8676266  49.1502076 102.9058736
  55.7616474  60.8409310 106.5277333  55.6141436  59.9126017 106.7084903
  56.5869967  60.8629400 106.0434408  49.6278718  49.4927377 102.3857825
  49.9674791  50.0213298 101.6636433  50.0750839  49.8307783 103.1616391
  59.3650596  61.6637868 107.6142205  60.2897143  61.4580730 107.4766656
  59.1965899  61.4154270 108.5231547  52.3222159  47.8764428 111.8360893
  51.9818979  47.0772241 112.2381573  51.6161165  48.1766138 111.2637726
  52.9738631  44.9613740 110.2888216  53.7964700  44.4874218 110.1667106
  53.2176694  45.7404224 110.7886902  51.6146865  47.9901998 100.5851117
  52.3355228  48.3683251 100.0814834  50.9912169  48.7090875 100.6886095
  55.7577988  48.6947147 101.5209450  55.9741603  49.5771785 101.2198278
  55.2772055  48.3033361 100.7915092  50.4977210  51.6532861 108.0980194
  50.3521790  51.9673164 108.9904476  50.0202413  52.2717761 107.5451093
  52.3573593  48.6435409 108.1461084  52.3435161  47.7476502 107.8093382
  53.0746021  48.6506072 108.7799370  54.2099723  49.0772749 110.1914211
  53.9517501  49.9989819 110.1898542  53.6784764  48.6803183 110.8814675
  59.1545912  62.1823536 102.9704297  59.3282790  61.6169958 102.2178149
  59.6474803  62.9824431 102.7883787  44.9722872  54.1938205 111.0367856
  44.4276340  54.9698013 111.1688130  45.8502222  54.5409009 110.8786977
  51.7610488  47.5249789 103.4148654  51.8826400  46.5966435 103.6139542
  51.4712531  47.5388475 102.5026969  54.6301679  45.2104699 106.5515374
  54.6523376  45.2744032 105.5967353  55.0469738  44.3709208 106.7455880
  65.0085303  54.9459959 104.5894596  65.4516449  54.1967284 104.1913720
  64.1311813  54.9370095 104.2068328  60.1421084  61.4990300 100.0701195
  60.8371989  62.1196993 100.2888510  60.4844235  60.6485652 100.3453573
  45.7588894  53.3208101 113.9298012  45.0170630  53.4690737 114.5162643
  45.4381638  53.5816367 113.0664762  62.0412508  58.9490006 101.5988526
  62.5663832  59.2877279 100.8737846  61.9534860  58.0137021 101.4151660
  53.7032556  62.8624079 113.7278402  54.0119683  62.6173226 114.6001102
  54.5008038  63.0670718 113.2397273  53.7253168  65.0161989 105.9583779
  53.2858159  64.5238368 106.6516636  54.4761285  64.4734957 105.7175854
  46.2045507  61.2073530 105.9608407  47.0303527  60.9077302 105.5807051
  45.8539559  60.4381152 106.4098196  51.1727040  60.5599998 108.0306081
  50.5507050  59.8970703 107.7308309  51.8431907  60.5861130 107.3479728
  44.4054112  59.1259856 106.9197341  43.5686021  58.6982031 106.7381342
  44.3777758  59.3192300 107.8568132  61.8504289  56.4315376 114.2172452
  61.9002294  56.2665383 115.1587975  61.7418212  55.5642635 113.8270333
  50.7340547  59.1103922 101.5064541  50.8828668  59.7939386 100.8531214
  51.5406991  59.0909012 102.0213997  59.1408051  52.4146304 115.5331759
  60.0417914  52.2752769 115.2415757  59.2156026  52.5800759 116.4729936
  53.4750856  49.7913159 114.3784945  52.6054166  50.0846725 114.1067534
  53.7110337  50.3753604 115.0992209  64.5518168  56.4165197 106.9817044
  65.3865059  56.8555001 107.1454604  64.6877297  55.9403850 106.1625290
  61.6009674  53.9744932 112.9294532  62.0763795  54.1672578 112.1213383
  60.6775239  54.0304118 112.6837915  48.4893180  55.1369099 102.5125610
  48.2439222  54.2331429 102.7105820  48.6589095  55.1386250 101.5705088
  56.1789890  46.0092776 111.8950366  56.6971834  46.7453802 111.5696854
  55.8245023  46.3156769 112.7297125  47.7588828  50.8697457 100.0111772
  47.0658073  50.9441812  99.3551808  47.5140580  50.1057800 100.5333288
  56.4302484  42.4293058 107.4151262  56.7104238  41.7616247 108.0411689
  57.2153091  42.6222154 106.9025926  54.2335953  61.6052052  98.9776289
  53.6609920  62.2242239  98.5246760  54.8068747  62.1551414  99.5116211
  60.3011343  50.8510692 111.1622837  61.2528766  50.9508790 111.1835061
  60.1314793  50.0588961 111.6720922  58.3225722  47.9366275 111.3482238
  57.7275654  48.2171288 110.6528727  58.0375419  48.4260176 112.1198979
  57.4533213  61.8889202 100.1084871  58.3863886  61.8234764 100.3117746
  57.3656426  62.7245469  99.6499404  60.0821229  61.2055072  97.0688818
  60.0034861  60.8714936  97.9624576  60.9030896  61.6976840  97.0680291
  62.7799421  54.0716812 110.2765137  62.7475741  53.1332812 110.4624821
  63.3900044  54.1500848 109.5430962  54.6182751  52.9412865  96.3192341
  55.5641856  52.8119073  96.3880759  54.2396996  52.2027527  96.7961769
  62.9293909  50.8627855 110.3223420  62.4132958  50.0786312 110.1353349
  63.8133858  50.5346572 110.4869940  60.5904636  44.6068871 106.2819233
  60.3929457  44.2983959 107.1662565  61.2004342  45.3330510 106.4117163
  68.5975970  55.1332819 109.4171174  69.3279359  54.8718107 109.9778877
  67.9882916  54.3961541 109.4573242  66.6791268  53.2740681 110.0145625
  65.9524431  53.1396646 109.4062117  66.2638554  53.5817510 110.8202343
  54.5021444  56.9930611 117.7792998  55.4224453  57.1709210 117.9733045
  54.4671027  56.0486656 117.6272697  52.8025669  50.8662841  96.2547226
  51.8957124  50.5695954  96.3309940  53.0801650  50.5692659  95.3881513
  43.7203609  52.1869205 106.7046273  43.4006393  51.3334513 106.4120647
  43.1737037  52.4017783 107.4604240  47.4983517  54.9031646 110.4215779
  47.7169526  55.8348753 110.4403813  47.9109290  54.5439620 111.2070583
  54.4187734  45.4099731 102.4091468  53.6088463  45.0646816 102.7846714
  55.1072151  45.1007275 102.9979079  56.3478283  44.4877778 104.0315764
  56.9009321  44.9073231 104.6905787  56.5848369  43.5613526 104.0738720
  51.5724453  47.7249776  96.3959206  52.4343617  48.0504675  96.6555023
  51.7574797  46.9381272  95.8832271  43.5891869  55.8072116 108.6739394
  42.8955340  55.3926069 108.1609349  44.3364860  55.8492653 108.0772813
  59.7257090  46.5978303 103.5394429  59.1455759  47.2563107 103.1572481
  59.4593022  45.7755647 103.1281846  58.1760656  45.9983361 105.7415749
  58.6760434  46.1099895 104.9330068  58.8196264  45.6944413 106.3816557
  52.2342652  53.9061990 118.6283590  51.7509734  54.7062350 118.8347479
  52.3203591  53.9169935 117.6751034  45.5028611  55.7390370 106.5505409
  45.4799300  55.8378057 105.5987292  45.8129248  56.5855521 106.8722575
  48.1615989  57.7966525 110.6652024  49.1159243  57.7650467 110.5981955
  47.9628513  57.3357149 111.4802250  48.7515371  56.3667641 113.2322821
  49.5708260  56.8611720 113.2557659  49.0252179  55.4499609 113.2040389
  58.5081968  48.7578393 102.5950777  57.6207823  49.0428044 102.3770972
  58.9235957  48.5972157 101.7478054  61.8596504  48.7824914 106.3105116
  62.6356894  49.2721367 106.5829733  61.1344638  49.2082968 106.7676986
  64.2969062  49.4952533 107.3679057  64.8913553  49.2548269 106.6572365
  64.3695646  48.7759664 107.9952593  46.5166218  63.3386144 107.6822221
  46.3820686  62.5786545 107.1160220  46.0998280  64.0627044 107.2151010
  57.6525181  58.5223068  96.6898797  58.3561031  58.7273070  97.3056452
  56.9287830  59.0899830  96.9547880  58.4822991  54.2732929 102.8101067
  58.4258193  54.7301481 101.9708699  59.0351334  53.5123614 102.6323910
  62.2927797  50.0622661 103.6351186  62.0364732  49.6619297 104.4659394
  61.6680665  50.7766455 103.5101326  66.6040135  52.8018734 106.1422478
  66.0439693  52.8711924 106.9154040  65.9983639  52.6259719 105.4221974
  49.6735344  64.2355461 107.8940664  49.5567728  65.1800894 107.7919354
  48.8527790  63.9329023 108.2826463  59.5611879  58.9605597  98.7397257
  60.3957483  58.5286796  98.5574732  59.3996221  58.7887611  99.6674151
  59.2157771  55.4637710 100.1053596  59.1606575  55.2981982  99.1642040
  58.5903826  56.1713743 100.2615786  52.5253896  44.9645819  99.6838915
  52.5132566  45.9087659  99.8407185  53.4177318  44.7815965  99.3898376
  50.6989858  64.8883723 111.1096593  51.6017105  64.9207333 111.4263088
  50.4727228  63.9584174 111.1242928  52.4543460  63.6414710 107.7706671
  51.5039091  63.6416571 107.6571043  52.7575946  62.8947444 107.2542706
  56.3406016  41.5588596 103.9384851  55.5738411  41.0047083 104.0841534
  56.7516721  41.6310465 104.7999003  60.8572676  71.2838153 104.7610849
  60.2937541  71.1928090 103.9927137  60.7425071  70.4638057 105.2413342
  66.4372234  74.9509120 100.0725314  65.7860214  75.5363201  99.6859328
  67.2316597  75.4815315 100.1320352  60.3627862  72.0398258 100.4712448
  61.1358738  71.4927245 100.3325324  60.7153260  72.9042507 100.6826910
  62.6994139  68.1990924  98.1030898  62.9519660  67.6772445  97.3414361
  61.7618698  68.0357069  98.2057582  67.7437422  67.2026702 105.9105642
  68.5300511  66.7846125 105.5596059  68.0076126  68.1072794 106.0787290
  67.9147500  72.6399552 100.6094298  67.2793332  72.7134179 101.3215203
  67.5844906  73.2293151  99.9313378  62.4190428  70.1019030 100.3055273
  62.3026686  69.4263933 100.9736358  62.5292688  69.6151404  99.4887426
  64.7621969  69.5629177 104.0101963  64.3980176  69.0359798 104.7214884
  65.6189085  69.1727646 103.8368448  64.4027456  64.5919076  99.0063311
  64.5701858  65.4599313  99.3733782  64.2124625  64.7546358  98.0824600
  60.6115271  69.5049852 106.7065846  59.6865767  69.3726066 106.9143538
  60.8599684  70.2844071 107.2035788  64.3816677  67.0476734  99.9909978
  64.2616302  67.4933785 100.8295458  63.6869265  67.3962052  99.4323516
  57.9724082  69.1483126 107.5409635  58.1016463  69.4017605 108.4549047
  57.2921533  69.7410834 107.2214290  70.0801743  67.5198207 100.8190312
  70.9919599  67.7525594 100.6438010  69.5711390  68.1035251 100.2565391
  67.4237718  63.6956243 109.0680173  66.5622197  63.9937497 109.3596910
  67.4500152  63.9126642 108.1361206  64.2399287  72.2398434 105.4753979
  64.7037633  72.5186137 104.6858601  63.9756085  71.3381878 105.2927069
  63.1768173  68.3621586 102.2843544  63.8792217  68.8142630 102.7517470
  62.8448802  67.7205405 102.9123437  56.9193507  66.6205139 107.5860677
  56.1292561  66.8762667 107.1100788  57.4104755  67.4353477 107.6912718
  58.8708253  66.9849718 104.5444154  58.0739416  67.0968412 105.0627650
  58.6433845  67.3236370 103.6785044  55.2031210  66.8735629 110.0175668
  55.4539249  67.7582639 110.2833244  55.7390759  66.6940231 109.2450760
  64.4161938  75.1762529 102.3605649  64.2807613  76.0214064 102.7890497
  64.9571750  75.3781806 101.5971583  57.8691335  72.6937967 102.9333574
  58.3815856  73.4881217 103.0839139  58.5214048  71.9964257 102.8667175
  59.6786220  75.8103723 105.0156327  59.8552848  76.7321688 104.8277311
  60.4743053  75.4962142 105.4450707  67.7654401  58.6993090 110.8904542
  67.4218671  59.5894732 110.8143653  68.1333364  58.5094748 110.0274127
  55.8340252  71.0226621 103.7093145  56.6715474  71.4323629 103.4926852
  56.0118520  70.0826063 103.6793338  67.7304684  68.6901702  99.3976977
  67.2151308  69.4606306  99.6365365  67.4581993  68.0166838 100.0210039
  65.3151795  63.5351402 104.4562216  64.4593392  63.1458253 104.2767855
  65.7278747  63.6143363 103.5962001  66.8450942  61.0697746 108.8553776
  66.3415737  61.0327881 108.0421581  67.1381549  61.9790488 108.9150432
  63.0893828  61.1536475 107.8619957  63.9546824  60.9579284 107.5025847
  63.1571337  60.9246827 108.7889314  72.7038958  71.4434056 101.3330151
  71.9268401  71.1045216 100.8885313  73.3830439  71.4486679 100.6585116
  67.5190987  66.5628794 101.2236759  67.2141123  66.8774943 102.0746902
  68.4721429  66.6410214 101.2664092  65.9637419  72.7219017 102.8729713
  65.4358781  71.9871777 102.5602950  65.4624922  73.4993693 102.6269681
  60.6956147  63.3838683 105.2336324  61.2699899  63.1613865 104.5009517
  61.2827129  63.4527378 105.9864925  61.0225734  65.4143144  99.2532209
  60.1863046  65.7517831  99.5741484  60.8830504  65.2792124  98.3159346
  62.9978815  60.2579932 103.9611394  62.3443227  59.9428949 103.3368008
  62.9559289  59.6355673 104.6871217  64.1090019  70.5399227  95.8764686
  63.2017081  70.3088481  96.0755835  64.6061051  69.7436847  96.0638667
  67.0158098  79.2496734  98.7961372  66.3419797  79.5528431  99.4046330
  67.4023920  80.0525815  98.4466829  66.2316555  66.7461866 108.2859041
  65.3139116  66.9676813 108.1280729  66.6476698  66.8208176 107.4270749
  67.0151603  68.1453281 103.4161721  67.7623422  68.6574679 103.1068844
  67.2843192  67.8237334 104.2766115  65.2878253  70.6411822 100.3988676
  64.3789472  70.3570855 100.4961145  65.3173337  71.0610901  99.5391983
  69.4630440  65.1810398 105.3980511  68.7253197  64.6687784 105.7290753
  69.7157213  64.7410779 104.5863788  69.5642067  57.9586650 105.9922280
  69.8700944  57.0984013 105.7048195  70.2894672  58.5504270 105.7921274
  55.8566423  68.3617336 104.3803878  55.6590823  67.7686697 103.6554945
  55.3013087  68.0569546 105.0979817  63.8363147  68.2540443 106.4998471
  63.8911757  67.3014279 106.4240948  63.0254349  68.4099882 106.9839770
  64.9854341  72.1820566  97.7376754  64.5473771  71.4656425  97.2782392
  65.7264781  72.4096681  97.1761846  61.7755507  66.8717502 104.2588850
  60.9623372  67.1711673 104.6654042  62.2714501  66.4773191 104.9763332
  61.2669582  64.4435858 109.8750085  61.9068961  64.3024617 109.1773048
  60.4347112  64.1570371 109.4988687  62.0429885  73.7438288 105.9885077
  62.8370484  73.2488609 105.7867652  61.3321578  73.2156152 105.6252783
  58.3512649  67.8881370 102.0644830  57.4210237  67.8265826 102.2814792
  58.4470121  67.3657323 101.2681471  58.2698198  64.4136183 104.6523072
  58.5305015  65.3281516 104.5432232  59.0915370  63.9460626 104.8019685
  69.1065568  71.0404947  97.3308812  68.4894739  70.3151776  97.2341865
  68.6382057  71.8014308  96.9875886  60.8964114  65.2590372  96.4530116
  60.0193580  65.1379173  96.0892363  61.3721867  64.4676450  96.2009005
  52.4166254  70.0467531 106.5471623  53.1037294  69.7329262 105.9592639
  52.2614383  70.9508896 106.2738875  57.2200976  64.9357728 110.9756647
  57.1359165  64.3283398 110.2407057  56.3983683  65.4266746 110.9766143
  67.3924690  63.4211292 106.3426842  67.8893390  62.6681254 106.0227912
  66.6211672  63.4575608 105.7770051  68.4754471  72.1782979 103.9165265
  67.5410750  72.2984441 103.7469970  68.6531139  71.2755446 103.6525275
  63.9759659  65.5628675 106.0698527  63.6057447  65.0099715 106.7579432
  64.4718751  64.9586808 105.5173527  71.8627022  68.0200298 104.4515300
  72.3287475  68.8528290 104.3775602  72.3134523  67.5545280 105.1560558
  69.9303253  74.3644119 101.4501452  70.2063097  74.2500714 102.3595326
  69.0607752  73.9661604 101.4113625  69.8343685  60.3880885 108.4906201
  68.9206765  60.6185112 108.6588408  70.2636787  60.4719329 109.3420233
  51.9934230  68.1268125 108.8189090  52.0318330  67.5931716 109.6126209
  51.4874523  67.6003330 108.2000068  59.3724993  62.9732665 112.3151633
  59.4366319  63.8347496 111.9029030  59.3092113  62.3606667 111.5823991
  55.6242808  66.8532227 101.8943022  55.9196249  65.9442905 101.8410076
  54.7230844  66.8319966 101.5724024  59.1537055  64.9288224 107.8770570
  58.4323641  65.5424191 107.7378044  59.9430311  65.4645988 107.7987216
  57.3530650  64.5346325 102.0182347  57.0243356  63.6543704 101.8357453
  57.7070020  64.4793993 102.9058736  60.4672473  64.8219294 102.3857825
  60.8068545  65.3505216 101.6636433  60.9144593  65.1599701 103.1616391
  63.8132385  60.2905658 110.2888216  64.6358455  59.8166136 110.1667106
  64.0570449  61.0696141 110.7886902  62.4540620  63.3193916 100.5851117
  63.1748982  63.6975169 100.0814834  61.8305924  64.0382793 100.6886095
  66.5971743  64.0239065 101.5209450  66.8135357  64.9063703 101.2198278
  66.1165810  63.6325278 100.7915092  61.3370964  66.9824778 108.0980194
  61.1915545  67.2965081 108.9904476  60.8596168  67.6009679 107.5451093
  63.1967347  63.9727326 108.1461084  63.1828916  63.0768420 107.8093382
  63.9139775  63.9797990 108.7799370  62.6004243  62.8541707 103.4148654
  62.7220154  61.9258353 103.6139542  62.3106285  62.8680392 102.5026969
  65.4695433  60.5396617 106.5515374  65.4917130  60.6035950 105.5967353
  65.8863492  59.7001126 106.7455880  57.0439262  76.5365448 105.9608407
  57.8697282  76.2369219 105.5807051  56.6933314  75.7673070 106.4098196
  55.2447867  74.4551774 106.9197341  54.4079775  74.0273948 106.7381342
  55.2171512  74.6484217 107.8568132  61.5734302  74.4395839 101.5064541
  61.7222422  75.1231304 100.8531214  62.3800745  74.4200929 102.0213997
  59.3286935  70.4661017 102.5125610  59.0832977  69.5623347 102.7105820
  59.4982849  70.4678167 101.5705088  58.5982582  66.1989374 100.0111772
  57.9051827  66.2733729  99.3551808  58.3534334  65.4349718 100.5333288
  67.2696239  57.7584976 107.4151262  67.5497993  57.0908165 108.0411689
  68.0546846  57.9514071 106.9025926  65.0729707  76.9343970  98.9776289
  64.5003675  77.5534157  98.5246760  65.6462501  77.4843331  99.5116211
  68.2926967  77.2181120 100.1084871  69.2257640  77.1526681 100.3117746
  68.2050180  78.0537387  99.6499404  70.9214984  76.5346990  97.0688818
  70.8428615  76.2006854  97.9624576  71.7424651  77.0268758  97.0680291
  65.4576506  68.2704782  96.3192341  66.4035611  68.1410991  96.3880759
  65.0790751  67.5319444  96.7961769  71.4298390  59.9360788 106.2819233
  71.2323212  59.6275877 107.1662565  72.0398096  60.6622427 106.4117163
  63.6419423  66.1954759  96.2547226  62.7350878  65.8987872  96.3309940
  63.9195404  65.8984577  95.3881513  54.5597363  67.5161122 106.7046273
  54.2400148  66.6626430 106.4120647  54.0130792  67.7309700 107.4604240
  65.2581489  60.7391649 102.4091468  64.4482217  60.3938733 102.7846714
  65.9465906  60.4299192 102.9979079  67.1872037  59.8169695 104.0315764
  67.7403076  60.2365149 104.6905787  67.4242123  58.8905443 104.0738720
  62.4118208  63.0541694  96.3959206  63.2737372  63.3796592  96.6555023
  62.5968552  62.2673190  95.8832271  54.4285623  71.1364034 108.6739394
  53.7349095  70.7217986 108.1609349  55.1758614  71.1784570 108.0772813
  70.5650844  61.9270220 103.5394429  69.9849513  62.5855024 103.1572481
  70.2986777  61.1047565 103.1281846  69.0154411  61.3275278 105.7415749
  69.5154189  61.4391813 104.9330068  69.6590018  61.0236331 106.3816557
  56.3422366  71.0682287 106.5505409  56.3193054  71.1669975 105.5987292
  56.6523002  71.9147438 106.8722575  69.3475722  64.0870311 102.5950777
  68.4601577  64.3719961 102.3770972  69.7629711  63.9264074 101.7478054
  72.6990258  64.1116832 106.3105116  73.4750648  64.6013284 106.5829733
  71.9738392  64.5374886 106.7676986  68.4918936  73.8514986  96.6898797
  69.1954786  74.0564988  97.3056452  67.7681584  74.4191747  96.9547880
  69.3216746  69.6024847 102.8101067  69.2651947  70.0593398 101.9708699
  69.8745088  68.8415531 102.6323910  73.1321552  65.3914579 103.6351186
  72.8758486  64.9911214 104.4659394  72.5074420  66.1058373 103.5101326
  70.4005633  74.2897515  98.7397257  71.2351237  73.8578713  98.5574732
  70.2389976  74.1179528  99.6674151  70.0551525  70.7929628 100.1053596
  70.0000329  70.6273899  99.1642040  69.4297581  71.5005661 100.2615786
  63.3647651  60.2937737  99.6838915  63.3526321  61.2379577  99.8407185
  64.2571073  60.1107882  99.3898376  67.1799770  56.8880514 103.9384851
  66.4132166  56.3339000 104.0841534  67.5910475  56.9602382 104.7999003
  71.7357869  80.5882289  96.4530116  70.8587335  80.4671090  96.0892363
  72.2115622  79.7968368  96.2009005  74.4813178  81.5246676  96.2547226
  73.5744633  81.2279789  96.3309940  74.7589159  81.2276495  95.3881513
  73.2511962  78.3833612  96.3959206  74.1131126  78.7088510  96.6555023
  73.4362306  77.5965108  95.8832271  34.4976836  10.2683104  85.5206678
  33.8238535  10.5714801  86.1291636  34.8842658  11.0712184  85.1712136
  38.4033722   7.5533360  83.7934125  38.3247353   7.2193223  84.6869883
  39.2243388   8.0455128  83.7925597  35.9737673   4.8701355  83.4144103
  36.6773524   5.0751358  84.0301759  35.2500322   5.4378117  83.6793187
  39.1785168  17.6316440  91.4856156  38.6150033  17.5406377  90.7172444
  39.0637563  16.8116344  91.9658648  44.7584727  21.2987408  86.7970621
  44.1072706  21.8841488  86.4104635  45.5529089  21.8293603  86.8565658
  38.6840354  18.3876545  87.1957755  39.4571230  17.8405532  87.0570631
  39.0365753  19.2520794  87.4072216  41.0206632  14.5469211  84.8276205
  41.2732152  14.0250732  84.0659668  40.0831191  14.3835356  84.9302889
  46.0649914  13.5504989  92.6350948  46.8513004  13.1324412  92.2841365
  46.3288619  14.4551081  92.8032597  46.2359992  18.9877840  87.3339605
  45.6005825  19.0612466  88.0460510  45.9057398  19.5771438  86.6558684
  51.4658342  13.4880222  93.5383927  52.1983513  12.9179439  93.7721756
  50.7097697  13.1001823  93.9790432  40.7402920  16.4497317  87.0300580
  40.6239178  15.7742220  87.6981664  40.8505180  15.9629691  86.2132733
  43.0834461  15.9107464  90.7347269  42.7192669  15.3838085  91.4460191
  43.9401577  15.5205933  90.5613755  42.7239948  10.9397364  85.7308618
  42.8914351  11.8077600  86.0979089  42.5337117  11.1024645  84.8069907
  42.7029169  13.3955021  86.7155285  42.5828794  13.8412072  87.5540765
  42.0081758  13.7440339  86.1568823  40.4636061  26.1658663  90.3645416
  40.3860091  27.1166488  90.4433896  39.8597705  25.8204535  91.0220342
  48.4014235  13.8676494  87.5435619  49.3132091  14.1003881  87.3683316
  47.8923882  14.4513539  86.9810697  47.0083818  18.8502313  94.9349200
  46.3792680  19.0148027  94.2325268  46.6209480  19.2643922  95.7060164
  50.8873049  19.7856751  92.2893564  50.2024088  20.1655652  91.7390597
  50.9716899  20.3952077  93.0225512  42.5611779  18.5876721  92.1999285
  43.0250125  18.8664424  91.4103908  42.2968578  17.6860165  92.0172376
  41.4980666  14.7099873  89.0088850  42.2004709  15.1620917  89.4762777
  41.1661294  14.0683692  89.6368743  49.2569809  20.3088665  97.0611265
  50.0787253  19.9068852  96.7793946  49.2532212  20.2056899  98.0127380
  57.3475802  16.6527414  93.4096236  56.5939510  16.0834812  93.2540241
  57.4823343  16.6190078  94.3566871  42.7374430  21.5240816  89.0850956
  42.6020105  22.3692352  89.5135803  43.2784243  21.7260093  88.3216889
  36.1903828  19.0416254  89.6578881  36.7028348  19.8359504  89.8084445
  36.8426540  18.3442544  89.5912482  37.9998712  22.1582010  91.7401634
  38.1765341  23.0799975  91.5522618  38.7955546  21.8440429  92.1696014
  46.0517176  15.0379989  86.1222284  45.5363800  15.8084593  86.3610672
  45.7794485  14.3645125  86.7455346  51.0251451  17.7912343  88.0575458
  50.2480893  17.4523503  87.6130620  51.7042932  17.7964967  87.3830423
  45.8403480  12.9107081  87.9482065  45.5353615  13.2253230  88.7992208
  46.7933922  12.9888501  87.9909398  44.2849911  19.0697304  89.5975019
  43.7571273  18.3350064  89.2848257  43.7837414  19.8471981  89.3514988
  49.2642757  17.2646325  94.7142066  48.6066432  17.9545586  94.8022194
  50.0683157  17.6542757  95.0576052  48.0748216  15.6190697  92.7646007
  48.5880098  16.2520689  93.2667717  48.7249440  15.0191893  92.3989367
  39.3438226  11.7621432  85.9777516  38.5075538  12.0996118  86.2986791
  39.2042996  11.6270411  85.0404653  42.4302512  16.8877515  82.6009992
  41.5229573  16.6566768  82.8001141  42.9273544  16.0915134  82.7883974
  45.3370591  25.5975022  85.5206678  44.6632289  25.9006718  86.1291636
  45.7236412  26.4004102  85.1712136  45.3364095  14.4931569  90.1407028
  46.0835914  15.0052966  89.8314150  45.6055684  14.1715621  91.0011422
  43.6090745  16.9890109  87.1233982  42.7001964  16.7049142  87.2206452
  43.6385829  17.4089188  86.2637289  48.8410012  20.5996699  90.8925150
  48.3872340  19.7587609  90.9490340  48.2103979  21.2358097  91.2299930
  47.7842932  11.5288685  92.1225817  47.0465689  11.0166071  92.4536060
  48.0369706  11.0889067  91.3109094  47.2842952  22.4373196  91.8274968
  47.5765926  22.9978253  91.1087334  47.7941572  22.7301757  92.5828127
  43.3066833  18.5298853  84.4622061  42.8686263  17.8134712  84.0027698
  44.0477274  18.7574968  83.9007152  42.2476577  23.2153547  92.9168421
  42.2052756  23.4414393  91.9876953  43.1639276  22.9816921  93.0654222
  51.4239948  16.8056050  90.5198380  51.2857846  16.9957646  89.5919569
  51.0676166  17.5675433  90.9766431  51.4509327  18.8732577  95.5309651
  51.8845834  18.7807866  96.3792705  52.1640908  18.8490078  94.8929667
  40.3642378  20.0916576  92.7130384  41.1582976  19.5966896  92.5112959
  39.6534070  19.5634439  92.3498090  45.1837222  22.4734671  97.0642752
  45.2374244  23.0425608  97.8320468  44.3152004  22.6436556  96.6996789
  36.6725141  14.2359657  88.7890137  35.7422729  14.1744113  89.0060099
  36.7682613  13.7135610  87.9926778  43.5361806  25.7654694  87.7353758
  43.7113561  25.2942737  88.5499380  42.8494594  26.3920460  87.9635018
  44.4918869  20.0427200  93.7817059  44.1568701  20.0027970  94.6774709
  43.9922815  19.3771916  93.3087469  47.4278060  17.3883235  84.0554119
  46.8107231  16.6630063  83.9587171  46.9594549  18.1492595  83.7121193
  38.1022891  28.9144057  94.5093618  38.3419489  29.5462581  95.1872636
  37.2592087  28.5632097  94.7958977  39.2176606  11.6068659  83.1775423
  38.3406073  11.4857460  82.8137669  39.6934359  10.8154737  82.9254311
  42.6150753  24.7223179  96.9135122  42.5420924  25.5278151  97.4254426
  42.1728146  24.9215145  96.0883143  42.4040532  23.9594949  90.4237943
  41.6208054  24.5016630  90.5176168  43.1033278  24.4768929  90.8232185
  53.5666940  15.4729944  94.7090440  53.5556816  16.3554660  94.3384373
  52.6984319  15.1201495  94.5144977  45.0749436  24.6210013  99.0693280
  45.7877409  25.2557478  98.9969182  44.5839465  24.7173879  98.2533282
  46.7966963  18.5261266  90.6410572  45.8623242  18.6462729  90.4715276
  46.9743632  17.6233733  90.3770582  50.1839515  14.3678585  91.1760606
  50.6499967  15.2006577  91.1020909  50.6347015  13.9023567  91.8805865
  48.2515746  20.7122407  88.1746758  48.5275590  20.5979001  89.0840632
  47.3820244  20.3139891  88.1358931  44.8869810  24.9608757  91.8179572
  45.0692204  24.1430413  92.2807324  45.7102796  25.1776450  91.3804462
  45.2211975  23.8876943  89.0794620  45.7499742  23.3769397  88.4664783
  45.4840195  23.5719473  89.9440153  38.5767723  24.9392059  91.8392396
  37.9078098  25.4238187  91.3556436  38.4380593  25.1861280  92.7535775
  42.7172992  26.9735803  98.4375055  43.2691300  27.1367424  99.2024140
  43.0579185  27.5640241  97.7655080  45.8541379  24.9217778  95.4238737
  45.7292518  24.1207518  94.9149682  46.5120470  25.4163972  94.9352707
  47.9176287  22.7226798  97.0518287  46.9706623  22.6032150  96.9796614
  48.2659061  21.8349296  97.1344548  44.9222721  22.5179515  93.2522639
  44.7747683  21.5896222  93.4330209  45.7476214  22.5399605  92.7679714
  48.5256843  23.3408073  94.3387512  49.4503390  23.1350935  94.2011963
  48.3572146  23.0924475  95.2476853  40.7753112   9.6672203  87.3096424
  41.4961475  10.0453456  86.8060141  40.1518416  10.3861080  87.4131402
  44.9184235  10.3717352  88.2454756  45.1347849  11.2541990  87.9443585
  44.4378302   9.9803566  87.5160398  48.3152159  23.8593741  89.6949603
  48.4889036  23.2940163  88.9423456  48.8081050  24.6594636  89.5129093
  54.1691550  16.6230164  91.3139903  54.6122696  15.8737489  90.9159026
  53.2918060  16.6140300  90.9313635  49.3027331  23.1760505  86.7946502
  49.9978236  23.7967198  87.0133816  49.6450481  22.3255856  87.0698880
  51.2018754  20.6260211  88.3233832  51.7270078  20.9647483  87.5983152
  51.1141107  19.6907226  88.1396967  42.8859415  26.6932194  92.6829086
  42.4464405  26.2008573  93.3761942  43.6367532  26.1505162  92.4421161
  35.3651754  22.8843735  92.6853714  36.1909774  22.5847507  92.3052357
  35.0145806  22.1151357  93.1343502  40.3333287  22.2370203  94.7551387
  39.7113297  21.5740908  94.4553615  41.0038154  22.2631335  94.0725035
  39.8946794  20.7874126  88.2309848  40.0434915  21.4709591  87.5776521
  40.7013238  20.7679217  88.7459304  53.7124415  18.0935402  93.7062351
  54.5471306  18.5325206  93.8699911  53.8483543  17.6174055  92.8870596
  37.6499427  16.8139304  89.2370917  37.4045469  15.9101634  89.4351127
  37.8195342  16.8156455  88.2950395  36.9195075  12.5467662  86.7357078
  36.2264320  12.6212017  86.0797114  36.6746827  11.7828005  87.2578595
  43.3942200  23.2822257  85.7021595  42.8216167  23.9012444  85.2492067
  43.9674993  23.8321619  86.2361517  46.6139459  23.5659407  86.8330178
  47.5470133  23.5004969  87.0363053  46.5262672  24.4015674  86.3744710
  49.2427476  22.8825277  83.7934125  49.1641108  22.5485141  84.6869883
  50.0637143  23.3747045  83.7925597  43.7788998  14.6183070  83.0437648
  44.7248103  14.4889278  83.1126066  43.4003243  13.8797732  83.5207076
  57.7582217  16.8103024  96.1416480  58.4885606  16.5488312  96.7024184
  57.1489163  16.0731745  96.1818548  55.8397514  14.9510886  96.7390932
  55.1130678  14.8166851  96.1307423  55.4244801  15.2587715  97.5447650
  41.9631915  12.5433046  82.9792533  41.0563371  12.2466159  83.0555247
  42.2407896  12.2462864  82.1126819  40.7330700   9.4019981  83.1204512
  41.5949864   9.7274880  83.3800330  40.9181044   8.6151477  82.6077578
  48.8863336   8.2748508  90.2639735  48.3062005   8.9333312  89.8817788
  48.6199269   7.4525852  89.8527153  47.6688214  10.4348598  89.3196083
  46.7814069  10.7198249  89.1016278  48.0842204  10.2742361  88.4723360
  51.0202751  10.4595119  93.0350423  51.7963141  10.9491572  93.3075039
  50.2950885  10.8853173  93.4922292  53.4575309  11.1722738  94.0924363
  54.0519800  10.9318474  93.3817672  53.5301893  10.4529869  94.7197900
  35.6772465  25.0156349  94.4067528  35.5426933  24.2556750  93.8405526
  35.2604527  25.7397249  93.9396317  46.8131428  20.1993273  83.4144103
  47.5167278  20.4043275  84.0301759  46.0894077  20.7670035  83.6793187
  47.6429238  15.9503134  89.5346374  47.5864440  16.4071685  88.6954006
  48.1957581  15.1893819  89.3569216  51.4534044  11.7392866  90.3596493
  51.1970978  11.3389502  91.1904701  50.8286912  12.4536660  90.2346632
  55.7646382  14.4788939  92.8667784  55.2045940  14.5482128  93.6399347
  55.1589885  14.3029924  92.1467281  38.8341591  25.9125666  94.6185971
  38.7173975  26.8571099  94.5164661  38.0134037  25.6099228  95.0071770
  48.7218125  20.6375802  85.4642563  49.5563729  20.2057000  85.2820038
  48.5602468  20.4657816  86.3919458  48.3764018  17.1407915  86.8298903
  48.3212821  16.9752187  85.8887347  47.7510073  17.8483948  86.9861092
  41.6860143   6.6416024  86.4084221  41.6738813   7.5857864  86.5652492
  42.5783565   6.4586170  86.1143682  39.8596105  26.5653928  97.8341899
  40.7623352  26.5977538  98.1508394  39.6333475  25.6354379  97.8488235
  41.6149707  25.3184915  94.4951978  40.6645338  25.3186776  94.3816350
  41.9182193  24.5717649  93.9788012  57.3502400  31.1545453  95.5597740
  57.9880810  31.0352200  94.8561080  57.2323243  32.1026297  95.6185692
  54.1592107  31.1072881  95.4959265  53.8210618  30.9913946  94.6079800
  55.0281875  30.7064046  95.4760271  50.0178922  32.9608358  91.4856156
  49.4543788  32.8698295  90.7172444  49.9031317  32.1408262  91.9658648
  54.6411890  32.2607733 101.4545470  54.6300530  31.8660531 100.5825974
  54.8032529  31.5273806 102.0479242  47.5643354  34.4559549  94.3240376
  48.3564646  34.1150374  93.9086676  47.8040005  34.5654524  95.2442530
  55.5978481  36.6279325  86.7970621  54.9466461  37.2133406  86.4104635
  56.3922844  37.1585520  86.8565658  49.5234108  33.7168462  87.1957755
  50.2964984  33.1697450  87.0570631  49.8759507  34.5812712  87.4072216
  51.3619151  35.0444845 100.4024654  51.0709017  35.9490476 100.2871321
  51.9976135  35.0861372 101.1168724  52.2875358  32.4221693  96.9926014
  52.8838930  32.1977716  96.2782977  52.3450329  31.6806439  97.5951462
  51.8600386  29.8761129  84.8276205  52.1125907  29.3542650  84.0659668
  50.9224945  29.7127274  84.9302889  56.9043669  28.8796907  92.6350948
  57.6906758  28.4616330  92.2841365  57.1682373  29.7842999  92.8032597
  57.0753746  34.3169757  87.3339605  56.4399579  34.3904384  88.0460510
  56.7451153  34.9063356  86.6558684  62.3052096  28.8172140  93.5383927
  63.0377268  28.2471357  93.7721756  61.5491452  28.4293741  93.9790432
  51.5796675  31.7789235  87.0300580  51.4632933  31.1034138  87.6981664
  51.6898935  31.2921608  86.2132733  53.9228216  31.2399382  90.7347269
  53.5586423  30.7130003  91.4460191  54.7795332  30.8497851  90.5613755
  59.8277516  22.5293714  97.9978535  59.4960841  23.3989125  97.7739750
  59.2323130  22.2129998  98.6772566  53.5633703  26.2689281  85.7308618
  53.7308105  27.1369518  86.0979089  53.3730872  26.4316563  84.8069907
  56.3209036  34.7306260  97.3974448  56.0209759  35.6331299  97.2890255
  55.9760095  34.4638443  98.2495601  49.7721517  31.1820057  93.4311153
  48.8472014  31.0496271  93.6388844  50.0205931  31.9614276  93.9281095
  59.7206180  27.2488800  95.0771885  58.8123057  27.1804209  94.7830646
  59.6693776  27.7260745  95.9053711  53.5422924  28.7246939  86.7155285
  53.4222549  29.1703990  87.5540765  52.8475512  29.0732256  86.1568823
  47.1330328  30.8253331  94.2654942  47.2622710  31.0787810  95.1794353
  46.4527780  31.4181039  93.9459597  51.3029816  41.4950581  90.3645416
  51.2253845  42.4458406  90.4433896  50.6991459  41.1496453  91.0220342
  53.7947045  28.6678446 103.0206783  53.0180380  29.2272366 103.0109647
  54.4337609  29.1535229 103.5421653  61.5867826  25.4505239  96.8549759
  60.9442206  25.7437772  96.2089554  61.0822755  25.3358159  97.6602956
  59.2407990  29.1968412  87.5435619  60.1525846  29.4295799  87.3683316
  58.7317637  29.7805456  86.9810697  52.0493418  31.4763899 102.5824750
  52.7908102  32.0148943 102.3059573  51.3430403  32.1030188 102.7396301
  57.5248757  33.6193040 101.1796911  57.9332113  33.1775450 100.4351544
  56.8026019  33.0445667 101.4331104  53.8779827  28.5565647  98.5530468
  54.7241023  28.9805060  98.6965117  53.8178465  27.8999271  99.2469031
  57.8477572  34.1794230  94.9349200  57.2186435  34.3439945  94.2325268
  57.4603234  34.5935840  95.7060164  61.7266804  35.1148668  92.2893564
  61.0417842  35.4947570  91.7390597  61.8110653  35.7243995  93.0225512
  57.0279273  26.2170015 100.2111642  56.7840205  26.9712075  99.6745917
  57.3039203  26.5955363 101.0458889  58.9817736  32.7608627  98.8888907
  59.1934631  33.4040387  98.2123288  58.9347484  31.9270944  98.4210837
  56.5843965  25.3726448  95.7925479  55.7228444  25.6707702  96.0842217
  56.6106399  25.5896847  94.8606512  53.4005534  33.9168639  92.1999285
  53.8643879  34.1956342  91.4103908  53.1362332  33.0152083  92.0172376
  50.2929615  33.4640120  95.1379048  50.8630972  33.8927388  94.4996533
  50.8837727  33.1822705  95.8363234  52.3374420  30.0391791  89.0088850
  53.0398463  30.4912835  89.4762777  52.0055049  29.3975610  89.6368743
  50.7854782  28.6303548 103.3840060  50.1553442  29.3119828 103.6175457
  50.6790869  28.5186629 102.4393198  46.0799754  28.2975344  94.3105984
  45.2898808  28.5532872  93.8346094  46.5711001  29.1123681  94.4158024
  60.0963564  35.6380583  97.0611265  60.9181007  35.2360770  96.7793946
  60.0925966  35.5348817  98.0127380  48.0314499  28.6619923  91.2689461
  47.2345663  28.7738617  91.7872956  47.8040092  29.0006575  90.4030351
  53.8620167  35.1864626  99.2171975  53.9264600  35.6485033 100.0530147
  53.1531091  34.5561991  99.3454285  44.3637457  28.5505834  96.7420975
  44.6145495  29.4352844  97.0078551  44.8997005  28.3710436  95.9696066
  68.1869557  31.9819331  93.4096236  67.4333265  31.4126729  93.2540241
  68.3217098  31.9481996  94.3566871  53.5768185  36.8532734  89.0850956
  53.4413859  37.6984269  89.5135803  54.1177997  37.0552011  88.3216889
  47.0297582  34.3708172  89.6578881  47.5422103  35.1651422  89.8084445
  47.6820295  33.6734462  89.5912482  48.8392467  37.4873928  91.7401634
  49.0159095  38.4091893  91.5522618  49.6349300  37.1732347  92.1696014
  48.1244823  29.5338560 101.6163797  48.0098338  28.6323817 101.9170896
  47.2689341  29.7802256 101.2648614  55.2036661  37.4756300 103.2151298
  54.7600515  36.6892679 102.8972202  55.8653875  37.6635451 102.5495188
  49.9623782  39.0052102  97.7411976  50.5131207  38.8769165  96.9688970
  49.1235258  39.3046991  97.3906869  57.3017899  37.7559100 101.2432699
  57.2836374  38.5767981 100.7512968  58.2237819  37.6313175 101.4682840
  53.7590953  35.2703229 102.0856207  54.2919290  34.5091518 101.8555515
  53.2305034  34.9776881 102.8280362  56.9260648  20.3763295  97.6149849
  56.5824918  21.2664937  97.5388960  57.2939611  20.1864953  96.7519434
  44.9946499  32.6996826  90.4338451  45.8321721  33.1093834  90.2172159
  45.1724767  31.7596268  90.4038645  56.8910931  30.3671907  86.1222284
  56.3757554  31.1376511  86.3610672  56.6188239  29.6937043  86.7455346
  54.4758042  25.2121607  91.1807522  53.6199638  24.8228458  91.0013161
  54.8884994  25.2913568  90.3207308  56.0057189  22.7467951  95.5799082
  55.5021984  22.7098086  94.7666888  56.2987795  23.6560693  95.6395739
  52.2500074  22.8306680  94.5865264  53.1153071  22.6349489  94.2271153
  52.3177583  22.6017032  95.5134621  61.8645205  33.1204261  88.0575458
  61.0874648  32.7815421  87.6130620  62.5436686  33.1256884  87.3830423
  56.6797234  28.2398999  87.9482065  56.3747370  28.5545148  88.7992208
  57.6327676  28.3180419  87.9909398  55.1243666  34.3989222  89.5975019
  54.5965028  33.6641982  89.2848257  54.6231169  35.1763898  89.3514988
  60.1036512  32.5938242  94.7142066  59.4460186  33.2837504  94.8022194
  60.9076911  32.9834674  95.0576052  49.8562394  25.0608888  91.9581631
  50.4306145  24.8384070  91.2254824  50.4433376  25.1297583  92.7110232
  58.9141971  30.9482615  92.7646007  59.4273853  31.5812607  93.2667717
  59.5643195  30.3483811  92.3989367  50.1831981  27.0913349  85.9777516
  49.3469293  27.4288036  86.2986791  50.0436750  26.9562329  85.0404653
  52.1585061  21.9350137  90.6856700  51.5049474  21.6199154  90.0613315
  52.1165535  21.3125878  91.4116523  53.2696266  32.2169432  82.6009992
  52.3623328  31.9858686  82.8001141  53.7667298  31.4207051  82.7883974
  56.1764345  40.9266939  85.5206678  55.5026044  41.2298636  86.1291636
  56.5630167  41.7296020  85.1712136  55.3922802  28.4232071  95.0104348
  54.4745363  28.6447018  94.8526036  55.8082945  28.4978381  94.1516055
  56.1757849  29.8223486  90.1407028  56.9229668  30.3344884  89.8314150
  56.4449439  29.5007539  91.0011422  54.4484500  32.3182027  87.1233982
  53.5395719  32.0341060  87.2206452  54.4779583  32.7381106  86.2637289
  59.6803767  35.9288617  90.8925150  59.2266094  35.0879526  90.9490340
  59.0497734  36.5650015  91.2299930  58.6236687  26.8580603  92.1225817
  57.8859443  26.3457989  92.4536060  58.8763460  26.4180984  91.3109094
  58.1236706  37.7665113  91.8274968  58.4159681  38.3270170  91.1087334
  58.6335327  38.0593674  92.5828127  58.7248314  19.6356855  92.7167587
  59.0307191  18.7754218  92.4293502  59.4500919  20.2274475  92.5166581
  45.0172670  30.0387541  91.1049185  44.8197070  29.4456902  90.3800251
  44.4619334  29.7339751  91.8225123  52.9969394  29.9310648  93.2243778
  53.0518003  28.9784484  93.1486254  52.1860596  30.0870087  93.7085076
  54.1460587  33.8590771  84.4622061  53.7080017  33.1426630  84.0027698
  54.8871028  34.0866886  83.9007152  50.9361754  28.5487707  90.9834157
  50.1229619  28.8481878  91.3899349  51.4320748  28.1543396  91.7008639
  53.0870331  38.5445464  92.9168421  53.0446510  38.7706311  91.9876953
  54.0033030  38.3108839  93.0654222  56.5335965  29.0129532  99.8149051
  56.8885353  29.2401005 100.6743516  57.1808096  29.3447909  99.1926306
  62.2633702  32.1347968  90.5198380  62.1251601  32.3249564  89.5919569
  61.9069921  32.8967351  90.9766431  50.4275828  26.1206063  96.5995392
  51.0675208  25.9794822  95.9018355  49.5953359  25.8340576  96.2233994
  62.2903082  34.2024495  95.5309651  62.7239588  34.1099784  96.3792705
  63.0034662  34.1781995  94.8929667  51.2036132  35.4208493  92.7130384
  51.9976731  34.9258813  92.5112959  50.4927825  34.8926356  92.3498090
  56.0230977  37.8026589  97.0642752  56.0767999  38.3717525  97.8320468
  55.1545758  37.9728474  96.6996789  47.5118896  29.5651575  88.7890137
  46.5816484  29.5036031  89.0060099  47.6076368  29.0427528  87.9926778
  47.4304445  26.0906388  91.3768378  47.6911262  27.0051721  91.2677539
  48.2521617  25.6230830  91.5264991  48.9029370  27.5044145  98.5467203
  49.5752423  27.2961507  97.8979852  48.0759157  27.3066231  98.1072435
  63.1518631  34.2448195  98.0642536  63.3454521  35.1494006  98.3101811
  63.0519249  33.7855615  98.8981121  54.8054942  24.1306086 100.5632864
  54.1582857  24.8296036 100.4697340  55.5755957  24.5642230 100.9309112
  58.2133740  34.3954938 103.6383417  58.0619246  34.1665490 102.7213501
  58.2038419  35.3525540 103.6514762  54.9819076  31.9686851  98.6229683
  55.9111136  32.1198011  98.4498651  54.5610106  32.0570872  97.7678330
  53.7807408  35.9937515  96.3928221  53.6418494  35.6256300  97.2654159
  52.9922004  36.5085155  96.2212179  54.3755560  41.0946612  87.7353758
  54.5507316  40.6234655  88.5499380  53.6888348  41.7212378  87.9635018
  55.3312623  35.3719118  93.7817059  54.9962456  35.3319888  94.6774709
  54.8316569  34.7063834  93.3087469  49.3056867  30.7786748  99.3069640
  49.1676665  30.0466987  99.9081179  50.2161791  30.6895648  99.0253828
  58.2671815  32.7175152  84.0554119  57.6500986  31.9921981  83.9587171
  57.7988303  33.4784513  83.7121193  51.9339168  30.4906707  98.7953320
  52.6438786  29.8499900  98.7539938  51.8908476  30.7419602  99.7179500
  59.9225947  37.4274061 101.7159899  59.8638493  36.7433281 101.0490482
  60.3245465  38.1693051 101.2640525  50.6468102  27.4771925 100.6148959
  50.1105459  27.0262664 101.2670556  50.0584810  27.6117834  99.8719424
  48.9416645  44.2435975  94.5093618  49.1813244  44.8754499  95.1872636
  48.0985842  43.8924015  94.7958977  50.0570361  26.9360577  83.1775423
  49.1799827  26.8149377  82.8137669  50.5328114  26.1446655  82.9254311
  59.9243354  35.3913645  99.9473879  59.0370133  35.0539566 100.0700277
  60.4941905  34.6596676 100.1842644  41.5772501  31.7237736  93.2716930
  42.2643541  31.4099466  92.6837945  41.4220630  32.6279101  92.9984181
  46.3807223  26.6127933  97.7001954  46.2965412  26.0053603  96.9652364
  45.5589930  27.1036951  97.7011450  53.4544507  40.0515097  96.9135122
  53.3814679  40.8570069  97.4254426  53.0121900  40.2507063  96.0883143
  53.2434287  39.2886867  90.4237943  52.4601809  39.8308547  90.5176168
  53.9427032  39.8060847  90.8232185  56.5530937  25.0981497  93.0672149
  57.0499637  24.3451459  92.7473219  55.7817919  25.1345813  92.5015358
  64.4060694  30.8021862  94.7090440  64.3950571  31.6846577  94.3384373
  63.5378074  30.4493413  94.5144977  55.9143191  39.9501931  99.0693280
  56.6271163  40.5849396  98.9969182  55.4233219  40.0465797  98.2533282
  57.6360718  33.8553184  90.6410572  56.7016996  33.9754646  90.4715276
  57.8137386  32.9525650  90.3770582  53.1365906  27.2398879  92.7943833
  52.7663693  26.6869920  93.4824739  53.6324998  26.6357013  92.2418833
  61.0233269  29.6970503  91.1760606  61.4893721  30.5298495  91.1020909
  61.4740770  29.2315485  91.8805865  50.9655104  37.6996375  99.8898851
  51.6664564  38.3332857 100.0428245  50.4950219  38.0411106  99.1294491
  59.0909500  36.0414324  88.1746758  59.3669344  35.9270919  89.0840632
  58.2213999  35.6431809  88.1358931  58.9949932  22.0651090  95.2151508
  58.0813012  22.2955317  95.3833715  59.4243033  22.1489534  96.0665540
  58.7656390  30.2540982  97.7151402  58.1127841  30.5016889  97.0603854
  59.1436770  29.4405120  97.3813879  55.7263564  40.2900675  91.8179572
  55.9085959  39.4722331  92.2807324  56.5496550  40.5068367  91.3804462
  56.0605730  39.2168860  89.0794620  56.5893496  38.7061315  88.4664783
  56.3233949  38.9011390  89.9440153  54.8143963  30.9960793 104.2017439
  54.1384600  30.8954922 104.8719814  55.6371597  30.8400007 104.6653436
  46.5622822  37.2332730  96.8229954  47.1476259  36.4876417  96.9557858
  46.3647661  37.5436686  97.7066618  49.4161478  40.2683977  91.8392396
  48.7471853  40.7530105  91.3556436  49.2774347  40.5153197  92.7535775
  41.1540477  29.8038330  95.5434397  41.1924577  29.2701920  96.3371515
  40.6480770  29.2773535  94.9245374  53.5566746  42.3027720  98.4375055
  54.1085054  42.4659342  99.2024140  53.8972940  42.8932158  97.7655080
  48.5331239  24.6502870  99.0396939  48.5972566  25.5117701  98.6274337
  48.4698360  24.0376872  98.3069298  58.4077621  37.1288978 104.2923709
  58.9517525  37.7418936 103.7978664  57.8264465  37.6868556 104.8090722
  44.7849055  28.5302432  88.6188328  45.0802496  27.6213110  88.5655382
  43.8837090  28.5090171  88.2969331  56.6935134  40.2509696  95.4238737
  56.5686273  39.4499436  94.9149682  57.3514225  40.7455889  94.9352707
  48.3143302  26.6058428  94.6015877  47.5929887  27.2194396  94.4623350
  49.1036558  27.1416193  94.5232523  58.7570042  38.0518716  97.0518287
  57.8100377  37.9324067  96.9796614  59.1052815  37.1641214  97.1344548
  51.1169615  23.9412855 100.8756529  51.6404017  24.1875152 101.6382838
  50.8981949  24.7732890 100.4559666  46.5136896  26.2116530  88.7427654
  46.1849602  25.3313909  88.5602760  46.8676267  26.1564198  89.6304043
  55.7616475  37.8471432  93.2522639  55.6141438  36.9188140  93.4330209
  56.5869969  37.8691523  92.7679714  49.6278719  26.4989499  89.1103131
  49.9674792  27.0275421  88.3881740  50.0750840  26.8369906  89.8861698
  59.3650597  38.6699991  94.3387512  60.2897145  38.4642852  94.2011963
  59.1965900  38.4216392  95.2476853  52.3222160  24.8826550  98.5606199
  51.9818981  24.0834363  98.9626879  51.6161167  25.1828261  97.9883033
  52.9738632  21.9675863  97.0133522  53.7964701  21.4936341  96.8912413
  53.2176696  22.7466346  97.5132209  51.6146867  24.9964121  87.3096424
  52.3355229  25.3745374  86.8060141  50.9912171  25.7152998  87.4131402
  55.7577990  25.7009270  88.2454756  55.9741604  26.5833908  87.9443585
  55.2772057  25.3095483  87.5160398  50.4977211  28.6594983  94.8225501
  50.3521792  28.9735286  95.7149783  50.0202415  29.2779883  94.2696400
  52.3573594  25.6497531  94.8706391  52.3435163  24.7538624  94.5338689
  53.0746022  25.6568195  95.5044677  54.2099724  26.0834871  96.9159518
  53.9517502  27.0051942  96.9143848  53.6784765  25.6865306  97.6059982
  59.1545913  39.1885658  89.6949603  59.3282791  38.6232081  88.9423456
  59.6474804  39.9886553  89.5129093  44.9722873  31.2000328  97.7613162
  44.4276341  31.9760136  97.8933437  45.8502223  31.5471132  97.6032284
  51.7610490  24.5311911  90.1393961  51.8826401  23.6028558  90.3384848
  51.4712532  24.5450597  89.2272276  54.6301680  22.2166822  93.2760681
  54.6523377  22.2806155  92.3212660  55.0469739  21.3771331  93.4701187
  65.0085304  31.9522081  91.3139903  65.4516450  31.2029407  90.9159026
  64.1311815  31.9432218  90.9313635  60.1421086  38.5052423  86.7946502
  60.8371990  39.1259116  87.0133816  60.4844236  37.6547774  87.0698880
  45.7588895  30.3270224 100.6543319  45.0170631  30.4752859 101.2407949
  45.4381639  30.5878489  99.7910068  62.0412509  35.9552128  88.3233832
  62.5663833  36.2939401  87.5983152  61.9534861  35.0199144  88.1396967
  53.7032558  39.8686202 100.4523709  54.0119684  39.6235349 101.3246409
  54.5008040  40.0732841  99.9642579  53.7253170  42.0224112  92.6829086
  53.2858160  41.5300490  93.3761942  54.4761287  41.4797079  92.4421161
  46.2045509  38.2135653  92.6853714  47.0303528  37.9139424  92.3052357
  45.8539561  37.4443275  93.1343502  51.1727042  37.5662121  94.7551387
  50.5507051  36.9032826  94.4553615  51.8431909  37.5923253  94.0725035
  44.4054114  36.1321979  93.6442647  43.5686022  35.7044153  93.4626649
  44.3777759  36.3254422  94.5813438  61.7306415  36.5885032 103.6285030
  60.9401959  36.5709171 103.0889530  61.4939769  37.1273326 104.3834067
  61.8504290  33.4377498 100.9417759  61.9002295  33.2727506 101.8833282
  61.7418213  32.5704757 100.5515640  50.7340549  36.1166044  88.2309848
  50.8828669  36.8001509  87.5776521  51.5406992  36.0971134  88.7459304
  59.1408052  29.4208426 102.2577066  60.0417915  29.2814891 101.9661063
  59.2156027  29.5862881 103.1975243  53.4750858  26.7975281 101.1030252
  52.6054167  27.0908847 100.8312840  53.7110338  27.3815726 101.8237516
  63.3522487  35.8574440 101.1859780  63.0607295  36.2204420 102.0223241
  62.7394618  35.1441448 101.0073113  64.5518169  33.4227320  93.7062351
  65.3865060  33.8617124  93.8699911  64.6877298  32.9465973  92.8870596
  61.6009675  30.9807055  99.6539838  62.0763797  31.1734701  98.8458690
  60.6775240  31.0366240  99.4083222  48.4893182  32.1431222  89.2370917
  48.2439224  31.2393552  89.4351127  48.6589096  32.1448372  88.2950395
  56.1789892  23.0154898  98.6195672  56.6971835  23.7515925  98.2942161
  55.8245024  23.3218891  99.4542431  47.7588829  27.8759579  86.7357078
  47.0658074  27.9503934  86.0797114  47.5140581  27.1119923  87.2578595
  56.4302486  19.4355181  94.1396569  56.7104239  18.7678370  94.7656995
  57.2153093  19.6284276  93.6271233  54.2335954  38.6114175  85.7021595
  53.6609921  39.2304362  85.2492067  54.8068748  39.1613536  86.2361517
  60.3011344  27.8572815  97.8868144  61.2528767  27.9570912  97.9080368
  60.1314794  27.0651083  98.3966228  58.3225724  24.9428398  98.0727545
  57.7275656  25.2233411  97.3774034  58.0375420  25.4322299  98.8444286
  57.4533214  38.8951325  86.8330178  58.3863887  38.8296886  87.0363053
  57.3656427  39.7307592  86.3744710  60.0821231  38.2117195  83.7934125
  60.0034862  37.8777059  84.6869883  60.9030897  38.7038963  83.7925597
  62.7799422  31.0778934  97.0010444  62.7475742  30.1394935  97.1870128
  63.3900045  31.1562971  96.2676269  54.6182753  29.9474987  83.0437648
  55.5641857  29.8181195  83.1126066  54.2396998  29.2089649  83.5207076
  62.9293910  27.8689978  97.0468727  62.4132959  27.0848434  96.8598656
  63.8133859  27.5408694  97.2115246  60.5904637  21.6130993  93.0064540
  60.3929458  21.3046082  93.8907872  61.2004343  22.3392632  93.1362469
  68.5975972  32.1394941  96.1416480  69.3279360  31.8780229  96.7024184
  67.9882917  31.4023663  96.1818548  66.6791269  30.2802804  96.7390932
  65.9524432  30.1458769  96.1307423  66.2638556  30.5879632  97.5447650
  54.5021445  33.9992733 104.5038305  55.4224455  34.1771332 104.6978351
  54.4671028  33.0548779 104.3518004  52.8025670  27.8724964  82.9792533
  51.8957125  27.5758076  83.0555247  53.0801651  27.5754782  82.1126819
  43.7203610  29.1931327  93.4291579  43.4006395  28.3396635  93.1365953
  43.1737038  29.4079905  94.1849547  47.4983518  31.9093768  97.1461086
  47.7169528  32.8410876  97.1649120  47.9109292  31.5501743  97.9315890
  54.4187736  22.4161853  89.1336774  53.6088464  22.0708938  89.5092020
  55.1072152  22.1069397  89.7224386  56.3478284  21.4939900  90.7561071
  56.9009322  21.9135354  91.4151094  56.5848370  20.5675648  90.7984027
  51.5724454  24.7311899  83.1204512  52.4343618  25.0566797  83.3800330
  51.7574799  23.9443395  82.6077578  43.5891870  32.8134239  95.3984701
  42.8955342  32.3988191  94.8854655  44.3364861  32.8554775  94.8018120
  59.7257091  23.6040425  90.2639735  59.1455760  24.2625229  89.8817788
  59.4593024  22.7817770  89.8527153  58.1760657  23.0045483  92.4661055
  58.6760436  23.1162018  91.6575374  58.8196265  22.7006536  93.1061864
  52.2342653  30.9124113 105.3528896  51.7509735  31.7124473 105.5592785
  52.3203592  30.9232058 104.3996340  45.5028613  32.7452492  93.2750716
  45.4799301  32.8440180  92.3232599  45.8129249  33.5917643  93.5967882
  48.1615991  34.8028647  97.3897330  49.1159244  34.7712590  97.3227262
  47.9628514  34.3419271  98.2047556  48.7515373  33.3729763  99.9568128
  49.5708262  33.8673842  99.9802965  49.0252180  32.4561732  99.9285695
  58.5081969  25.7640516  89.3196083  57.6207824  26.0490166  89.1016278
  58.9235958  25.6034279  88.4723360  61.8596505  25.7887037  93.0350423
  62.6356895  26.2783489  93.3075039  61.1344639  26.2145091  93.4922292
  64.2969064  26.5014656  94.0924363  64.8913555  26.2610392  93.3817672
  64.3695647  25.7821787  94.7197900  46.5166219  40.3448267  94.4067528
  46.3820687  39.5848668  93.8405526  46.0998282  41.0689167  93.9396317
  57.6525182  35.5285190  83.4144103  58.3561033  35.7335193  84.0301759
  56.9287831  36.0961952  83.6793187  58.4822993  31.2795052  89.5346374
  58.4258194  31.7363603  88.6954006  59.0351335  30.5185736  89.3569216
  62.2927799  27.0684784  90.3596493  62.0364733  26.6681419  91.1904701
  61.6680667  27.7828578  90.2346632  66.6040136  29.8080857  92.8667784
  66.0439694  29.8774046  93.6399347  65.9983640  29.6321841  92.1467281
  49.6735345  41.2417584  94.6185971  49.5567729  42.1863016  94.5164661
  48.8527792  40.9391145  95.0071770  59.5611880  35.9667720  85.4642563
  60.3957484  35.5348918  85.2820038  59.3996223  35.7949733  86.3919458
  59.2157772  32.4699833  86.8298903  59.1606576  32.3044104  85.8887347
  58.5903827  33.1775866  86.9861092  56.5303679  34.7748745 106.1552466
  57.3994839  34.9489397 105.7939100  56.0510431  35.5943162 106.0328195
  52.5253897  21.9707942  86.4084221  52.5132567  22.9149782  86.5652492
  53.4177319  21.7878087  86.1143682  50.6989859  41.8945846  97.8341899
  51.6017106  41.9269456  98.1508394  50.4727229  40.9646297  97.8488235
  52.4543461  40.6476832  94.4951978  51.5039092  40.6478694  94.3816350
  52.7575948  39.9009567  93.9788012  56.3406017  18.5650719  90.6630158
  55.5738413  18.0109205  90.8086840  56.7516722  18.6372587  91.5244310
  68.1896155  46.4837371  95.5597740  68.8274565  46.3644118  94.8561080
  68.0716998  47.4318215  95.6185692  64.9985861  46.4364799  95.4959265
  64.6604373  46.3205864  94.6079800  65.8675629  46.0355964  95.4760271
  60.8572677  48.2900275  91.4856156  60.2937542  48.1990212  90.7172444
  60.7425072  47.4700180  91.9658648  65.4805644  47.5899651 101.4545470
  65.4694285  47.1952449 100.5825974  65.6426284  46.8565723 102.0479242
  58.4037109  49.7851467  94.3240376  59.1958401  49.4442292  93.9086676
  58.6433759  49.8946442  95.2442530  66.4372236  51.9571243  86.7970621
  65.7860215  52.5425323  86.4104635  67.2316598  52.4877438  86.8565658
  60.3627863  49.0460380  87.1957755  61.1358739  48.4989367  87.0570631
  60.7153262  49.9104629  87.4072216  62.2012905  50.3736762 100.4024654
  61.9102771  51.2782393 100.2871321  62.8369890  50.4153290 101.1168724
  63.1269112  47.7513611  96.9926014  63.7232684  47.5269633  96.2782977
  63.1844084  47.0098356  97.5951462  62.6994141  45.2053046  84.8276205
  62.9519661  44.6834568  84.0659668  61.7618700  45.0419192  84.9302889
  67.7437423  44.2088825  92.6350948  68.5300513  43.7908248  92.2841365
  68.0076128  45.1134917  92.8032597  67.9147501  49.6461675  87.3339605
  67.2793334  49.7196301  88.0460510  67.5844907  50.2355274  86.6558684
  73.1445851  44.1464058  93.5383927  73.8771022  43.5763275  93.7721756
  72.3885206  43.7585658  93.9790432  62.4190429  47.1081152  87.0300580
  62.3026687  46.4326056  87.6981664  62.5292689  46.6213526  86.2132733
  64.7621970  46.5691299  90.7347269  64.3980177  46.0421920  91.4460191
  65.6189086  46.1789768  90.5613755  70.6671271  37.8585632  97.9978535
  70.3354596  38.7281043  97.7739750  70.0716884  37.5421916  98.6772566
  64.4027457  41.5981199  85.7308618  64.5701860  42.4661435  86.0979089
  64.2124626  41.7608481  84.8069907  67.1602790  50.0598178  97.3974448
  66.8603514  50.9623217  97.2890255  66.8153850  49.7930361  98.2495601
  60.6115272  46.5111975  93.4311153  59.6865768  46.3788189  93.6388844
  60.8599685  47.2906194  93.9281095  70.5599934  42.5780718  95.0771885
  69.6516812  42.5096127  94.7830646  70.5087530  43.0552663  95.9053711
  64.3816678  44.0538856  86.7155285  64.2616303  44.4995907  87.5540765
  63.6869266  44.4024174  86.1568823  57.9724083  46.1545248  94.2654942
  58.1016464  46.4079727  95.1794353  57.2921534  46.7472956  93.9459597
  62.1423570  56.8242498  90.3645416  62.0647600  57.7750323  90.4433896
  61.5385214  56.4788371  91.0220342  64.6340800  43.9970364 103.0206783
  63.8574134  44.5564284 103.0109647  65.2731363  44.4827147 103.5421653
  72.4261581  40.7797156  96.8549759  71.7835961  41.0729690  96.2089554
  71.9216509  40.6650077  97.6602956  70.0801744  44.5260330  87.5435619
  70.9919600  44.7587716  87.3683316  69.5711391  45.1097374  86.9810697
  62.8887172  46.8055817 102.5824750  63.6301857  47.3440861 102.3059573
  62.1824158  47.4322106 102.7396301  68.3642512  48.9484958 101.1796911
  68.7725868  48.5067368 100.4351544  67.6419773  48.3737585 101.4331104
  64.7173582  43.8857564  98.5530468  65.5634777  44.3096978  98.6965117
  64.6572220  43.2291189  99.2469031  68.6871327  49.5086148  94.9349200
  68.0580189  49.6731862  94.2325268  68.2996989  49.9227758  95.7060164
  72.5660558  50.4440586  92.2893564  71.8811597  50.8239487  91.7390597
  72.6504408  51.0535913  93.0225512  67.8673027  41.5461933 100.2111642
  67.6233959  42.3003993  99.6745917  68.1432958  41.9247280 101.0458889
  69.8211490  48.0900545  98.8888907  70.0328385  48.7332305  98.2123288
  69.7741238  47.2562862  98.4210837  67.4237719  40.7018366  95.7925479
  66.5622198  40.9999619  96.0842217  67.4500154  40.9188765  94.8606512
  64.2399288  49.2460556  92.1999285  64.7037634  49.5248259  91.4103908
  63.9756087  48.3444001  92.0172376  61.1323370  48.7932038  95.1379048
  61.7024727  49.2219306  94.4996533  61.7231481  48.5114622  95.8363234
  63.1768175  45.3683709  89.0088850  63.8792218  45.8204752  89.4762777
  62.8448803  44.7267527  89.6368743  61.6248536  43.9595465 103.3840060
  60.9947197  44.6411746 103.6175457  61.5184624  43.8478547 102.4393198
  56.9193508  43.6267261  94.3105984  56.1292562  43.8824790  93.8346094
  57.4104756  44.4415599  94.4158024  70.9357318  50.9672500  97.0611265
  71.7574762  50.5652688  96.7793946  70.9319721  50.8640735  98.0127380
  58.8708254  43.9911840  91.2689461  58.0739417  44.1030535  91.7872956
  58.6433846  44.3298493  90.4030351  64.7013921  50.5156544  99.2171975
  64.7658354  50.9776951 100.0530147  63.9924845  49.8853909  99.3454285
  55.2031211  43.8797752  96.7420975  55.4539250  44.7644762  97.0078551
  55.7390760  43.7002353  95.9696066  79.0263311  47.3111249  93.4096236
  78.2727019  46.7418647  93.2540241  79.1610852  47.2773913  94.3566871
  64.4161939  52.1824651  89.0850956  64.2807614  53.0276187  89.5135803
  64.9571752  52.3843929  88.3216889  60.9029279  38.2616231 105.7465311
  60.5096224  37.7082430 106.4212955  61.7195419  38.5726810 106.1371828
  57.8691337  49.7000089  89.6578881  58.3815857  50.4943339  89.8084445
  58.5214049  49.0026380  89.5912482  59.6786221  52.8165846  91.7401634
  59.8552850  53.7383810  91.5522618  60.4743055  52.5024265  92.1696014
  63.8197240  39.6774110 103.3385567  64.5606953  40.2781263 103.2590030
  64.0515163  38.9351748 102.7803610  58.9638578  44.8630477 101.6163797
  58.8492093  43.9615735 101.9170896  58.1083096  45.1094174 101.2648614
  66.0430416  52.8048218 103.2151298  65.5994270  52.0184596 102.8972202
  66.7047629  52.9927368 102.5495188  60.8017537  54.3344019  97.7411976
  61.3524962  54.2061083  96.9688970  59.9629013  54.6338908  97.3906869
  68.1411654  53.0851018 101.2432699  68.1230129  53.9059899 100.7512968
  69.0631574  52.9605093 101.4682840  64.5984708  50.5995147 102.0856207
  65.1313045  49.8383435 101.8555515  64.0698789  50.3068799 102.8280362
  67.7654403  35.7055213  97.6149849  67.4218672  36.5956855  97.5388960
  68.1333365  35.5156871  96.7519434  55.8340253  48.0288744  90.4338451
  56.6715475  48.4385752  90.2172159  56.0118521  47.0888186  90.4038645
  67.7304685  45.6963824  86.1222284  67.2151309  46.4668429  86.3610672
  67.4581994  45.0228960  86.7455346  65.3151796  40.5413525  91.1807522
  64.4593393  40.1520375  91.0013161  65.7278748  40.6205486  90.3207308
  66.8450943  38.0759868  95.5799082  66.3415739  38.0390003  94.7666888
  67.1381550  38.9852611  95.6395739  63.0893829  38.1598598  94.5865264
  63.9546826  37.9641407  94.2271153  63.1571338  37.9308950  95.5134621
  72.7038960  48.4496179  88.0575458  71.9268402  48.1107338  87.6130620
  73.3830441  48.4548802  87.3830423  67.5190989  43.5690916  87.9482065
  67.2141124  43.8837065  88.7992208  68.4721431  43.6472336  87.9909398
  65.9637420  49.7281140  89.5975019  65.4358782  48.9933899  89.2848257
  65.4624923  50.5055816  89.3514988  70.9430266  47.9230160  94.7142066
  70.2853941  48.6129421  94.8022194  71.7470666  48.3126592  95.0576052
  60.6956148  40.3900806  91.9581631  61.2699900  40.1675987  91.2254824
  61.2827130  40.4589500  92.7110232  69.7535725  46.2774533  92.7646007
  70.2667607  46.9104525  93.2667717  70.4036949  45.6775728  92.3989367
  61.0225735  42.4205267  85.9777516  60.1863047  42.7579953  86.2986791
  60.8830505  42.2854247  85.0404653  62.9978816  37.2642055  90.6856700
  62.3443228  36.9491072  90.0613315  62.9559290  36.6417795  91.4116523
  64.1090021  47.5461350  82.6009992  63.2017082  47.3150603  82.8001141
  64.6061053  46.7498969  82.7883974  67.0158100  56.2558857  85.5206678
  66.3419798  56.5590554  86.1291636  67.4023921  57.0587937  85.1712136
  66.2316556  43.7523988  95.0104348  65.3139117  43.9738935  94.8526036
  66.6476700  43.8270299  94.1516055  67.0151604  45.1515404  90.1407028
  67.7623423  45.6636801  89.8314150  67.2843193  44.8299457  91.0011422
  65.2878254  47.6473945  87.1233982  64.3789473  47.3632978  87.2206452
  65.3173338  48.0673023  86.2637289  70.5197521  51.2580534  90.8925150
  70.0659849  50.4171444  90.9490340  69.8891488  51.8941933  91.2299930
  69.4630441  42.1872520  92.1225817  68.7253198  41.6749906  92.4536060
  69.7157215  41.7472902  91.3109094  68.9630461  53.0957031  91.8274968
  69.2553435  53.6562088  91.1087334  69.4729081  53.3885592  92.5828127
  69.5642068  34.9648772  92.7167587  69.8700945  34.1046136  92.4293502
  70.2894673  35.5566392  92.5166581  55.8566424  45.3679459  91.1049185
  55.6590824  44.7748820  90.3800251  55.3013088  45.0631669  91.8225123
  63.8363148  45.2602565  93.2243778  63.8911758  44.3076402  93.1486254
  63.0254350  45.4162004  93.7085076  64.9854342  49.1882688  84.4622061
  64.5473772  48.4718547  84.0027698  65.7264783  49.4158803  83.9007152
  61.7755508  43.8779625  90.9834157  60.9623374  44.1773796  91.3899349
  62.2714502  43.4835314  91.7008639  63.9264086  53.8737382  92.9168421
  63.8840265  54.0998228  91.9876953  64.8426785  53.6400757  93.0654222
  67.3729720  44.3421450  99.8149051  67.7279107  44.5692923 100.6743516
  68.0201851  44.6739826  99.1926306  73.1027457  47.4639885  90.5198380
  72.9645355  47.6541481  89.5919569  72.7463675  48.2259268  90.9766431
  61.2669583  41.4497981  96.5995392  61.9068962  41.3086740  95.9018355
  60.4347113  41.1632494  96.2233994  73.1296836  49.5316412  95.5309651
  73.5633343  49.4391702  96.3792705  73.8428417  49.5073913  94.8929667
  62.0429887  50.7500411  92.7130384  62.8370485  50.2550731  92.5112959
  61.3321579  50.2218274  92.3498090  66.8624731  53.1318507  97.0642752
  66.9161753  53.7009443  97.8320468  65.9939513  53.3020392  96.6996789
  58.3512650  44.8943493  88.7890137  57.4210238  44.8327948  89.0060099
  58.4470122  44.3719446  87.9926778  58.2698199  41.4198306  91.3768378
  58.5305016  42.3343639  91.2677539  59.0915372  40.9522748  91.5264991
  59.7423125  42.8336063  98.5467203  60.4146178  42.6253425  97.8979852
  58.9152911  42.6358149  98.1072435  73.9912386  49.5740113  98.0642536
  74.1848276  50.4785924  98.3101811  73.8913004  49.1147532  98.8981121
  65.6448697  39.4598004 100.5632864  64.9976612  40.1587953 100.4697340
  66.4149712  39.8934148 100.9309112  69.0527494  49.7246856 103.6383417
  68.9013001  49.4957408 102.7213501  69.0432174  50.6817457 103.6514762
  65.8212831  47.2978769  98.6229683  66.7504891  47.4489928  98.4498651
  65.4003861  47.3862789  97.7678330  64.6201163  51.3229433  96.3928221
  64.4812248  50.9548217  97.2654159  63.8315759  51.8377072  96.2212179
  65.2149315  56.4238529  87.7353758  65.3901070  55.9526573  88.5499380
  64.5282103  57.0504296  87.9635018  66.1706378  50.7011036  93.7817059
  65.8356210  50.6611806  94.6774709  65.6710324  50.0355752  93.3087469
  60.1450622  46.1078666  99.3069640  60.0070420  45.3758905  99.9081179
  61.0555545  46.0187566  99.0253828  69.1065569  48.0467070  84.0554119
  68.4894740  47.3213898  83.9587171  68.6382058  48.8076430  83.7121193
  62.7732922  45.8198625  98.7953320  63.4832541  45.1791817  98.7539938
  62.7302231  46.0711520  99.7179500  70.7619701  52.7565978 101.7159899
  70.7032247  52.0725199 101.0490482  71.1639220  53.4984968 101.2640525
  61.4861856  42.8063843 100.6148959  60.9499213  42.3554581 101.2670556
  60.8978565  42.9409752  99.8719424  59.7810400  59.5727892  94.5093618
  60.0206998  60.2046416  95.1872636  58.9379596  59.2215932  94.7958977
  60.8964115  42.2652494  83.1775423  60.0193582  42.1441295  82.8137669
  61.3721868  41.4738573  82.9254311  70.7637108  50.7205562  99.9473879
  69.8763887  50.3831484 100.0700277  71.3335659  49.9888594 100.1842644
  52.4166256  47.0529654  93.2716930  53.1037295  46.7391384  92.6837945
  52.2614384  47.9571019  92.9984181  57.2200978  41.9419851  97.7001954
  57.1359166  41.3345520  96.9652364  56.3983684  42.4328869  97.7011450
  64.2938262  55.3807015  96.9135122  64.2208433  56.1861986  97.4254426
  63.8515655  55.5798981  96.0883143  64.0828041  54.6178785  90.4237943
  63.2995563  55.1600465  90.5176168  64.7820787  55.1352764  90.8232185
  67.3924692  40.4273414  93.0672149  67.8893391  39.6743377  92.7473219
  66.6211673  40.4637731  92.5015358  75.2454449  46.1313780  94.7090440
  75.2344325  47.0138495  94.3384373  74.3771828  45.7785331  94.5144977
  66.7536945  55.2793849  99.0693280  67.4664918  55.9141314  98.9969182
  66.2626974  55.3757715  98.2533282  68.4754472  49.1845101  90.6410572
  67.5410751  49.3046564  90.4715276  68.6531141  48.2817568  90.3770582
  63.9759660  42.5690797  92.7943833  63.6057448  42.0161838  93.4824739
  64.4718753  41.9648931  92.2418833  71.8627024  45.0262421  91.1760606
  72.3287476  45.8590412  91.1020909  72.3134524  44.5607402  91.8805865
  61.8048859  53.0288292  99.8898851  62.5058318  53.6624775 100.0428245
  61.3343974  53.3703024  99.1294491  69.9303255  51.3706242  88.1746758
  70.2063099  51.2562837  89.0840632  69.0607753  50.9723727  88.1358931
  69.8343686  37.3943008  95.2151508  68.9206766  37.6247235  95.3833715
  70.2636788  37.4781452  96.0665540  69.6050145  45.5832900  97.7151402
  68.9521595  45.8308807  97.0603854  69.9830525  44.7697038  97.3813879
  66.5657319  55.6192593  91.8179572  66.7479713  54.8014249  92.2807324
  67.3890305  55.8360285  91.3804462  66.8999484  54.5460778  89.0794620
  67.4287251  54.0353233  88.4664783  67.1627704  54.2303308  89.9440153
  65.6537718  46.3252711 104.2017439  64.9778355  46.2246840 104.8719814
  66.4765352  46.1691924 104.6653436  57.4016577  52.5624647  96.8229954
  57.9870014  51.8168335  96.9557858  57.2041415  52.8728604  97.7066618
  60.2555232  55.5975895  91.8392396  59.5865607  56.0822022  91.3556436
  60.1168102  55.8445115  92.7535775  51.9934232  45.1330247  95.5434397
  52.0318331  44.5993838  96.3371515  51.4874524  44.6065453  94.9245374
  64.3960501  57.6319638  98.4375055  64.9478809  57.7951260  99.2024140
  64.7366694  58.2224076  97.7655080  59.3724994  39.9794788  99.0396939
  59.4366320  40.8409619  98.6274337  59.3092114  39.3668790  98.3069298
  58.8477266  42.0517920 102.6869974  59.4749305  41.6694998 103.3007498
  57.9905185  41.8332122 103.0525666  69.2471375  52.4580896 104.2923709
  69.7911279  53.0710854 103.7978664  68.6658220  53.0160474 104.8090722
  55.6242809  43.8594350  88.6188328  55.9196250  42.9505028  88.5655382
  54.7230845  43.8382089  88.2969331  67.5328888  55.5801614  95.4238737
  67.4080027  54.7791354  94.9149682  68.1907979  56.0747807  94.9352707
  59.1537056  41.9350346  94.6015877  58.4323642  42.5486314  94.4623350
  59.9430312  42.4708111  94.5232523  69.5963796  53.3810634  97.0518287
  68.6494132  53.2615985  96.9796614  69.9446569  52.4933132  97.1344548
  61.9563370  39.2704773 100.8756529  62.4797772  39.5167069 101.6382838
  61.7375703  40.1024807 100.4559666  57.3530651  41.5408447  88.7427654
  57.0243357  40.6605826  88.5602760  57.7070022  41.4856116  89.6304043
  66.6010230  53.1763350  93.2522639  66.4535192  52.2480057  93.4330209
  67.4263723  53.1983441  92.7679714  60.4672474  41.8281417  89.1103131
  60.8068546  42.3567338  88.3881740  60.9144594  42.1661823  89.8861698
  70.2044352  53.9991909  94.3387512  71.1290899  53.7934770  94.2011963
  70.0359655  53.7508310  95.2476853  63.1615915  40.2118468  98.5606199
  62.8212735  39.4126281  98.9626879  62.4554921  40.5120179  97.9883033
  63.8132387  37.2967780  97.0133522  64.6358456  36.8228258  96.8912413
  64.0570450  38.0758264  97.5132209  62.4540621  40.3256039  87.3096424
  63.1748984  40.7037291  86.8060141  61.8305925  41.0444915  87.4131402
  66.5971744  41.0301188  88.2454756  66.8135358  41.9125825  87.9443585
  66.1165811  40.6387401  87.5160398  61.3370965  43.9886901  94.8225501
  61.1915546  44.3027204  95.7149783  60.8596169  44.6071801  94.2696400
  63.1967348  40.9789449  94.8706391  63.1828917  40.0830542  94.5338689
  63.9139776  40.9860113  95.5044677  65.0493479  41.4126789  96.9159518
  64.7911257  42.3343860  96.9143848  64.5178519  41.0157224  97.6059982
  69.9939668  54.5177576  89.6949603  70.1676545  53.9523999  88.9423456
  70.4868559  55.3178471  89.5129093  55.8116628  46.5292245  97.7613162
  55.2670096  47.3052053  97.8933437  56.6895977  46.8763050  97.6032284
  62.6004244  39.8603829  90.1393961  62.7220155  38.9320475  90.3384848
  62.3106287  39.8742515  89.2272276  65.4695435  37.5458740  93.2760681
  65.4917131  37.6098073  92.3212660  65.8863494  36.7063248  93.4701187
  75.8479059  47.2813999  91.3139903  76.2910205  46.5321324  90.9159026
  74.9705569  47.2724135  90.9313635  70.9814840  53.8344341  86.7946502
  71.6765745  54.4551033  87.0133816  71.3237990  52.9839692  87.0698880
  56.5982649  45.6562142 100.6543319  55.8564385  45.8044777 101.2407949
  56.2775394  45.9170407  99.7910068  72.8806263  51.2844046  88.3233832
  73.4057587  51.6231319  87.5983152  72.7928616  50.3491061  88.1396967
  64.5426312  55.1978120 100.4523709  64.8513438  54.9527267 101.3246409
  65.3401794  55.4024758  99.9642579  64.5646924  57.3516029  92.6829086
  64.1251914  56.8592408  93.3761942  65.3155041  56.8088997  92.4421161
  57.0439263  53.5427570  92.6853714  57.8697283  53.2431342  92.3052357
  56.6933315  52.7735193  93.1343502  62.0120796  52.8954038  94.7551387
  61.3900806  52.2324743  94.4553615  62.6825663  52.9215170  94.0725035
  55.2447868  51.4613897  93.6442647  54.4079776  51.0336071  93.4626649
  55.2171514  51.6546340  94.5813438  62.0845324  41.3735826 104.3483893
  62.1333479  42.2497949 103.9661663  62.6267838  40.8313220 103.7755537
  72.5700169  51.9176950 103.6285030  71.7795713  51.9001089 103.0889530
  72.3333524  52.4565243 104.3834067  72.6898044  48.7669416 100.9417759
  72.7396049  48.6019424 101.8833282  72.5811968  47.8996675 100.5515640
  61.5734303  51.4457962  88.2309848  61.7222424  52.1293426  87.5776521
  62.3800747  51.4263052  88.7459304  69.9801807  44.7500344 102.2577066
  70.8811670  44.6106809 101.9661063  70.0549781  44.9154799 103.1975243
  64.3144612  42.1267199 101.1030252  63.4447922  42.4200765 100.8312840
  64.5504093  42.7107644 101.8237516  74.1916241  51.1866358 101.1859780
  73.9001050  51.5496338 102.0223241  73.5788373  50.4733366 101.0073113
  75.3911924  48.7519237  93.7062351  76.2258815  49.1909041  93.8699911
  75.5271052  48.2757891  92.8870596  72.4403430  46.3098972  99.6539838
  72.9157551  46.5026619  98.8458690  71.5168995  46.3658158  99.4083222
  59.3286936  47.4723139  89.2370917  59.0832978  46.5685469  89.4351127
  59.4982851  47.4740290  88.2950395  67.0183646  38.3446816  98.6195672
  67.5365590  39.0807843  98.2942161  66.6638779  38.6510809  99.4542431
  58.5982584  43.2051497  86.7357078  57.9051829  43.2795852  86.0797114
  58.3534336  42.4411841  87.2578595  67.2696240  34.7647098  94.1396569
  67.5497994  34.0970287  94.7656995  68.0546847  34.9576194  93.6271233
  65.0729709  53.9406092  85.7021595  64.5003676  54.5596279  85.2492067
  65.6462502  54.4905454  86.2361517  71.1405099  43.1864732  97.8868144
  72.0922521  43.2862830  97.9080368  70.9708549  42.3943001  98.3966228
  69.1619478  40.2720316  98.0727545  68.5669410  40.5525328  97.3774034
  68.8769175  40.7614216  98.8444286  68.2926968  54.2243242  86.8330178
  69.2257642  54.1588804  87.0363053  68.2050181  55.0599509  86.3744710
  70.9214985  53.5409113  83.7934125  70.8428617  53.2068976  84.6869883
  71.7424652  54.0330881  83.7925597  73.6193176  46.4070852  97.0010444
  73.5869496  45.4686853  97.1870128  74.2293800  46.4854889  96.2676269
  65.4576507  45.2766905  83.0437648  66.4035612  45.1473113  83.1126066
  65.0790752  44.5381567  83.5207076  73.7687665  43.1981895  97.0468727
  73.2526713  42.4140352  96.8598656  74.6527613  42.8700612  97.2115246
  71.4298392  36.9422911  93.0064540  71.2323213  36.6337999  93.8907872
  72.0398097  37.6684550  93.1362469  79.4369726  47.4686859  96.1416480
  80.1673115  47.2072147  96.7024184  78.8276672  46.7315581  96.1818548
  77.5185023  45.6094721  96.7390932  76.7918187  45.4750686  96.1307423
  77.1032310  45.9171550  97.5447650  65.3415200  49.3284651 104.5038305
  66.2618209  49.5063250 104.6978351  65.3064783  48.3840696 104.3518004
  63.6419424  43.2016881  82.9792533  62.7350880  42.9049994  83.0555247
  63.9195405  42.9046699  82.1126819  54.5597365  44.5223245  93.4291579
  54.2400149  43.6688553  93.1365953  54.0130793  44.7371823  94.1849547
  58.3377272  47.2385686  97.1461086  58.5563282  48.1702794  97.1649120
  58.7503046  46.8793660  97.9315890  65.2581490  37.7453771  89.1336774
  64.4482218  37.4000856  89.5092020  65.9465907  37.4361315  89.7224386
  67.1872038  36.8231818  90.7561071  67.7403077  37.2427271  91.4151094
  67.4242125  35.8967566  90.7984027  63.2105138  42.8118892 106.5363835
  63.1101864  43.7613249 106.4675926  62.9926680  42.4837130 105.6639905
  62.4118209  40.0603817  83.1204512  63.2737373  40.3858715  83.3800330
  62.5968553  39.2735313  82.6077578  54.4285625  48.1426156  95.3984701
  53.7349096  47.7280109  94.8854655  55.1758616  48.1846693  94.8018120
  70.5650845  38.9332343  90.2639735  69.9849514  39.5917147  89.8817788
  70.2986778  38.1109688  89.8527153  69.0154412  38.3337401  92.4661055
  69.5154190  38.4453935  91.6575374  69.6590020  38.0298454  93.1061864
  63.0736408  46.2416030 105.3528896  62.5903489  47.0416391 105.5592785
  63.1597347  46.2523975 104.3996340  56.3422367  48.0744410  93.2750716
  56.3193055  48.1732097  92.3232599  56.6523004  48.9209561  93.5967882
  59.0009745  50.1320565  97.3897330  59.9552999  50.1004507  97.3227262
  58.8022269  49.6711189  98.2047556  59.5909127  48.7021681  99.9568128
  60.4102016  49.1965760  99.9802965  59.8645935  47.7853649  99.9285695
  69.3475723  41.0932433  89.3196083  68.4601578  41.3782084  89.1016278
  69.7629713  40.9326197  88.4723360  72.6990260  41.1178954  93.0350423
  73.4750650  41.6075407  93.3075039  71.9738394  41.5437009  93.4922292
  75.1362818  41.8306574  94.0924363  75.7307309  41.5902310  93.3817672
  75.2089402  41.1113704  94.7197900  57.3559974  55.6740185  94.4067528
  57.2214442  54.9140585  93.8405526  56.9392036  56.3981084  93.9396317
  68.4918937  50.8577108  83.4144103  69.1954787  51.0627111  84.0301759
  67.7681586  51.4253870  83.6793187  69.3216747  46.6086969  89.5346374
  69.2651949  47.0655521  88.6954006  69.8745090  45.8477654  89.3569216
  73.1321553  42.3976701  90.3596493  72.8758487  41.9973337  91.1904701
  72.5074421  43.1120495  90.2346632  77.4433891  45.1372774  92.8667784
  76.8833449  45.2065964  93.6399347  76.8377394  44.9613759  92.1467281
  60.5129100  56.5709502  94.6185971  60.3961484  57.5154934  94.5164661
  59.6921546  56.2683063  95.0071770  70.4005634  51.2959637  85.4642563
  71.2351238  50.8640836  85.2820038  70.2389977  51.1241651  86.3919458
  70.0551527  47.7991751  86.8298903  70.0000330  47.6336022  85.8887347
  69.4297582  48.5067784  86.9861092  54.8444041  43.0359815 100.6560325
  55.4902905  42.5258769 101.1447550  54.6361193  43.7728497 101.2303750
  67.3697434  50.1040662 106.1552466  68.2388593  50.2781315 105.7939100
  66.8904185  50.9235079 106.0328195  63.3647652  37.2999860  86.4084221
  63.3526322  38.2441700  86.5652492  64.2571074  37.1170005  86.1143682
  61.5383614  57.2237763  97.8341899  62.4410861  57.2561374  98.1508394
  61.3120984  56.2938214  97.8488235  63.2937216  55.9768750  94.4951978
  62.3432847  55.9770612  94.3816350  63.5969702  55.2301485  93.9788012
  67.1799771  33.8942636  90.6630158  66.4132167  33.3401123  90.8086840
  67.5910476  33.9664505  91.5244310  59.1841532  40.1827432 104.7535339
  60.0472994  39.8264237 104.9638664  58.6106943  39.8441327 105.4410743
  79.0289909  61.8129288  95.5597740  79.6668319  61.6936036  94.8561080
  78.9110752  62.7610132  95.6185692  75.8379616  61.7656717  95.4959265
  75.4998127  61.6497781  94.6079800  76.7069384  61.3647882  95.4760271
  71.6966431  63.6192193  91.4856156  71.1331297  63.5282130  90.7172444
  71.5818826  62.7992097  91.9658648  76.3199399  62.9191568 101.4545470
  76.3088039  62.5244367 100.5825974  76.4820038  62.1857641 102.0479242
  69.2430863  65.1143385  94.3240376  70.0352155  64.7734209  93.9086676
  69.4827513  65.2238360  95.2442530  77.2765990  67.2863161  86.7970621
  76.6253970  67.8717241  86.4104635  78.0710353  67.8169356  86.8565658
  71.2021617  64.3752298  87.1957755  71.9752493  63.8281285  87.0570631
  71.5547016  65.2396547  87.4072216  73.0406660  65.7028680 100.4024654
  72.7496526  66.6074311 100.2871321  73.6763644  65.7445208 101.1168724
  73.9662867  63.0805529  96.9926014  74.5626439  62.8561551  96.2782977
  74.0237838  62.3390274  97.5951462  73.5387895  60.5344964  84.8276205
  73.7913416  60.0126485  84.0659668  72.6012454  60.3711109  84.9302889
  78.5831178  59.5380742  92.6350948  79.3694267  59.1200165  92.2841365
  78.8469882  60.4426834  92.8032597  78.7541255  64.9753593  87.3339605
  78.1187088  65.0488219  88.0460510  78.4238662  65.5647191  86.6558684
  83.9839605  59.4755975  93.5383927  84.7164777  58.9055192  93.7721756
  83.2278961  59.0877576  93.9790432  73.2584184  62.4373070  87.0300580
  73.1420442  61.7617973  87.6981664  73.3686444  61.9505444  86.2132733
  75.6015725  61.8983217  90.7347269  75.2373932  61.3713838  91.4460191
  76.4582841  61.5081686  90.5613755  81.5065025  53.1877550  97.9978535
  81.1748350  54.0572961  97.7739750  80.9110639  52.8713834  98.6772566
  75.2421212  56.9273117  85.7308618  75.4095614  57.7953353  86.0979089
  75.0518381  57.0900398  84.8069907  77.9996545  65.3890096  97.3974448
  77.6997268  66.2915134  97.2890255  77.6547604  65.1222279  98.2495601
  71.4509026  61.8403892  93.4311153  70.5259523  61.7080107  93.6388844
  71.6993440  62.6198112  93.9281095  81.3993689  57.9072636  95.0771885
  80.4910566  57.8388044  94.7830646  81.3481284  58.3844581  95.9053711
  75.2210433  59.3830774  86.7155285  75.1010058  59.8287825  87.5540765
  74.5263021  59.7316092  86.1568823  68.8117837  61.4837166  94.2654942
  68.9410219  61.7371645  95.1794353  68.1315289  62.0764874  93.9459597
  72.9817325  72.1534416  90.3645416  72.9041354  73.1042241  90.4433896
  72.3778968  71.8080288  91.0220342  75.4734554  59.3262281 103.0206783
  74.6967889  59.8856201 103.0109647  76.1125118  59.8119064 103.5421653
  83.2655335  56.1089074  96.8549759  82.6229715  56.4021607  96.2089554
  82.7610264  55.9941994  97.6602956  80.9195499  59.8552247  87.5435619
  81.8313355  60.0879634  87.3683316  80.4105146  60.4389292  86.9810697
  73.7280927  62.1347735 102.5824750  74.4695611  62.6732779 102.3059573
  73.0217912  62.7614023 102.7396301  79.2036266  64.2776875 101.1796911
  79.6119622  63.8359286 100.4351544  78.4813528  63.7029503 101.4331104
  75.5567336  59.2149482  98.5530468  76.4028532  59.6388896  98.6965117
  75.4965974  58.5583106  99.2469031  79.5265081  64.8378066  94.9349200
  78.8973944  65.0023780  94.2325268  79.1390743  65.2519675  95.7060164
  83.4054313  65.7732504  92.2893564  82.7205351  66.1531405  91.7390597
  83.4898162  66.3827830  93.0225512  78.7066782  56.8753850 100.2111642
  78.4627714  57.6295911  99.6745917  78.9826712  57.2539198 101.0458889
  80.6605245  63.4192463  98.8888907  80.8722140  64.0624223  98.2123288
  80.6134993  62.5854779  98.4210837  78.2631474  56.0310283  95.7925479
  77.4015953  56.3291537  96.0842217  78.2893908  56.2480682  94.8606512
  75.0793043  64.5752474  92.1999285  75.5431388  64.8540177  91.4103908
  74.8149841  63.6735918  92.0172376  71.9717124  64.1223955  95.1379048
  72.5418481  64.5511224  94.4996533  72.5625236  63.8406540  95.8363234
  74.0161929  60.6975626  89.0088850  74.7185972  61.1496670  89.4762777
  73.6842557  60.0559445  89.6368743  72.4642291  59.2887383 103.3840060
  71.8340951  59.9703664 103.6175457  72.3578378  59.1770464 102.4393198
  67.7587263  58.9559179  94.3105984  66.9686317  59.2116707  93.8346094
  68.2498510  59.7707517  94.4158024  81.7751073  66.2964418  97.0611265
  82.5968516  65.8944605  96.7793946  81.7713475  66.1932652  98.0127380
  69.7102008  59.3203758  91.2689461  68.9133172  59.4322452  91.7872956
  69.4827601  59.6590410  90.4030351  75.5407676  65.8448461  99.2171975
  75.6052108  66.3068869 100.0530147  74.8318600  65.2145826  99.3454285
  66.0424966  59.2089669  96.7420975  66.2933004  60.0936679  97.0078551
  66.5784514  59.0294271  95.9696066  89.8657066  62.6403167  93.4096236
  89.1120774  62.0710565  93.2540241  90.0004607  62.6065831  94.3566871
  75.2555694  67.5116569  89.0850956  75.1201368  68.3568105  89.5135803
  75.7965506  67.7135847  88.3216889  71.7423033  53.5908149 105.7465311
  71.3489979  53.0374347 106.4212955  72.5589174  53.9018727 106.1371828
  68.7085091  65.0292007  89.6578881  69.2209612  65.8235257  89.8084445
  69.3607804  64.3318297  89.5912482  70.5179976  68.1457763  91.7401634
  70.6946604  69.0675728  91.5522618  71.3136809  67.8316182  92.1696014
  74.6590994  55.0066028 103.3385567  75.4000708  55.6073181 103.2590030
  74.8908917  54.2643666 102.7803610  69.8032332  60.1922395 101.6163797
  69.6885847  59.2907652 101.9170896  68.9476850  60.4386092 101.2648614
  76.8824170  68.1340135 103.2151298  76.4388024  67.3476514 102.8972202
  77.5441384  68.3219286 102.5495188  71.6411291  69.6635937  97.7411976
  72.1918716  69.5353000  96.9688970  70.8022767  69.9630826  97.3906869
  78.9805408  68.4142935 101.2432699  78.9623883  69.2351816 100.7512968
  79.9025328  68.2897011 101.4682840  75.4378462  65.9287065 102.0856207
  75.9706799  65.1675353 101.8555515  74.9092543  65.6360717 102.8280362
  78.6048157  51.0347131  97.6149849  78.2612427  51.9248772  97.5388960
  78.9727120  50.8448788  96.7519434  66.6734008  63.3580661  90.4338451
  67.5109230  63.7677670  90.2172159  66.8512275  62.4180103  90.4038645
  78.5698440  61.0255742  86.1222284  78.0545063  61.7960347  86.3610672
  78.2975748  60.3520878  86.7455346  76.1545551  55.8705443  91.1807522
  75.2987147  55.4812293  91.0013161  76.5672503  55.9497403  90.3207308
  77.6844698  53.4051786  95.5799082  77.1809493  53.3681921  94.7666888
  77.9775304  54.3144529  95.6395739  73.9287583  53.4890516  94.5865264
  74.7940580  53.2933324  94.2271153  73.9965092  53.2600867  95.5134621
  83.5432714  63.7788097  88.0575458  82.7662157  63.4399256  87.6130620
  84.2224195  63.7840720  87.3830423  78.3584743  58.8982834  87.9482065
  78.0534879  59.2128983  88.7992208  79.3115185  58.9764254  87.9909398
  76.8031175  65.0573057  89.5975019  76.2752537  64.3225817  89.2848257
  76.3018678  65.8347734  89.3514988  81.7824021  63.2522078  94.7142066
  81.1247695  63.9421339  94.8022194  82.5864420  63.6418510  95.0576052
  71.5349903  55.7192724  91.9581631  72.1093654  55.4967905  91.2254824
  72.1220885  55.7881418  92.7110232  80.5929480  61.6066450  92.7646007
  81.1061361  62.2396442  93.2667717  81.2430704  61.0067646  92.3989367
  71.8619490  57.7497185  85.9777516  71.0256802  58.0871871  86.2986791
  71.7224259  57.6146164  85.0404653  73.8372570  52.5933972  90.6856700
  73.1836983  52.2782990  90.0613315  73.7953044  51.9709713  91.4116523
  74.9483775  62.8753268  82.6009992  74.0410837  62.6442521  82.8001141
  75.4454807  62.0790887  82.7883974  77.8551854  71.5850775  85.5206678
  77.1813553  71.8882471  86.1291636  78.2417676  72.3879855  85.1712136
  77.0710311  59.0815906  95.0104348  76.1532872  59.3030853  94.8526036
  77.4870454  59.1562216  94.1516055  77.8545358  60.4807322  90.1407028
  78.6017177  60.9928719  89.8314150  78.1236948  60.1591374  91.0011422
  76.1272009  62.9765862  87.1233982  75.2183228  62.6924895  87.2206452
  76.1567092  63.3964941  86.2637289  81.3591276  66.5872452  90.8925150
  80.9053603  65.7463362  90.9490340  80.7285243  67.2233850  91.2299930
  80.3024196  57.5164438  92.1225817  79.5646952  57.0041824  92.4536060
  80.5550969  57.0764820  91.3109094  79.8024215  68.4248949  91.8274968
  80.0947190  68.9854006  91.1087334  80.3122836  68.7177510  92.5828127
  80.4035823  50.2940690  92.7167587  80.7094700  49.4338053  92.4293502
  81.1288428  50.8858310  92.5166581  66.6960179  60.6971377  91.1049185
  66.4984579  60.1040737  90.3800251  66.1406843  60.3923587  91.8225123
  74.6756903  60.5894483  93.2243778  74.7305512  59.6368319  93.1486254
  73.8648105  60.7453922  93.7085076  75.8248096  64.5174606  84.4622061
  75.3867526  63.8010465  84.0027698  76.5658537  64.7450721  83.9007152
  72.6149263  59.2071543  90.9834157  71.8017128  59.5065713  91.3899349
  73.1108257  58.8127232  91.7008639  74.7657840  69.2029300  92.9168421
  74.7234019  69.4290146  91.9876953  75.6820539  68.9692674  93.0654222
  78.2123474  59.6713367  99.8149051  78.5672862  59.8984840 100.6743516
  78.8595605  60.0031744  99.1926306  83.9421211  62.7931803  90.5198380
  83.8039110  62.9833399  89.5919569  83.5857430  63.5551186  90.9766431
  72.1063337  56.7789898  96.5995392  72.7462717  56.6378657  95.9018355
  71.2740868  56.4924412  96.2233994  83.9690591  64.8608330  95.5309651
  84.4027097  64.7683619  96.3792705  84.6822171  64.8365831  94.8929667
  72.8823641  66.0792329  92.7130384  73.6764240  65.5842649  92.5112959
  72.1715334  65.5510192  92.3498090  77.7018486  68.4610424  97.0642752
  77.7555508  69.0301361  97.8320468  76.8333267  68.6312309  96.6996789
  69.1906405  60.2235410  88.7890137  68.2603993  60.1619866  89.0060099
  69.2863877  59.7011363  87.9926778  69.1091954  56.7490223  91.3768378
  69.3698771  57.6635557  91.2677539  69.9309126  56.2814666  91.5264991
  70.5816879  58.1627980  98.5467203  71.2539932  57.9545343  97.8979852
  69.7546666  57.9650066  98.1072435  84.8306140  64.9032031  98.0642536
  85.0242030  65.8077841  98.3101811  84.7306758  64.4439450  98.8981121
  76.4842451  54.7889921 100.5632864  75.8370366  55.4879871 100.4697340
  77.2543466  55.2226065 100.9309112  76.6606585  62.6270686  98.6229683
  77.5898645  62.7781846  98.4498651  76.2397615  62.7154707  97.7678330
  75.4594917  66.6521351  96.3928221  75.3206003  66.2840135  97.2654159
  74.6709513  67.1668990  96.2212179  76.0543069  71.7530447  87.7353758
  76.2294825  71.2818490  88.5499380  75.3675857  72.3796213  87.9635018
  77.0100132  66.0302953  93.7817059  76.6749965  65.9903723  94.6774709
  76.5104078  65.3647669  93.3087469  70.9844376  61.4370583  99.3069640
  70.8464174  60.7050822  99.9081179  71.8949300  61.3479484  99.0253828
  79.9459324  63.3758988  84.0554119  79.3288495  62.6505816  83.9587171
  79.4775812  64.1368348  83.7121193  73.6126677  61.1490543  98.7953320
  74.3226295  60.5083735  98.7539938  73.5695985  61.4003438  99.7179500
  72.3255611  58.1355761 100.6148959  71.7892968  57.6846499 101.2670556
  71.7372319  58.2701669  99.8719424  70.6204154  74.9019810  94.5093618
  70.8600753  75.5338334  95.1872636  69.7773351  74.5507850  94.7958977
  71.7357870  57.5944412  83.1775423  70.8587336  57.4733213  82.8137669
  72.2115623  56.8030490  82.9254311  81.6030863  66.0497480  99.9473879
  80.7157642  65.7123402 100.0700277  82.1729414  65.3180511 100.1842644
  63.2560010  62.3821572  93.2716930  63.9431050  62.0683302  92.6837945
  63.1008139  63.2862936  92.9984181  68.0594732  57.2711768  97.7001954
  67.9752921  56.6637438  96.9652364  67.2377439  57.7620787  97.7011450
  75.1332016  70.7098932  96.9135122  75.0602188  71.5153904  97.4254426
  74.6909409  70.9090898  96.0883143  74.9221796  69.9470702  90.4237943
  74.1389318  70.4892383  90.5176168  75.6214541  70.4644682  90.8232185
  78.2318446  55.7565332  93.0672149  78.7287146  55.0035294  92.7473219
  77.4605428  55.7929649  92.5015358  86.0848203  61.4605697  94.7090440
  86.0738080  62.3430413  94.3384373  85.2165583  61.1077248  94.5144977
  77.5930700  70.6085766  99.0693280  78.3058672  71.2433231  98.9969182
  77.1020728  70.7049632  98.2533282  79.3148227  64.5137019  90.6410572
  78.3804505  64.6338482  90.4715276  79.4924895  63.6109486  90.3770582
  74.8153415  57.8982715  92.7943833  74.4451202  57.3453755  93.4824739
  75.3112507  57.2940848  92.2418833  82.7020778  60.3554338  91.1760606
  83.1681230  61.1882330  91.1020909  83.1528279  59.8899320  91.8805865
  72.6442613  68.3580210  99.8898851  73.3452073  68.9916693 100.0428245
  72.1737728  68.6994941  99.1294491  80.7697009  66.6998160  88.1746758
  81.0456853  66.5854754  89.0840632  79.9001508  66.3015645  88.1358931
  80.6737441  52.7234925  95.2151508  79.7600521  52.9539152  95.3833715
  81.1030542  52.8073369  96.0665540  80.4443899  60.9124817  97.7151402
  79.7915350  61.1600725  97.0603854  80.8224279  60.0988956  97.3813879
  77.4051073  70.9484510  91.8179572  77.5873468  70.1306166  92.2807324
  78.2284059  71.1652203  91.3804462  77.7393239  69.8752696  89.0794620
  78.2681005  69.3645150  88.4664783  78.0021458  69.5595226  89.9440153
  76.4931472  61.6544628 104.2017439  75.8172109  61.5538758 104.8719814
  77.3159106  61.4983842 104.6653436  68.2410331  67.8916565  96.8229954
  68.8263768  67.1460253  96.9557858  68.0435170  68.2020522  97.7066618
  71.0948987  70.9267812  91.8392396  70.4259362  71.4113940  91.3556436
  70.9561856  71.1737033  92.7535775  62.8327986  60.4622165  95.5434397
  62.8712086  59.9285756  96.3371515  62.3268279  59.9357371  94.9245374
  75.2354255  72.9611556  98.4375055  75.7872563  73.1243177  99.2024140
  75.5760449  73.5515994  97.7655080  70.2118748  55.3086706  99.0396939
  70.2760075  56.1701537  98.6274337  70.1485869  54.6960707  98.3069298
  69.6871021  57.3809838 102.6869974  70.3143060  56.9986915 103.3007498
  68.8298940  57.1624040 103.0525666  66.4636564  59.1886267  88.6188328
  66.7590005  58.2796946  88.5655382  65.5624599  59.1674007  88.2969331
  78.3722642  70.9093531  95.4238737  78.2473782  70.1083271  94.9149682
  79.0301734  71.4039725  94.9352707  69.9930811  57.2642264  94.6015877
  69.2717396  57.8778232  94.4623350  70.7824066  57.8000029  94.5232523
  80.4357551  68.7102551  97.0518287  79.4887886  68.5907903  96.9796614
  80.7840324  67.8225049  97.1344548  72.7957124  54.5996690 100.8756529
  73.3191526  54.8458987 101.6382838  72.5769458  55.4316725 100.4559666
  68.1924405  56.8700365  88.7427654  67.8637111  55.9897744  88.5602760
  68.5463776  56.8148034  89.6304043  77.4403984  68.5055268  93.2522639
  77.2928947  67.5771975  93.4330209  78.2657478  68.5275358  92.7679714
  71.3066228  57.1573335  89.1103131  71.6462301  57.6859256  88.3881740
  71.7538349  57.4953741  89.8861698  81.0438106  69.3283826  94.3387512
  81.9684653  69.1226688  94.2011963  80.8753409  69.0800228  95.2476853
  74.0009669  55.5410385  98.5606199  73.6606490  54.7418199  98.9626879
  73.2948676  55.8412096  97.9883033  74.6526141  52.6259698  97.0133522
  75.4752210  52.1520176  96.8912413  74.8964205  53.4050182  97.5132209
  73.2934376  55.6547956  87.3096424  74.0142738  56.0329209  86.8060141
  72.6699680  56.3736833  87.4131402  77.4365498  56.3593105  88.2454756
  77.6529113  57.2417743  87.9443585  76.9559566  55.9679319  87.5160398
  72.1764720  59.3178819  94.8225501  72.0309301  59.6319122  95.7149783
  71.6989923  59.9363719  94.2696400  74.0361103  56.3081367  94.8706391
  74.0222672  55.4122460  94.5338689  74.7533531  56.3152030  95.5044677
  75.8887233  56.7418707  96.9159518  75.6305011  57.6635777  96.9143848
  75.3572274  56.3449141  97.6059982  80.8333422  69.8469494  89.6949603
  81.0070300  69.2815916  88.9423456  81.3262313  70.6470389  89.5129093
  66.6510382  61.8584163  97.7613162  66.1063850  62.6343971  97.8933437
  67.5289732  62.2054967  97.6032284  73.4397999  55.1895747  90.1393961
  73.5613910  54.2612393  90.3384848  73.1500041  55.2034433  89.2272276
  76.3089189  52.8750657  93.2760681  76.3310886  52.9389990  92.3212660
  76.7257248  52.0355166  93.4701187  86.6872813  62.6105917  91.3139903
  87.1303959  61.8613242  90.9159026  85.8099324  62.6016053  90.9313635
  81.8208595  69.1636258  86.7946502  82.5159499  69.7842951  87.0133816
  82.1631745  68.3131609  87.0698880  67.4376404  60.9854059 100.6543319
  66.6958140  61.1336695 101.2407949  67.1169148  61.2462325  99.7910068
  83.7200018  66.6135964  88.3233832  84.2451342  66.9523237  87.5983152
  83.6322370  65.6782979  88.1396967  75.3820067  70.5270037 100.4523709
  75.6907193  70.2819184 101.3246409  76.1795549  70.7316676  99.9642579
  75.4040679  72.6807947  92.6829086  74.9645669  72.1884326  93.3761942
  76.1548796  72.1380915  92.4421161  67.8833018  68.8719488  92.6853714
  68.7091037  68.5723260  92.3052357  67.5327070  68.1027110  93.1343502
  72.8514551  68.2245956  94.7551387  72.2294560  67.5616661  94.4553615
  73.5219418  68.2507088  94.0725035  66.0841623  66.7905814  93.6442647
  65.2473531  66.3627989  93.4626649  66.0565268  66.9838258  94.5813438
  72.9239078  56.7027744 104.3483893  72.9727234  57.5789867 103.9661663
  73.4661592  56.1605137 103.7755537  83.5291799  64.0961334 100.9417759
  83.5789804  63.9311341 101.8833282  83.4205722  63.2288593 100.5515640
  72.4128058  66.7749879  88.2309848  72.5616178  67.4585344  87.5776521
  73.2194501  66.7554970  88.7459304  80.8195561  60.0792262 102.2577066
  81.7205424  59.9398727 101.9661063  80.8943536  60.2446717 103.1975243
  75.1538367  57.4559117 101.1030252  74.2841676  57.7492683 100.8312840
  75.3897847  58.0399562 101.8237516  86.2305678  64.0811155  93.7062351
  87.0652569  64.5200959  93.8699911  86.3664807  63.6049808  92.8870596
  83.2797184  61.6390890  99.6539838  83.7551306  61.8318536  98.8458690
  82.3562749  61.6950076  99.4083222  70.1680691  62.8015057  89.2370917
  69.9226733  61.8977387  89.4351127  70.3376605  62.8032208  88.2950395
  77.8577401  53.6738733  98.6195672  78.3759344  54.4099760  98.2942161
  77.5032533  53.9802727  99.4542431  69.4376338  58.5343415  86.7357078
  68.7445583  58.6087770  86.0797114  69.1928090  57.7703758  87.2578595
  78.1089995  50.0939016  94.1396569  78.3891748  49.4262205  94.7656995
  78.8940602  50.2868112  93.6271233  75.9123463  69.2698010  85.7021595
  75.3397430  69.8888197  85.2492067  76.4856257  69.8197372  86.2361517
  81.9798853  58.5156650  97.8868144  82.9316276  58.6154748  97.9080368
  81.8102303  57.7234919  98.3966228  80.0013232  55.6012233  98.0727545
  79.4063165  55.8817246  97.3774034  79.7162929  56.0906134  98.8444286
  79.1320723  69.5535160  86.8330178  80.0651396  69.4880722  87.0363053
  79.0443936  70.3891427  86.3744710  81.7608740  68.8701030  83.7934125
  81.6822371  68.5360894  84.6869883  82.5818406  69.3622798  83.7925597
  84.4586931  61.7362770  97.0010444  84.4263251  60.7978770  97.1870128
  85.0687554  61.8146806  96.2676269  76.2970262  60.6058823  83.0437648
  77.2429366  60.4765031  83.1126066  75.9184507  59.8673485  83.5207076
  84.6081419  58.5273813  97.0468727  84.0920468  57.7432270  96.8598656
  85.4921368  58.1992530  97.2115246  82.2692146  52.2714829  93.0064540
  82.0716967  51.9629917  93.8907872  82.8791852  52.9976468  93.1362469
  90.2763481  62.7978777  96.1416480  91.0066869  62.5364065  96.7024184
  89.6670426  62.0607498  96.1818548  88.3578778  60.9386639  96.7390932
  87.6311941  60.8042604  96.1307423  87.9426065  61.2463468  97.5447650
  76.1808954  64.6576569 104.5038305  77.1011964  64.8355168 104.6978351
  76.1458537  63.7132614 104.3518004  74.4813179  58.5308799  82.9792533
  73.5744634  58.2341912  83.0555247  74.7589160  58.2338617  82.1126819
  65.3991119  59.8515162  93.4291579  65.0793904  58.9980471  93.1365953
  64.8524547  60.0663741  94.1849547  69.1771027  62.5677603  97.1461086
  69.3957037  63.4994711  97.1649120  69.5896801  62.2085578  97.9315890
  76.0975245  53.0745689  89.1336774  75.2875973  52.7292774  89.5092020
  76.7859661  52.7653233  89.7224386  78.0265793  52.1523736  90.7561071
  78.5796831  52.5719189  91.4151094  78.2635879  51.2259484  90.7984027
  74.0498892  58.1410809 106.5363835  73.9495619  59.0905166 106.4675926
  73.8320434  57.8129048 105.6639905  73.2511963  55.3895734  83.1204512
  74.1131127  55.7150633  83.3800330  73.4362308  54.6027230  82.6077578
  65.2679379  63.4718074  95.3984701  64.5742851  63.0572027  94.8854655
  66.0152370  63.5138610  94.8018120  81.4044600  54.2624261  90.2639735
  80.8243269  54.9209065  89.8817788  81.1380533  53.4401605  89.8527153
  79.8548166  53.6629318  92.4661055  80.3547945  53.7745853  91.6575374
  80.4983774  53.3590371  93.1061864  73.9130162  61.5707948 105.3528896
  73.4297244  62.3708308 105.5592785  73.9991101  61.5815893 104.3996340
  67.1816122  63.4036328  93.2750716  67.1586810  63.5024015  92.3232599
  67.4916758  64.2501479  93.5967882  69.8403500  65.4612483  97.3897330
  70.7946753  65.4296425  97.3227262  69.6416023  65.0003107  98.2047556
  70.4302882  64.0313599  99.9568128  71.2495771  64.5257677  99.9802965
  70.7039689  63.1145567  99.9285695  80.1869478  56.4224351  89.3196083
  79.2995333  56.7074002  89.1016278  80.6023467  56.2618114  88.4723360
  83.5384014  56.4470872  93.0350423  84.3144404  56.9367325  93.3075039
  82.8132148  56.8728926  93.4922292  85.9756573  57.1598491  94.0924363
  86.5701064  56.9194227  93.3817672  86.0483156  56.4405622  94.7197900
  68.1953728  71.0032102  94.4067528  68.0608196  70.2432503  93.8405526
  67.7785791  71.7273002  93.9396317  79.3312691  66.1869026  83.4144103
  80.0348542  66.3919028  84.0301759  78.6075340  66.7545788  83.6793187
  80.1610502  61.9378887  89.5346374  80.1045703  62.3947438  88.6954006
  80.7138844  61.1769572  89.3569216  83.9715308  57.7268619  90.3596493
  83.7152242  57.3265255  91.1904701  83.3468176  58.4412413  90.2346632
  88.2827645  60.4664692  92.8667784  87.7227203  60.5357881  93.6399347
  87.6771149  60.2905677  92.1467281  71.3522854  71.9001419  94.6185971
  71.2355238  72.8446852  94.5164661  70.5315301  71.5974981  95.0071770
  81.2399389  66.6251555  85.4642563  82.0744993  66.1932753  85.2820038
  81.0783732  66.4533569  86.3919458  80.8945281  63.1283668  86.8298903
  80.8394085  62.9627940  85.8887347  80.2691336  63.8359701  86.9861092
  65.6837796  58.3651733 100.6560325  66.3296660  57.8550687 101.1447550
  65.4754947  59.1020414 101.2303750  74.2041406  52.6291777  86.4084221
  74.1920076  53.5733617  86.5652492  75.0964828  52.4461923  86.1143682
  72.3777368  72.5529681  97.8341899  73.2804615  72.5853291  98.1508394
  72.1514738  71.6230132  97.8488235  74.1330970  71.3060668  94.4951978
  73.1826601  71.3062529  94.3816350  74.4363457  70.5593402  93.9788012
  78.0193526  49.2234554  90.6630158  77.2525922  48.6693041  90.8086840
  78.4304231  49.2956423  91.5244310  70.0235287  55.5119350 104.7535339
  70.8866749  55.1556155 104.9638664  69.4500698  55.1733245 105.4410743
  82.5360186  78.9484111  91.4856156  81.9725051  78.8574048  90.7172444
  82.4212581  78.1284015  91.9658648  88.1159745  82.6155078  86.7970621
  87.4647724  83.2009159  86.4104635  88.9104107  83.1461273  86.8565658
  82.0415372  79.7044215  87.1957755  82.8146248  79.1573203  87.0570631
  82.3940771  80.5688465  87.4072216  84.3781650  75.8636882  84.8276205
  84.6307170  75.3418403  84.0659668  83.4406209  75.7003027  84.9302889
  89.4224932  74.8672660  92.6350948  90.2088022  74.4492083  92.2841365
  89.6863637  75.7718752  92.8032597  89.5935010  80.3045510  87.3339605
  88.9580843  80.3780137  88.0460510  89.2632416  80.8939109  86.6558684
  84.0977938  77.7664988  87.0300580  83.9814196  77.0909891  87.6981664
  84.2080198  77.2797361  86.2132733  86.4409479  77.2275135  90.7347269
  86.0767686  76.7005756  91.4460191  87.2976595  76.8373604  90.5613755
  86.0814966  72.2565034  85.7308618  86.2489369  73.1245271  86.0979089
  85.8912135  72.4192316  84.8069907  82.2902781  77.1695810  93.4311153
  81.3653277  77.0372024  93.6388844  82.5387194  77.9490029  93.9281095
  86.0604187  74.7122692  86.7155285  85.9403812  75.1579743  87.5540765
  85.3656775  75.0608010  86.1568823  79.6511592  76.8129084  94.2654942
  79.7803973  77.0663563  95.1794353  78.9709043  77.4056792  93.9459597
  91.7589253  75.1844165  87.5435619  92.6707109  75.4171552  87.3683316
  91.2498900  75.7681209  86.9810697  89.1025228  71.3602201  95.7925479
  88.2409707  71.6583455  96.0842217  89.1287663  71.5772600  94.8606512
  85.9186797  79.9044392  92.1999285  86.3825143  80.1832095  91.4103908
  85.6543596  79.0027836  92.0172376  84.8555683  76.0267544  89.0088850
  85.5579727  76.4788588  89.4762777  84.5236312  75.3851363  89.6368743
  78.5981017  74.2851097  94.3105984  77.8080071  74.5408625  93.8346094
  79.0892265  75.0999434  94.4158024  80.5495763  74.6495676  91.2689461
  79.7526926  74.7614370  91.7872956  80.3221355  74.9882328  90.4030351
  76.8818720  74.5381587  96.7420975  77.1326759  75.4228597  97.0078551
  77.4178269  74.3586189  95.9696066  86.0949448  82.8408487  89.0850956
  85.9595123  83.6860022  89.5135803  86.6359261  83.0427764  88.3216889
  79.5478846  80.3583925  89.6578881  80.0603366  81.1527175  89.8084445
  80.2001558  79.6610215  89.5912482  81.3573730  83.4749681  91.7401634
  81.5340359  84.3967646  91.5522618  82.1530564  83.1608100  92.1696014
  89.4441912  66.3639048  97.6149849  89.1006181  67.2540690  97.5388960
  89.8120874  66.1740706  96.7519434  77.5127762  78.6872579  90.4338451
  78.3502984  79.0969587  90.2172159  77.6906030  77.7472021  90.4038645
  89.4092194  76.3547660  86.1222284  88.8938818  77.1252264  86.3610672
  89.1369503  75.6812796  86.7455346  86.9939305  71.1997360  91.1807522
  86.1380902  70.8104211  91.0013161  87.4066257  71.2789321  90.3207308
  88.5238452  68.7343704  95.5799082  88.0203248  68.6973839  94.7666888
  88.8169059  69.6436446  95.6395739  84.7681338  68.8182433  94.5865264
  85.6334335  68.6225242  94.2271153  84.8358847  68.5892785  95.5134621
  94.3826469  79.1080014  88.0575458  93.6055911  78.7691174  87.6130620
  95.0617950  79.1132637  87.3830423  89.1978498  74.2274752  87.9482065
  88.8928633  74.5420901  88.7992208  90.1508940  74.3056172  87.9909398
  87.6424929  80.3864975  89.5975019  87.1146291  79.6517735  89.2848257
  87.1412432  81.1639651  89.3514988  82.3743657  71.0484641  91.9581631
  82.9487409  70.8259823  91.2254824  82.9614639  71.1173336  92.7110232
  82.7013244  73.0789102  85.9777516  81.8650556  73.4163789  86.2986791
  82.5618014  72.9438082  85.0404653  84.6766325  67.9225890  90.6856700
  84.0230737  67.6074907  90.0613315  84.6346799  67.3001631  91.4116523
  85.7877530  78.2045185  82.6009992  84.8804591  77.9734439  82.8001141
  86.2848562  77.4082804  82.7883974  88.6945608  86.9142692  85.5206678
  88.0207307  87.2174389  86.1291636  89.0811430  87.7171773  85.1712136
  87.9104065  74.4107824  95.0104348  86.9926626  74.6322771  94.8526036
  88.3264209  74.4854134  94.1516055  88.6939113  75.8099239  90.1407028
  89.4410932  76.3220637  89.8314150  88.9630702  75.4883292  91.0011422
  86.9665763  78.3057780  87.1233982  86.0576982  78.0216813  87.2206452
  86.9960847  78.7256859  86.2637289  91.1417950  72.8456356  92.1225817
  90.4040707  72.3333742  92.4536060  91.3944724  72.4056737  91.3109094
  91.2429577  65.6232608  92.7167587  91.5488454  64.7629971  92.4293502
  91.9682182  66.2150228  92.5166581  77.5353933  76.0263294  91.1049185
  77.3378333  75.4332655  90.3800251  76.9800597  75.7215504  91.8225123
  85.5150657  75.9186401  93.2243778  85.5699267  74.9660237  93.1486254
  84.7041859  76.0745840  93.7085076  86.6641851  79.8466524  84.4622061
  86.2261281  79.1302383  84.0027698  87.4052292  80.0742639  83.9007152
  83.4543017  74.5363460  90.9834157  82.6410883  74.8357631  91.3899349
  83.9502011  74.1419149  91.7008639  82.9457092  72.1081816  96.5995392
  83.5856471  71.9670575  95.9018355  82.1134622  71.8216329  96.2233994
  83.7217396  81.4084246  92.7130384  84.5157994  80.9134567  92.5112959
  83.0109088  80.8802110  92.3498090  80.0300159  75.5527328  88.7890137
  79.0997747  75.4911784  89.0060099  80.1257631  75.0303281  87.9926778
  79.9485708  72.0782141  91.3768378  80.2092525  72.9927474  91.2677539
  80.7702881  71.6106584  91.5264991  90.7853078  78.7050905  84.0554119
  90.1682249  77.9797734  83.9587171  90.3169567  79.4660266  83.7121193
  82.5751624  72.9236330  83.1775423  81.6981091  72.8025130  82.8137669
  83.0509377  72.1322408  82.9254311  74.0953764  77.7113489  93.2716930
  74.7824804  77.3975219  92.6837945  73.9401893  78.6154854  92.9984181
  78.8988487  72.6003686  97.7001954  78.8146675  71.9929356  96.9652364
  78.0771193  73.0912704  97.7011450  89.0712201  71.0857250  93.0672149
  89.5680900  70.3327212  92.7473219  88.2999182  71.1221566  92.5015358
  90.1541981  79.8428937  90.6410572  89.2198260  79.9630399  90.4715276
  90.3318650  78.9401404  90.3770582  85.6547169  73.2274633  92.7943833
  85.2844957  72.6745673  93.4824739  86.1506262  72.6232766  92.2418833
  93.5414533  75.6846256  91.1760606  94.0074985  76.5174248  91.1020909
  93.9922033  75.2191238  91.8805865  91.6090764  82.0290077  88.1746758
  91.8850608  81.9146672  89.0840632  90.7395262  81.6307562  88.1358931
  91.5131195  68.0526843  95.2151508  90.5994275  68.2831070  95.3833715
  91.9424297  68.1365287  96.0665540  73.6721741  75.7914083  95.5434397
  73.7105840  75.2577673  96.3371515  73.1662033  75.2649288  94.9245374
  81.0512503  70.6378623  99.0396939  81.1153829  71.4993454  98.6274337
  80.9879623  70.0252625  98.3069298  77.3030318  74.5178185  88.6188328
  77.5983759  73.6088863  88.5655382  76.4018354  74.4965924  88.2969331
  80.8324565  72.5934182  94.6015877  80.1111151  73.2070149  94.4623350
  81.6217821  73.1291946  94.5232523  79.0318160  72.1992283  88.7427654
  78.7030866  71.3189662  88.5602760  79.3857530  72.1439951  89.6304043
  82.1459983  72.4865252  89.1103131  82.4856055  73.0151174  88.3881740
  82.5932103  72.8245659  89.8861698  85.4919896  67.9551616  97.0133522
  86.3145965  67.4812094  96.8912413  85.7357959  68.7342099  97.5132209
  84.1328130  70.9839874  87.3096424  84.8536493  71.3621127  86.8060141
  83.5093434  71.7028751  87.4131402  88.2759253  71.6885023  88.2454756
  88.4922867  72.5709661  87.9443585  87.7953320  71.2971236  87.5160398
  83.0158474  74.6470736  94.8225501  82.8703055  74.9611039  95.7149783
  82.5383678  75.2655637  94.2696400  84.8754857  71.6373284  94.8706391
  84.8616426  70.7414377  94.5338689  85.5927285  71.6443948  95.5044677
  84.2791753  70.5187664  90.1393961  84.4007664  69.5904311  90.3384848
  83.9893796  70.5326350  89.2272276  87.1482944  68.2042575  93.2760681
  87.1704640  68.2681908  92.3212660  87.5651003  67.3647084  93.4701187
  78.7226772  84.2011406  92.6853714  79.5484792  83.9015177  92.3052357
  78.3720824  83.4319028  93.1343502  76.9235377  82.1197732  93.6442647
  76.0867285  81.6919906  93.4626649  76.8959023  82.3130175  94.5813438
  83.2521812  82.1041797  88.2309848  83.4009932  82.7877262  87.5776521
  84.0588256  82.0846887  88.7459304  81.0074445  78.1306975  89.2370917
  80.7620487  77.2269305  89.4351127  81.1770360  78.1324125  88.2950395
  80.2770093  73.8635332  86.7357078  79.5839338  73.9379687  86.0797114
  80.0321845  73.0995676  87.2578595  88.9483749  65.4230934  94.1396569
  89.2285503  64.7554123  94.7656995  89.7334356  65.6160029  93.6271233
  86.7517218  84.5989928  85.7021595  86.1791185  85.2180115  85.2492067
  87.3250011  85.1489289  86.2361517  89.9714477  84.8827078  86.8330178
  90.9045151  84.8172639  87.0363053  89.8837690  85.7183345  86.3744710
  92.6002494  84.1992948  83.7934125  92.5216126  83.8652812  84.6869883
  93.4212161  84.6914716  83.7925597  87.1364016  75.9350740  83.0437648
  88.0823121  75.8056948  83.1126066  86.7578261  75.1965402  83.5207076
  93.1085901  67.6006746  93.0064540  92.9110722  67.2921835  93.8907872
  93.7185606  68.3268385  93.1362469  85.3206933  73.8600717  82.9792533
  84.4138389  73.5633829  83.0555247  85.5982914  73.5630535  82.1126819
  76.2384874  75.1807080  93.4291579  75.9187658  74.3272388  93.1365953
  75.6918302  75.3955658  94.1849547  86.9368999  68.4037606  89.1336774
  86.1269727  68.0584691  89.5092020  87.6253416  68.0945150  89.7224386
  88.8659547  67.4815653  90.7561071  89.4190586  67.9011107  91.4151094
  89.1029634  66.5551401  90.7984027  84.0905718  70.7187652  83.1204512
  84.9524882  71.0442550  83.3800330  84.2756062  69.9319148  82.6077578
  76.1073134  78.8009992  95.3984701  75.4136605  78.3863944  94.8854655
  76.8546125  78.8430528  94.8018120  92.2438354  69.5916178  90.2639735
  91.6637023  70.2500982  89.8817788  91.9774287  68.7693523  89.8527153
  90.6941921  68.9921236  92.4661055  91.1941699  69.1037771  91.6575374
  91.3377529  68.6882289  93.1061864  78.0209876  78.7328245  93.2750716
  77.9980564  78.8315933  92.3232599  78.3310513  79.5793396  93.5967882
  91.0263232  71.7516269  89.3196083  90.1389087  72.0365919  89.1016278
  91.4417222  71.5910032  88.4723360  94.3777769  71.7762790  93.0350423
  95.1538159  72.2659242  93.3075039  93.6525903  72.2020844  93.4922292
  90.1706446  81.5160943  83.4144103  90.8742296  81.7210946  84.0301759
  89.4469095  82.0837705  83.6793187  91.0004256  77.2670805  89.5346374
  90.9439458  77.7239356  88.6954006  91.5532599  76.5061489  89.3569216
  94.8109062  73.0560537  90.3596493  94.5545996  72.6557172  91.1904701
  94.1861930  73.7704331  90.2346632  92.0793143  81.9543473  85.4642563
  92.9138747  81.5224671  85.2820038  91.9177486  81.7825486  86.3919458
  91.7339035  78.4575586  86.8298903  91.6787839  78.2919857  85.8887347
  91.1085091  79.1651619  86.9861092  85.0435161  67.9583695  86.4084221
  85.0313831  68.9025535  86.5652492  85.9358583  67.7753840  86.1143682
  88.8587280  64.5526472  90.6630158  88.0919676  63.9984958  90.8086840
  89.2697985  64.6248340  91.5244310  93.4145379  88.2528247  83.1775423
  92.5374845  88.1317048  82.8137669  93.8903132  87.4614326  82.9254311
  96.1600688  89.1892634  82.9792533  95.2532143  88.8925747  83.0555247
  96.4376669  88.8922452  82.1126819  94.9299472  86.0479570  83.1204512
  95.7918636  86.3734468  83.3800330  95.1149817  85.2611066  82.6077578
  39.1785169  -5.3621437  78.2101462  38.6150034  -5.4531501  77.4417750
  39.0637564  -6.1821533  78.6903955  44.7584728  -1.6950470  73.5215927
  44.1072708  -1.1096389  73.1349941  45.5529091  -1.1644275  73.5810965
  38.6840355  -4.6061333  73.9203062  39.4571231  -5.1532346  73.7815938
  39.0365754  -3.7417083  74.1317523  46.2359993  -4.0060038  74.0584912
  45.6005826  -3.9325411  74.7705816  45.9057399  -3.4166439  73.3803991
  40.7402922  -6.5440561  73.7545887  40.6239180  -7.2195657  74.4226971
  40.8505181  -7.0308187  72.9378040  40.4636063   3.1720785  77.0890722
  40.3860092   4.1228611  77.1679203  39.8597706   2.8266658  77.7465649
  47.0083819  -4.1435565  81.6594507  46.3792681  -3.9789850  80.9570575
  46.6209481  -3.7293955  82.4305471  50.8873051  -3.2081127  79.0138870
  50.2024089  -2.8282225  78.4635904  50.9716900  -2.5985800  79.7470818
  42.5611781  -4.4061157  78.9244592  43.0250126  -4.1273454  78.1349214
  42.2968579  -5.3077712  78.7417682  49.2569810  -2.6849212  83.7856571
  50.0787254  -3.0869025  83.5039253  49.2532213  -2.7880978  84.7372687
  42.7374431  -1.4697062  75.8096262  42.6020106  -0.6245526  76.2381110
  43.2784244  -1.2677784  75.0462196  36.1903829  -3.9521624  76.3824187
  36.7028349  -3.1578373  76.5329752  36.8426542  -4.6495333  76.3157789
  37.9998714  -0.8355867  78.4646940  38.1765342   0.0862097  78.2767924
  38.7955547  -1.1497448  78.8941320  44.2849913  -3.9240573  76.3220326
  43.7571274  -4.6587814  76.0093563  43.7837415  -3.1465897  76.0760294
  42.4302513  -6.1060363  69.3255299  41.5229575  -6.3371109  69.5246448
  42.9273545  -6.9022744  69.5129280  45.3370592   2.6037144  72.2451985
  44.6632291   2.9068841  72.8536943  45.7236414   3.4066225  71.8957442
  43.6090746  -6.0047768  73.8479289  42.7001966  -6.2888735  73.9451759
  43.6385830  -5.5848689  72.9882596  48.8410014  -2.3941179  77.6170457
  48.3872341  -3.2350269  77.6735647  48.2103980  -1.7579780  77.9545237
  47.2842953  -0.5564682  78.5520275  47.5765927   0.0040375  77.8332640
  47.7941574  -0.2636121  79.3073434  43.3066834  -4.4639024  71.1867368
  42.8686264  -5.1803165  70.7273005  44.0477275  -4.2362910  70.6252459
  42.2476578   0.2215669  79.6413728  42.2052757   0.4476516  78.7122260
  43.1639277  -0.0120956  79.7899529  40.3642379  -2.9021302  79.4375691
  41.1582977  -3.3970982  79.2358266  39.6534071  -3.4303439  79.0743396
  45.1837223  -0.5203206  83.7888058  45.2374246   0.0487730  84.5565774
  44.3152005  -0.3501321  83.4242095  43.5361807   2.7716817  74.4599064
  43.7113563   2.3004860  75.2744687  42.8494595   3.3982583  74.6880325
  44.4918870  -2.9510677  80.5062366  44.1568703  -2.9909907  81.4020015
  43.9922816  -3.6165961  80.0332776  38.1022892   5.9206179  81.2338924
  38.3419490   6.5524704  81.9117943  37.2592089   5.5694220  81.5204284
  42.6150754   1.7285302  83.6380428  42.5420926   2.5340273  84.1499733
  42.1728147   1.9277268  82.8128450  42.4040534   0.9657072  77.1483250
  41.6208056   1.5078752  77.2421474  43.1033279   1.4831052  77.5477491
  45.0749438   1.6272136  85.7938587  45.7877410   2.2619601  85.7214489
  44.5839466   1.7236002  84.9778589  46.7966965  -4.4676611  77.3655879
  45.8623243  -4.3475149  77.1960583  46.9743633  -5.3704145  77.1015889
  48.2515747  -2.2815471  74.8992065  48.5275591  -2.3958876  75.8085939
  47.3820246  -2.6797986  74.8604238  44.8869811   1.9670880  78.5424879
  45.0692206   1.1492536  79.0052631  45.7102797   2.1838572  78.1049769
  45.2211976   0.8939065  75.8039927  45.7499743   0.3831520  75.1910089
  45.4840196   0.5781595  76.6685460  38.5767724   1.9454182  78.5637703
  37.9078100   2.4300309  78.0801743  38.4380594   2.1923402  79.4781082
  42.7172993   3.9797925  85.1620361  43.2691301   4.1429547  85.9269447
  43.0579186   4.5702363  84.4900386  45.8541380   1.9279901  82.1484044
  45.7292520   1.1269641  81.6394989  46.5120471   2.4226094  81.6598013
  47.9176289  -0.2711079  83.7763594  46.9706624  -0.3905728  83.7041920
  48.2659062  -1.1588581  83.8589855  44.9222722  -0.4758363  79.9767946
  44.7747684  -1.4041655  80.1575516  45.7476215  -0.4538272  79.4925021
  48.5256844   0.3470196  81.0632819  49.4503391   0.1413057  80.9257270
  48.3572147   0.0986597  81.9722160  48.3152160   0.8655863  76.4194910
  48.4889038   0.3002286  75.6668762  48.8081051   1.6656758  76.2374400
  49.3027333   0.1822628  73.5191808  49.9978237   0.8029320  73.7379123
  49.6450483  -0.6682021  73.7944186  51.2018756  -2.3677667  75.0479139
  51.7270080  -2.0290394  74.3228459  51.1141108  -3.3030651  74.8642274
  42.8859416   3.6994317  79.4074392  42.4464407   3.2070695  80.1007249
  43.6367533   3.1567284  79.1666467  35.3651755  -0.1094143  79.4099020
  36.1909775  -0.4090371  79.0297664  35.0145807  -0.8786520  79.8588809
  40.3333289  -0.7567674  81.4796694  39.7113298  -1.4196969  81.1798922
  41.0038155  -0.7306542  80.7970342  39.8946795  -2.2063751  74.9555154
  40.0434916  -1.5228287  74.3021827  40.7013239  -2.2258661  75.4704610
  37.6499428  -6.1798573  75.9616223  37.4045470  -7.0836243  76.1596434
  37.8195343  -6.1781423  75.0195701  43.3942201   0.2884379  72.4266902
  42.8216168   0.9074567  71.9737374  43.9674995   0.8383741  72.9606824
  46.6139461   0.5721530  73.5575484  47.5470134   0.5067091  73.7608360
  46.5262674   1.4077796  73.0990017  49.2427477  -0.1112600  70.5179432
  49.1641109  -0.4452736  71.4115190  50.0637144   0.3809168  70.5170904
  35.6772466   2.0218472  81.1312835  35.5426934   1.2618873  80.5650833
  35.2604528   2.7459372  80.6641624  46.8131429  -2.7944605  70.1389410
  47.5167279  -2.5894602  70.7547066  46.0894078  -2.2267843  70.4038494
  38.8341592   2.9187789  81.3431277  38.7173976   3.8633221  81.2409968
  38.0134038   2.6161350  81.7317077  48.7218127  -2.3562075  72.1887870
  49.5563731  -2.7880877  72.0065345  48.5602470  -2.5280062  73.1164765
  39.8596106   3.5716051  84.5587206  40.7623353   3.6039661  84.8753701
  39.6333476   2.6416502  84.5733542  41.6149708   2.3247037  81.2197284
  40.6645339   2.3248899  81.1061657  41.9182194   1.5779772  80.7033319
  57.3502402   8.1607576  82.2843047  57.9880812   8.0414323  81.5806387
  57.2323245   9.1088420  82.3430999  54.1592108   8.1135004  82.2204572
  53.8210619   7.9976068  81.3325106  55.0281876   7.7126169  82.2005578
  50.0178924   9.9670480  78.2101462  49.4543789   9.8760417  77.4417750
  49.9031319   9.1470385  78.6903955  54.6411891   9.2669856  88.1790777
  54.6300532   8.8722654  87.3071281  54.8032530   8.5335928  88.7724549
  47.5643356  11.4621672  81.0485683  48.3564648  11.1212496  80.6331982
  47.8040006  11.5716647  81.9687836  55.5978482  13.6341448  73.5215927
  54.9466462  14.2195528  73.1349941  56.3922845  14.1647643  73.5810965
  49.5234110  10.7230585  73.9203062  50.2964986  10.1759572  73.7815938
  49.8759508  11.5874834  74.1317523  51.3619152  12.0506967  87.1269961
  51.0709018  12.9552598  87.0116627  51.9976136  12.0923495  87.8414031
  52.2875359   9.4283816  83.7171321  52.8838931   9.2039838  83.0028284
  52.3450330   8.6868561  84.3196769  51.8600387   6.8823251  71.5521512
  52.1125908   6.3604772  70.7904975  50.9224946   6.7189397  71.6548195
  56.9043670   5.8859030  79.3596255  57.6906759   5.4678453  79.0086672
  57.1682375   6.7905122  79.5277903  57.0753748  11.3231880  74.0584912
  56.4399581  11.3966506  74.7705816  56.7451154  11.9125479  73.3803991
  62.3052097   5.8234263  80.2629233  63.0377269   5.2533480  80.4967063
  61.5491453   5.4355863  80.7035739  51.5796676   8.7851357  73.7545887
  51.4632934   8.1096260  74.4226971  51.6898936   8.2983731  72.9378040
  53.9228217   8.2461504  77.4592576  53.5586424   7.7192125  78.1705497
  54.7795333   7.8559973  77.2859061  59.8277518  -0.4644163  84.7223842
  59.4960842   0.4051248  84.4985057  59.2323131  -0.7807879  85.4017872
  53.5633704   3.2751404  72.4553924  53.7308106   4.1431640  72.8224395
  53.3730873   3.4378686  71.5315214  56.3209037  11.7368383  84.1219755
  56.0209760  12.6393422  84.0135562  55.9760097  11.4700566  84.9740908
  49.7721519   8.1882180  80.1556459  48.8472015   8.0558394  80.3634151
  50.0205932   8.9676399  80.6526402  59.7206181   4.2550923  81.8017192
  58.8123058   4.1866331  81.5075953  59.6693777   4.7322868  82.6299018
  53.5422925   5.7309061  73.4400591  53.4222550   6.1766112  74.2786071
  52.8475513   6.0794379  72.8814129  47.1330330   7.8315453  80.9900248
  47.2622711   8.0849932  81.9039660  46.4527781   8.4243161  80.6704903
  51.3029817  18.5012703  77.0890722  51.2253847  19.4520528  77.1679203
  50.6991461  18.1558576  77.7465649  53.7947047   5.6740569  89.7452089
  53.0180381   6.2334489  89.7354954  54.4337610   6.1597352  90.2666959
  61.5867827   2.4567361  83.5795066  60.9442208   2.7499895  82.9334861
  61.0822756   2.3420282  84.3848263  59.2407991   6.2030535  74.2680925
  60.1525847   6.4357921  74.0928623  58.7317638   6.7867579  73.7056004
  52.0493419   8.4826022  89.3070056  52.7908103   9.0211066  89.0304880
  51.3430405   9.1092311  89.4641608  57.5248759  10.6255162  87.9042218
  57.9332115  10.1837573  87.1596850  56.8026020  10.0507790  88.1576411
  53.8779829   5.5627769  85.2775775  54.7241024   5.9867183  85.4210424
  53.8178466   4.9061394  85.9714338  57.8477573  11.1856353  81.6594507
  57.2186436  11.3502067  80.9570575  57.4603235  11.5997963  82.4305471
  61.7266805  12.1210791  79.0138870  61.0417843  12.5009692  78.4635904
  61.8110655  12.7306118  79.7470818  57.0279274   3.2232138  86.9356948
  56.7840206   3.9774198  86.3991224  57.3039205   3.6017485  87.7704195
  58.9817737   9.7670750  85.6134214  59.1934632  10.4102510  84.9368595
  58.9347485   8.9333066  85.1456144  56.5843966   2.3788571  82.5170786
  55.7228445   2.6769824  82.8087524  56.6106400   2.5958969  81.5851819
  53.4005535  10.9230761  78.9244592  53.8643881  11.2018464  78.1349214
  53.1362333  10.0214206  78.7417682  50.2929616  10.4702243  81.8624355
  50.8630973  10.8989511  81.2241840  50.8837728  10.1884827  82.5608541
  52.3374421   7.0453914  75.7334157  53.0398465   7.4974957  76.2008083
  52.0055050   6.4037732  76.3614050  50.7854783   5.6365670  90.1085366
  50.1553443   6.3181951  90.3420763  50.6790871   5.5248752  89.1638505
  46.0799755   5.3037466  81.0351291  45.2898809   5.5594995  80.5591401
  46.5711003   6.1185804  81.1403331  60.0963565  12.6442705  83.7856571
  60.9181009  12.2422893  83.5039253  60.0925968  12.5410940  84.7372687
  48.0314501   5.6682045  77.9934767  47.2345664   5.7800740  78.5118263
  47.8040093   6.0068698  77.1275658  53.8620168  12.1926749  85.9417282
  53.9264601  12.6547156  86.7775454  53.1531092  11.5624114  86.0699592
  44.3637458   5.5567957  83.4666281  44.6145497   6.4414967  83.7323857
  44.8997007   5.3772558  82.6941373  68.1869558   8.9881454  80.1341543
  67.4333266   8.4188852  79.9785547  68.3217099   8.9544118  81.0812178
  53.5768186  13.8594856  75.8096262  53.4413861  14.7046392  76.2381110
  54.1177998  14.0614134  75.0462196  47.0297583  11.3770294  76.3824187
  47.5422104  12.1713544  76.5329752  47.6820296  10.6796585  76.3157789
  48.8392468  14.4936050  78.4646940  49.0159096  15.4154015  78.2767924
  49.6349302  14.1794470  78.8941320  48.1244825   6.5400682  88.3409104
  48.0098340   5.6385940  88.6416203  47.2689342   6.7864379  87.9893920
  55.2036662  14.4818423  89.9396604  54.7600516  13.6954801  89.6217509
  55.8653876  14.6697573  89.2740495  49.9623783  16.0114224  84.4657283
  50.5131209  15.8831288  83.6934277  49.1235259  16.3109113  84.1152176
  57.3017900  14.7621223  87.9678006  57.2836376  15.5830104  87.4758275
  58.2237820  14.6375298  88.1928147  53.7590955  12.2765352  88.8101514
  54.2919291  11.5153640  88.5800822  53.2305036  11.9839004  89.5525668
  44.9946500   9.7058948  77.1583758  45.8321722  10.1155957  76.9417466
  45.1724768   8.7658391  77.1283952  56.8910932   7.3734029  72.8467591
  56.3757556   8.1438634  73.0855978  56.6188241   6.6999165  73.4700652
  54.4758043   2.2183730  77.9052829  53.6199640   1.8290580  77.7258468
  54.8884995   2.2975691  77.0452615  56.0057190  -0.2469927  82.3044389
  55.5021985  -0.2839792  81.4912194  56.2987797   0.6622816  82.3641046
  52.2500076  -0.1631197  81.3110571  53.1153073  -0.3588388  80.9516460
  52.3177585  -0.3920845  82.2379927  61.8645206  10.1266384  74.7820764
  61.0874649   9.7877543  74.3375926  62.5436687  10.1319007  74.1075729
  56.6797235   5.2461121  74.6727372  56.3747371   5.5607270  75.5237515
  57.6327677   5.3242541  74.7154705  55.1243667  11.4051345  76.3220326
  54.5965029  10.6704104  76.0093563  54.6231170  12.1826021  76.0760294
  60.1036513   9.6000365  81.4387372  59.4460188  10.2899626  81.5267501
  60.9076912   9.9896797  81.7821359  49.8562395   2.0671011  78.6826937
  50.4306147   1.8446192  77.9500130  50.4433377   2.1359705  79.4355539
  58.9141972   7.9544738  79.4891314  59.4273854   8.5874730  79.9913024
  59.5643196   7.3545933  79.1234674  50.1831982   4.0975472  72.7022823
  49.3469294   4.4350158  73.0232097  50.0436752   3.9624452  71.7649960
  52.1585063  -1.0587740  77.4102007  51.5049475  -1.3738723  76.7858622
  52.1165537  -1.6812000  78.1361830  53.2696267   9.2231555  69.3255299
  52.3623329   8.9920808  69.5246448  53.7667299   8.4269174  69.5129280
  56.1764346  17.9329062  72.2451985  55.5026045  18.2360759  72.8536943
  56.5630168  18.7358142  71.8957442  55.3922803   5.4294193  81.7349654
  54.4745364   5.6509140  81.5771343  55.8082947   5.5040504  80.8761362
  56.1757851   6.8285609  76.8652335  56.9229670   7.3407006  76.5559457
  56.4449440   6.5069662  77.7256728  54.4484501   9.3244150  73.8479289
  53.5395720   9.0403182  73.9451759  54.4779585   9.7443228  72.9882596
  59.6803768  12.9350739  77.6170457  59.2266095  12.0941649  77.6735647
  59.0497735  13.5712138  77.9545237  58.6236688   3.8642725  78.8471124
  57.8859445   3.3520111  79.1781367  58.8763461   3.4243107  78.0354401
  58.1236707  14.7727236  78.5520275  58.4159682  15.3332293  77.8332640
  58.6335328  15.0655797  79.3073434  45.0172671   7.0449664  77.8294491
  44.8197071   6.4519024  77.1045558  44.4619335   6.7401874  78.5470430
  52.9969395   6.9372770  79.9489084  53.0518005   5.9846607  79.8731561
  52.1860597   7.0932209  80.4330383  54.1460589  10.8652893  71.1867368
  53.7080019  10.1488752  70.7273005  54.8871029  11.0929008  70.6252459
  50.9361755   5.5549830  77.7079463  50.1229620   5.8544001  78.1144655
  51.4320749   5.1605519  78.4253945  53.0870333  15.5507587  79.6413728
  53.0446511  15.7768433  78.7122260  54.0033032  15.3170962  79.7899529
  56.5335966   6.0191654  86.5394357  56.8885354   6.2463128  87.3988823
  57.1808098   6.3510031  85.9171612  62.2633703   9.1410090  77.2443686
  62.1251602   9.3311686  76.3164875  61.9069922   9.9029473  77.7011737
  50.4275830   3.1268186  83.3240698  51.0675209   2.9856945  82.6263662
  49.5953360   2.8402699  82.9479300  62.2903083  11.2086617  82.2554958
  62.7239590  11.1161906  83.1038012  63.0034664  11.1844118  81.6174974
  51.2036133  12.4270616  79.4375691  51.9976732  11.9320936  79.2358266
  50.4927826  11.8988479  79.0743396  56.0230978  14.8088711  83.7888058
  56.0768000  15.3779648  84.5565774  55.1545759  14.9790597  83.4242095
  47.5118897   6.5713698  75.5135443  46.5816485   6.5098153  75.7305405
  47.6076369   6.0489650  74.7172085  47.4304446   3.0968511  78.1013685
  47.6911263   4.0113844  77.9922845  48.2521618   2.6292953  78.2510298
  48.9029371   4.5106268  85.2712510  49.5752425   4.3023630  84.6225158
  48.0759158   4.3128354  84.8317742  63.1518633  11.2510318  84.7887843
  63.3454523  12.1556129  85.0347118  63.0519251  10.7917737  85.6226428
  54.8054943   1.1368209  87.2878170  54.1582858   1.8358158  87.1942647
  55.5755959   1.5704353  87.6554419  58.2133741  11.4017061  90.3628724
  58.0619248  11.1727612  89.4458807  58.2038421  12.3587662  90.3760069
  54.9819078   8.9748974  85.3474990  55.9111138   9.1260133  85.1743957
  54.5610108   9.0632994  84.4923637  53.7807409  12.9999638  83.1173528
  53.6418495  12.6318422  83.9899466  52.9922006  13.5147277  82.9457486
  54.3755561  18.1008734  74.4599064  54.5507317  17.6296778  75.2744687
  53.6888349  18.7274501  74.6880325  55.3312625  12.3781241  80.5062366
  54.9962457  12.3382011  81.4020015  54.8316570  11.7125957  80.0332776
  49.3056869   7.7848871  86.0314947  49.1676666   7.0529109  86.6326486
  50.2161792   7.6957771  85.7499134  58.2671816   9.7237275  70.7799425
  57.6500987   8.9984103  70.6832478  57.7988305  10.4846635  70.4366499
  51.9339169   7.4968830  85.5198626  52.6438788   6.8562022  85.4785245
  51.8908477   7.7481725  86.4424807  59.9225948  14.4336183  88.4405206
  59.8638494  13.7495403  87.7735789  60.3245466  15.1755173  87.9885832
  50.6468103   4.4834048  87.3394266  50.1105460   4.0324786  87.9915862
  50.0584812   4.6179957  86.5964730  48.9416647  21.2498097  81.2338924
  49.1813245  21.8816621  81.9117943  48.0985843  20.8986137  81.5204284
  50.0570362   3.9422699  69.9020729  49.1799828   3.8211500  69.5382976
  50.5328115   3.1508778  69.6499618  59.9243355  12.3975767  86.6719185
  59.0370134  12.0601689  86.7945584  60.4941906  11.6658798  86.9087951
  41.5772502   8.7299859  79.9962237  42.2643542   8.4161589  79.4083252
  41.4220631   9.6341224  79.7229488  46.3807224   3.6190056  84.4247260
  46.2965413   3.0115725  83.6897670  45.5589931   4.1099074  84.4256757
  53.4544509  17.0577220  83.6380428  53.3814680  17.8632191  84.1499733
  53.0121902  17.2569185  82.8128450  53.2434288  16.2948990  77.1483250
  52.4601810  16.8370670  77.2421474  53.9427033  16.8122969  77.5477491
  56.5530938   2.1043619  79.7917455  57.0499638   1.3513581  79.4718526
  55.7817920   2.1407936  79.2260665  64.4060696   7.8083985  81.4335747
  64.3950572   8.6908700  81.0629680  63.5378075   7.4555535  81.2390284
  55.9143192  16.9564054  85.7938587  56.6271164  17.5911518  85.7214489
  55.4233221  17.0527920  84.9778589  57.6360719  10.8615306  77.3655879
  56.7016998  10.9816769  77.1960583  57.8137387   9.9587773  77.1015889
  53.1365907   4.2461002  79.5189140  52.7663695   3.6932042  80.2070046
  53.6325000   3.6419136  78.9664140  61.0233270   6.7032626  77.9005913
  61.4893723   7.5360617  77.8266216  61.4740771   6.2377607  78.6051171
  50.9655106  14.7058497  86.6144158  51.6664565  15.3394980  86.7673552
  50.4950221  15.0473229  85.8539797  59.0909501  13.0476447  74.8992065
  59.3669345  12.9333041  75.8085939  58.2214000  12.6493932  74.8604238
  58.9949933  -0.9286787  81.9396814  58.0813013  -0.6982561  82.1079021
  59.4243035  -0.8448343  82.7910847  58.7656392   7.2603105  84.4396708
  58.1127842   7.5079012  83.7849161  59.1436771   6.4467243  84.1059186
  55.7263565  17.2962798  78.5424879  55.9085960  16.4784454  79.0052631
  56.5496551  17.5130490  78.1049769  56.0605731  16.2230983  75.8039927
  56.5893497  15.7123437  75.1910089  56.3233951  15.9073513  76.6685460
  54.8143965   8.0022916  90.9262745  54.1384602   7.9017045  91.5965121
  55.6371598   7.8462129  91.3898743  46.5622824  14.2394852  83.5475261
  47.1476260  13.4938540  83.6803165  46.3647662  14.5498809  84.4311924
  49.4161479  17.2746100  78.5637703  48.7471854  17.7592227  78.0801743
  49.2774349  17.5215320  79.4781082  41.1540478   6.8100452  82.2679704
  41.1924578   6.2764043  83.0616822  40.6480771   6.2835658  81.6490681
  53.5566747  19.3089843  85.1620361  54.1085056  19.4721465  85.9269447
  53.8972941  19.8994281  84.4900386  48.5331241   1.6564993  85.7642246
  48.5972567   2.5179824  85.3519644  48.4698361   1.0438995  85.0314605
  58.4077622  14.1351101  91.0169016  58.9517526  14.7481059  90.5223971
  57.8264467  14.6930679  91.5336029  44.7849056   5.5364555  75.3433635
  45.0802497   4.6275233  75.2900689  43.8837092   5.5152294  75.0214637
  56.6935135  17.2571819  82.1484044  56.5686274  16.4561558  81.6394989
  57.3514226  17.7518012  81.6598013  48.3143303   3.6120551  81.3261184
  47.5929889   4.2256519  81.1868657  49.1036559   4.1478316  81.2477830
  58.7570043  15.0580839  83.7763594  57.8100379  14.9386190  83.7041920
  59.1052816  14.1703337  83.8589855  51.1169617   0.9474978  87.6001835
  51.6404018   1.1937274  88.3628145  50.8981950   1.7795012  87.1804973
  46.5136898   3.2178652  75.4672960  46.1849604   2.3376031  75.2848066
  46.8676268   3.1626321  76.3549350  55.7616476  14.8533555  79.9767946
  55.6141439  13.9250262  80.1575516  56.5869970  14.8753646  79.4925021
  49.6278721   3.5051622  75.8348438  49.9674793   4.0337543  75.1127046
  50.0750841   3.8432028  76.6107005  59.3650598  15.6762114  81.0632819
  60.2897146  15.4704975  80.9257270  59.1965902  15.4278515  81.9722160
  52.3222162   1.8888673  85.2851506  51.9818982   1.0896486  85.6872186
  51.6161168   2.1890384  84.7128339  52.9738633  -1.0262015  83.7378829
  53.7964703  -1.5001537  83.6157719  53.2176697  -0.2471531  84.2377515
  51.6146868   2.0026244  74.0341731  52.3355230   2.3807496  73.5305448
  50.9912172   2.7215120  74.1376709  55.7577991   2.7071393  74.9700063
  55.9741605   3.5896030  74.6688891  55.2772058   2.3157606  74.2405705
  50.4977212   5.6657106  81.5470808  50.3521793   5.9797409  82.4395089
  50.0202416   6.2842006  80.9941706  52.3573595   2.6559654  81.5951697
  52.3435164   1.7600747  81.2583995  53.0746023   2.6630317  82.2289983
  54.2099726   3.0896994  83.6404825  53.9517504   4.0114065  83.6389155
  53.6784766   2.6927428  84.3305289  59.1545915  16.1947781  76.4194910
  59.3282792  15.6294204  75.6668762  59.6474806  16.9948676  76.2374400
  44.9722874   8.2062450  84.4858469  44.4276342   8.9822258  84.6178743
  45.8502224   8.5533255  84.3277590  51.7610491   1.5374034  76.8639267
  51.8826402   0.6090680  77.0630155  51.4712533   1.5512720  75.9517583
  54.6301681  -0.7771056  80.0005987  54.6523378  -0.7131722  79.0457967
  55.0469740  -1.6166547  80.1946493  65.0085306   8.9584204  78.0385210
  65.4516452   8.2091529  77.6404333  64.1311816   8.9494340  77.6558942
  60.1421087  15.5114545  73.5191808  60.8371992  16.1321238  73.7379123
  60.4844237  14.6609897  73.7944186  45.7588896   7.3332346  87.3788626
  45.0170632   7.4814982  87.9653256  45.4381640   7.5940612  86.5155375
  62.0412510  12.9614251  75.0479139  62.5663834  13.3001524  74.3228459
  61.9534863  12.0261266  74.8642274  53.7032559  16.8748325  87.1769016
  54.0119685  16.6297471  88.0491715  54.5008041  17.0794963  86.6887886
  53.7253171  19.0286234  79.4074392  53.2858161  18.5362613  80.1007249
  54.4761288  18.4859202  79.1666467  46.2045510  15.2197775  79.4099020
  47.0303530  14.9201547  79.0297664  45.8539562  14.4505398  79.8588809
  51.1727043  14.5724243  81.4796694  50.5507052  13.9094948  81.1798922
  51.8431910  14.5985375  80.7970342  44.4054115  13.1384102  80.3687954
  43.5686023  12.7106276  80.1871955  44.3777760  13.3316545  81.3058745
  61.7306416  13.5947155  90.3530337  60.9401960  13.5771293  89.8134836
  61.4939771  14.1335448  91.1079374  61.8504291  10.4439621  87.6663066
  61.9002296  10.2789628  88.6078588  61.7418215   9.5766880  87.2760946
  50.7340550  13.1228167  74.9555154  50.8828670  13.8063631  74.3021827
  51.5406993  13.1033257  75.4704610  59.1408054   6.4270549  88.9822372
  60.0417916   6.2877014  88.6906370  59.2156028   6.5925004  89.9220550
  53.4750859   3.8037404  87.8275559  52.6054168   4.0970970  87.5558147
  53.7110339   4.3877849  88.5482822  63.3522488  12.8636563  87.9105087
  63.0607296  13.2266543  88.7468548  62.7394619  12.1503571  87.7318419
  64.5518170  10.4289442  80.4307657  65.3865062  10.8679246  80.5945218
  64.6877299   9.9528096  79.6115903  61.6009676   7.9869177  86.3785145
  62.0763798   8.1796823  85.5703996  60.6775242   8.0428363  86.1328529
  48.4893183   9.1493344  75.9616223  48.2439225   8.2455674  76.1596434
  48.6589097   9.1510495  75.0195701  56.1789893   0.0217021  85.3440979
  56.6971837   0.7578048  85.0187468  55.8245026   0.3281014  86.1787738
  47.7588830   4.8821702  73.4602385  47.0658075   4.9566057  72.8042421
  47.5140582   4.1182046  73.9823902  54.2335955  15.6176297  72.4266902
  53.6609923  16.2366484  71.9737374  54.8068749  16.1675659  72.9606824
  60.3011345   4.8634937  84.6113451  61.2528768   4.9633035  84.6325675
  60.1314796   4.0713206  85.1211535  58.3225725   1.9490520  84.7972852
  57.7275657   2.2295533  84.1019340  58.0375421   2.4384421  85.5689593
  57.4533215  15.9013447  73.5575484  58.3863888  15.8359009  73.7608360
  57.3656428  16.7369714  73.0990017  60.0821232  15.2179318  70.5179432
  60.0034863  14.8839181  71.4115190  60.9030899  15.7101086  70.5170904
  62.7799423   8.0841057  83.7255750  62.7475743   7.1457058  83.9115434
  63.3900047   8.1625094  82.9921575  54.6182754   6.9537110  69.7682954
  55.5641859   6.8243318  69.8371372  54.2396999   6.2151772  70.2452383
  62.9293912   4.8752100  83.7714034  62.4132960   4.0910557  83.5843962
  63.8133860   4.5470817  83.9360553  68.5975973   9.1457064  82.8661787
  69.3279361   8.8842352  83.4269490  67.9882918   8.4085786  82.9063855
  66.6791270   7.2864926  83.4636238  65.9524434   7.1520891  82.8552730
  66.2638557   7.5941755  84.2692956  54.5021446  11.0054856  91.2283611
  55.4224456  11.1833455  91.4223658  54.4671030  10.0610901  91.0763311
  52.8025671   4.8787086  69.7037840  51.8957126   4.5820199  69.7800553
  53.0801652   4.5816904  68.8372126  43.7203611   6.1993450  80.1536886
  43.4006396   5.3458758  79.8611260  43.1737040   6.4142028  80.9094853
  47.4983519   8.9155891  83.8706393  47.7169529   9.8472999  83.8894426
  47.9109293   8.5563865  84.6561196  54.4187737  -0.5776024  75.8582081
  53.6088465  -0.9228939  76.2337327  55.1072154  -0.8868480  76.4469692
  51.5724456   1.7374022  69.8449819  52.4343620   2.0628920  70.1045636
  51.7574800   0.9505517  69.3322885  43.5891871   9.8196361  82.1230008
  42.8955343   9.4050314  81.6099962  44.3364862   9.8616898  81.5263427
  59.7257092   0.6102548  76.9885042  59.1455761   1.2687352  76.6063094
  59.4593025  -0.2120107  76.5772459  58.1760659   0.0107606  79.1906362
  58.6760437   0.1224140  78.3820681  58.8196266  -0.2931341  79.8307171
  52.2342654   7.9186235  92.0774203  51.7509736   8.7186595  92.2838092
  52.3203593   7.9294180  91.1241647  45.5028614   9.7514615  79.9996022
  45.4799302   9.8502302  79.0477906  45.8129250  10.5979766  80.3213189
  48.1615992  11.8090770  84.1142637  49.1159245  11.7774712  84.0472568
  47.9628515  11.3481394  84.9292863  48.7515374  10.3791886  86.6813435
  49.5708263  10.8735965  86.7048272  49.0252182   9.4623854  86.6531002
  58.5081970   2.7702638  76.0441390  57.6207825   3.0552289  75.8261585
  58.9235959   2.6096402  75.1968667  61.8596506   2.7949159  79.7595729
  62.6356896   3.2845612  80.0320346  61.1344641   3.2207214  80.2167599
  64.2969065   3.5076779  80.8169670  64.8913556   3.2672515  80.1062978
  64.3695649   2.7883909  81.4443206  46.5166221  17.3510390  81.1312835
  46.3820689  16.5910790  80.5650833  46.0998283  18.0751289  80.6641624
  57.6525184  12.5347313  70.1389410  58.3561034  12.7397316  70.7547066
  56.9287832  13.1024075  70.4038494  58.4822994   8.2857174  76.2591680
  58.4258195   8.7425726  75.4199313  59.0351336   7.5247859  76.0814523
  62.2927800   4.0746906  77.0841800  62.0364734   3.6743542  77.9150007
  61.6680668   4.7890700  76.9591939  66.6040138   6.8142979  79.5913091
  66.0439696   6.8836169  80.3644653  65.9983641   6.6383964  78.8712587
  49.6735347  18.2479707  81.3431277  49.5567731  19.1925139  81.2409968
  48.8527793  17.9453268  81.7317077  59.5611881  12.9729842  72.1887870
  60.3957485  12.5411041  72.0065345  59.3996224  12.8011856  73.1164765
  59.2157773   9.4761956  73.5544209  59.1606577   9.3106227  72.6132654
  58.5903829  10.1837988  73.7106399  56.5303680  11.7810867  92.8797772
  57.3994840  11.9551520  92.5184407  56.0510432  12.6005284  92.7573502
  52.5253899  -1.0229935  73.1329528  52.5132569  -0.0788096  73.2897799
  53.4177321  -1.2059790  72.8388989  50.6989861  18.9007968  84.5587206
  51.6017107  18.9331579  84.8753701  50.4727231  17.9708419  84.5733542
  52.4543463  17.6538955  81.2197284  51.5039094  17.6540817  81.1061657
  52.7575949  16.9071690  80.7033319  68.1896156  23.4899493  82.2843047
  68.8274566  23.3706241  81.5806387  68.0716999  24.4380337  82.3430999
  64.9985862  23.4426921  82.2204572  64.6604374  23.3267986  81.3325106
  65.8675631  23.0418087  82.2005578  60.8572678  25.2962398  78.2101462
  60.2937543  25.2052335  77.4417750  60.7425073  24.4762302  78.6903955
  65.4805645  24.5961773  88.1790777  65.4694286  24.2014571  87.3071281
  65.6426285  23.8627846  88.7724549  58.4037110  26.7913589  81.0485683
  59.1958402  26.4504414  80.6331982  58.6433760  26.9008565  81.9687836
  66.4372237  28.9633366  73.5215927  65.7860217  29.5487446  73.1349941
  67.2316600  29.4939560  73.5810965  60.3627864  26.0522503  73.9203062
  61.1358740  25.5051490  73.7815938  60.7153263  26.9166752  74.1317523
  62.2012907  27.3798885  87.1269961  61.9102773  28.2844516  87.0116627
  62.8369891  27.4215413  87.8414031  63.1269113  24.7575734  83.7171321
  63.7232686  24.5331756  83.0028284  63.1844085  24.0160479  84.3196769
  62.6994142  22.2115169  71.5521512  62.9519663  21.6896690  70.7904975
  61.7618701  22.0481314  71.6548195  67.7437425  21.2150947  79.3596255
  68.5300514  20.7970370  79.0086672  68.0076129  22.1197039  79.5277903
  67.9147502  26.6523798  74.0584912  67.2793335  26.7258424  74.7705816
  67.5844908  27.2417396  73.3803991  73.1445852  21.1526180  80.2629233
  73.8771024  20.5825397  80.4967063  72.3885207  20.7647781  80.7035739
  62.4190431  24.1143275  73.7545887  62.3026689  23.4388178  74.4226971
  62.5292690  23.6275649  72.9378040  64.7621972  23.5753422  77.4592576
  64.3980179  23.0484043  78.1705497  65.6189087  23.1851891  77.2859061
  70.6671272  14.8647755  84.7223842  70.3354597  15.7343165  84.4985057
  70.0716886  14.5484039  85.4017872  64.4027458  18.6043322  72.4553924
  64.5701861  19.4723558  72.8224395  64.2124628  18.7670603  71.5315214
  67.1602792  27.0660301  84.1219755  66.8603515  27.9685339  84.0135562
  66.8153851  26.7992484  84.9740908  60.6115273  23.5174097  80.1556459
  59.6865770  23.3850311  80.3634151  60.8599686  24.2968317  80.6526402
  70.5599935  19.5842841  81.8017192  69.6516813  19.5158249  81.5075953
  70.5087531  20.0614786  82.6299018  64.3816679  21.0600979  73.4400591
  64.2616305  21.5058030  74.2786071  63.6869268  21.4086297  72.8814129
  57.9724084  23.1607371  80.9900248  58.1016465  23.4141850  81.9039660
  57.2921536  23.7535079  80.6704903  62.1423571  33.8304621  77.0890722
  62.0647601  34.7812446  77.1679203  61.5385215  33.4850493  77.7465649
  64.6340801  21.0032486  89.7452089  63.8574135  21.5626406  89.7354954
  65.2731364  21.4889269  90.2666959  72.4261582  17.7859279  83.5795066
  71.7835962  18.0791812  82.9334861  71.9216510  17.6712199  84.3848263
  70.0801746  21.5322452  74.2680925  70.9919602  21.7649839  74.0928623
  69.5711393  22.1159496  73.7056004  62.8887174  23.8117940  89.3070056
  63.6301858  24.3502984  89.0304880  62.1824159  24.4384228  89.4641608
  68.3642513  25.9547080  87.9042218  68.7725869  25.5129491  87.1596850
  67.6419775  25.3799708  88.1576411  64.7173583  20.8919687  85.2775775
  65.5634778  21.3159100  85.4210424  64.6572221  20.2353311  85.9714338
  68.6871328  26.5148271  81.6594507  68.0580190  26.6793985  80.9570575
  68.2996990  26.9289880  82.4305471  72.5660560  27.4502709  79.0138870
  71.8811598  27.8301610  78.4635904  72.6504409  28.0598035  79.7470818
  67.8673029  18.5524055  86.9356948  67.6233960  19.3066116  86.3991224
  68.1432959  18.9309403  87.7704195  69.8211491  25.0962668  85.6134214
  70.0328387  25.7394427  84.9368595  69.7741240  24.2624984  85.1456144
  67.4237720  17.7080488  82.5170786  66.5622199  18.0061742  82.8087524
  67.4500155  17.9250887  81.5851819  64.2399290  26.2522679  78.9244592
  64.7037635  26.5310382  78.1349214  63.9756088  25.3506123  78.7417682
  61.1323371  25.7994160  81.8624355  61.7024728  26.2281429  81.2241840
  61.7231483  25.5176745  82.5608541  63.1768176  22.3745831  75.7334157
  63.8792219  22.8266875  76.2008083  62.8448804  21.7329650  76.3614050
  61.6248537  20.9657588  90.1085366  60.9947198  21.6473869  90.3420763
  61.5184625  20.8540669  89.1638505  56.9193510  20.6329384  81.0351291
  56.1292564  20.8886912  80.5591401  57.4104757  21.4477722  81.1403331
  70.9357319  27.9734623  83.7856571  71.7574763  27.5714810  83.5039253
  70.9319722  27.8702857  84.7372687  58.8708255  20.9973963  77.9934767
  58.0739418  21.1092657  78.5118263  58.6433847  21.3360615  77.1275658
  64.7013923  27.5218666  85.9417282  64.7658355  27.9839074  86.7775454
  63.9924847  26.8916031  86.0699592  55.2031213  20.8859874  83.4666281
  55.4539251  21.7706884  83.7323857  55.7390761  20.7064476  82.6941373
  79.0263312  24.3173371  80.1341543  78.2727021  23.7480770  79.9785547
  79.1610854  24.2836036  81.0812178  64.4161940  29.1886774  75.8096262
  64.2807615  30.0338310  76.2381110  64.9571753  29.3906051  75.0462196
  60.9029280  15.2678354  92.4710617  60.5096226  14.7144552  93.1458262
  61.7195420  15.5788932  92.8617135  57.8691338  26.7062212  76.3824187
  58.3815858  27.5005462  76.5329752  58.5214051  26.0088502  76.3157789
  59.6786222  29.8227968  78.4646940  59.8552851  30.7445933  78.2767924
  60.4743056  29.5086387  78.8941320  63.8197241  16.6836233  90.0630874
  64.5606954  17.2843386  89.9835336  64.0515164  15.9413871  89.5048917
  58.9638579  21.8692600  88.3409104  58.8492094  20.9677857  88.6416203
  58.1083097  22.1156297  87.9893920  66.0430417  29.8110340  89.9396604
  65.5994271  29.0246719  89.6217509  66.7047630  29.9989491  89.2740495
  60.8017538  31.3406142  84.4657283  61.3524963  31.2123205  83.6934277
  59.9629014  31.6401031  84.1152176  68.1411655  30.0913140  87.9678006
  68.1230130  30.9122021  87.4758275  69.0631575  29.9667215  88.1928147
  64.5984709  27.6057270  88.8101514  65.1313046  26.8445558  88.5800822
  64.0698790  27.3130922  89.5525668  67.7654404  12.7117336  84.3395156
  67.4218673  13.6018977  84.2634266  68.1333367  12.5218993  83.4764741
  55.8340255  25.0350866  77.1583758  56.6715477  25.4447875  76.9417466
  56.0118522  24.0950308  77.1283952  67.7304687  22.7025947  72.8467591
  67.2151310  23.4730551  73.0855978  67.4581995  22.0291083  73.4700652
  65.3151798  17.5475648  77.9052829  64.4593394  17.1582498  77.7258468
  65.7278749  17.6267608  77.0452615  66.8450944  15.0821991  82.3044389
  66.3415740  15.0452126  81.4912194  67.1381551  15.9914734  82.3641046
  63.0893830  15.1660721  81.3110571  63.9546827  14.9703529  80.9516460
  63.1571339  14.9371072  82.2379927  72.7038961  25.4558301  74.7820764
  71.9268404  25.1169461  74.3375926  73.3830442  25.4610925  74.1075729
  67.5190990  20.5753039  74.6727372  67.2141125  20.8899188  75.5237515
  68.4721432  20.6534459  74.7154705  65.9637422  26.7343262  76.3220326
  65.4358783  25.9996022  76.0093563  65.4624924  27.5117939  76.0760294
  70.9430268  24.9292283  81.4387372  70.2853942  25.6191544  81.5267501
  71.7470667  25.3188715  81.7821359  60.6956149  17.3962928  78.6826937
  61.2699901  17.1738110  77.9500130  61.2827132  17.4651623  79.4355539
  69.7535727  23.2836655  79.4891314  70.2667608  23.9166647  79.9913024
  70.4036950  22.6837851  79.1234674  61.0225736  19.4267390  72.7022823
  60.1863049  19.7642076  73.0232097  60.8830506  19.2916369  71.7649960
  62.9978817  14.2704177  77.4102007  62.3443229  13.9553195  76.7858622
  62.9559291  13.6479918  78.1361830  64.1090022  24.5523472  69.3255299
  63.2017084  24.3212726  69.5246448  64.6061054  23.7561092  69.5129280
  67.0158101  33.2620980  72.2451985  66.3419800  33.5652676  72.8536943
  67.4023923  34.0650060  71.8957442  66.2316557  20.7586111  81.7349654
  65.3139119  20.9801058  81.5771343  66.6476701  20.8332421  80.8761362
  67.0151605  22.1577527  76.8652335  67.7623424  22.6698924  76.5559457
  67.2843195  21.8361579  77.7256728  65.2878255  24.6536067  73.8479289
  64.3789475  24.3695100  73.9451759  65.3173339  25.0735146  72.9882596
  70.5197523  28.2642657  77.6170457  70.0659850  27.4233567  77.6735647
  69.8891489  28.9004055  77.9545237  69.4630442  19.1934643  78.8471124
  68.7253199  18.6812029  79.1781367  69.7157216  18.7535024  78.0354401
  68.9630462  30.1019154  78.5520275  69.2553436  30.6624211  77.8332640
  69.4729083  30.3947715  79.3073434  69.5642070  11.9710895  79.4412893
  69.8700946  11.1108258  79.1538808  70.2894674  12.5628515  79.2411887
  55.8566426  22.3741581  77.8294491  55.6590826  21.7810942  77.1045558
  55.3013090  22.0693792  78.5470430  63.8363149  22.2664688  79.9489084
  63.8911759  21.3138524  79.8731561  63.0254351  22.4224127  80.4330383
  64.9854343  26.1944811  71.1867368  64.5473773  25.4780670  70.7273005
  65.7264784  26.4220926  70.6252459  61.7755509  20.8841748  77.7079463
  60.9623375  21.1835918  78.1144655  62.2714503  20.4897436  78.4253945
  63.9264087  30.8799505  79.6413728  63.8840266  31.1060351  78.7122260
  64.8426786  30.6462879  79.7899529  67.3729721  21.3483572  86.5394357
  67.7279109  21.5755045  87.3988823  68.0201852  21.6801949  85.9171612
  73.1027458  24.4702008  77.2443686  72.9645356  24.6603604  76.3164875
  72.7463677  25.2321391  77.7011737  61.2669584  18.4560103  83.3240698
  61.9068963  18.3148862  82.6263662  60.4347115  18.1694617  82.9479300
  73.1296838  26.5378535  82.2554958  73.5633344  26.4453824  83.1038012
  73.8428418  26.5136036  81.6174974  62.0429888  27.7562534  79.4375691
  62.8370486  27.2612854  79.2358266  61.3321580  27.2280397  79.0743396
  66.8624732  30.1380629  83.7888058  66.9161755  30.7071565  84.5565774
  65.9939514  30.3082514  83.4242095  58.3512651  21.9005615  75.5135443
  57.4210240  21.8390071  75.7305405  58.4470123  21.3781568  74.7172085
  58.2698200  18.4260428  78.1013685  58.5305018  19.3405761  77.9922845
  59.0915373  17.9584871  78.2510298  59.7423126  19.8398185  85.2712510
  60.4146179  19.6315547  84.6225158  58.9152912  19.6420271  84.8317742
  73.9912387  26.5802236  84.7887843  74.1848277  27.4848046  85.0347118
  73.8913005  26.1209655  85.6226428  65.6448698  16.4660126  87.2878170
  64.9976613  17.1650076  87.1942647  66.4149713  16.8996270  87.6554419
  69.0527496  26.7308978  90.3628724  68.9013002  26.5019530  89.4458807
  69.0432175  27.6879580  90.3760069  65.8212832  24.3040891  85.3474990
  66.7504892  24.4552051  85.1743957  65.4003862  24.3924912  84.4923637
  64.6201164  28.3291556  83.1173528  64.4812250  27.9610340  83.9899466
  63.8315760  28.8439195  82.9457486  65.2149316  33.4300652  74.4599064
  65.3901072  32.9588695  75.2744687  64.5282104  34.0566418  74.6880325
  66.1706379  27.7073158  80.5062366  65.8356212  27.6673928  81.4020015
  65.6710325  27.0417874  80.0332776  60.1450623  23.1140788  86.0314947
  60.0070421  22.3821027  86.6326486  61.0555547  23.0249688  85.7499134
  69.1065571  25.0529193  70.7799425  68.4894741  24.3276021  70.6832478
  68.6382059  25.8138553  70.4366499  62.7732924  22.8260748  85.5198626
  63.4832542  22.1853940  85.4785245  62.7302232  23.0773643  86.4424807
  70.7619702  29.7628101  88.4405206  70.7032249  29.0787321  87.7735789
  71.1639221  30.5047091  87.9885832  61.4861858  19.8125966  87.3394266
  60.9499215  19.3616704  87.9915862  60.8978566  19.9471874  86.5964730
  59.7810401  36.5790015  81.2338924  60.0206999  37.2108539  81.9117943
  58.9379598  36.2278055  81.5204284  60.8964117  19.2714617  69.9020729
  60.0193583  19.1503418  69.5382976  61.3721870  18.4800695  69.6499618
  70.7637110  27.7267685  86.6719185  69.8763888  27.3893607  86.7945584
  71.3335661  26.9950716  86.9087951  52.4166257  24.0591777  79.9962237
  53.1037297  23.7453507  79.4083252  52.2614385  24.9633141  79.7229488
  57.2200979  18.9481973  84.4247260  57.1359168  18.3407643  83.6897670
  56.3983685  19.4390992  84.4256757  64.2938263  32.3869137  83.6380428
  64.2208435  33.1924109  84.1499733  63.8515656  32.5861103  82.8128450
  64.0828043  31.6240907  77.1483250  63.2995565  32.1662588  77.2421474
  64.7820788  32.1414887  77.5477491  67.3924693  17.4335537  79.7917455
  67.8893392  16.6805499  79.4718526  66.6211674  17.4699853  79.2260665
  75.2454450  23.1375902  81.4335747  75.2344326  24.0200618  81.0629680
  74.3771830  22.7847453  81.2390284  66.7536947  32.2855971  85.7938587
  67.4664919  32.9203436  85.7214489  66.2626975  32.3819837  84.9778589
  68.4754473  26.1907224  77.3655879  67.5410752  26.3108686  77.1960583
  68.6531142  25.2879691  77.1015889  63.9759662  19.5752920  79.5189140
  63.6057449  19.0223960  80.2070046  64.4718754  18.9711053  78.9664140
  71.8627025  22.0324543  77.9005913  72.3287477  22.8652535  77.8266216
  72.3134525  21.5669525  78.6051171  61.8048860  30.0350415  86.6144158
  62.5058320  30.6686898  86.7673552  61.3343975  30.3765146  85.8539797
  69.9303256  28.3768365  74.8992065  70.2063100  28.2624959  75.8085939
  69.0607755  27.9785849  74.8604238  69.8343688  14.4005130  81.9396814
  68.9206767  14.6309357  82.1079021  70.2636789  14.4843574  82.7910847
  69.6050146  22.5895022  84.4396708  68.9521596  22.8370930  83.7849161
  69.9830526  21.7759160  84.1059186  66.5657320  32.6254715  78.5424879
  66.7479714  31.8076371  79.0052631  67.3890306  32.8422408  78.1049769
  66.8999485  31.5522901  75.8039927  67.4287252  31.0415355  75.1910089
  67.1627705  31.2365431  76.6685460  65.6537719  23.3314833  90.9262745
  64.9778356  23.2308963  91.5965121  66.4765353  23.1754047  91.3898743
  57.4016578  29.5686770  83.5475261  57.9870015  28.8230458  83.6803165
  57.2041417  29.8790727  84.4311924  60.2555233  32.6038017  78.5637703
  59.5865609  33.0884145  78.0801743  60.1168103  32.8507238  79.4781082
  51.9934233  22.1392370  82.2679704  52.0318332  21.6055961  83.0616822
  51.4874526  21.6127576  81.6490681  64.3960502  34.6381761  85.1620361
  64.9478810  34.8013382  85.9269447  64.7366695  35.2286199  84.4900386
  59.3724995  16.9856911  85.7642246  59.4366322  17.8471741  85.3519644
  59.3092115  16.3730912  85.0314605  58.8477268  19.0580043  89.4115280
  59.4749307  18.6757120  90.0252805  57.9905187  18.8394245  89.7770973
  69.2471376  29.4643018  91.0169016  69.7911280  30.0772977  90.5223971
  68.6658221  30.0222597  91.5336029  55.6242810  20.8656472  75.3433635
  55.9196252  19.9567151  75.2900689  54.7230846  20.8444212  75.0214637
  67.5328889  32.5863736  82.1484044  67.4080029  31.7853476  81.6394989
  68.1907980  33.0809930  81.6598013  59.1537057  18.9412469  81.3261184
  58.4323643  19.5548436  81.1868657  59.9430313  19.4770234  81.2477830
  69.5963798  30.3872756  83.7763594  68.6494133  30.2678108  83.7041920
  69.9446571  29.4995254  83.8589855  61.9563371  16.2766895  87.6001835
  62.4797773  16.5229192  88.3628145  61.7375704  17.1086930  87.1804973
  57.3530652  18.5470570  75.4672960  57.0243358  17.6667949  75.2848066
  57.7070023  18.4918239  76.3549350  66.6010231  30.1825473  79.9767946
  66.4535193  29.2542180  80.1575516  67.4263724  30.2045563  79.4925021
  60.4672475  18.8343540  75.8348438  60.8068548  19.3629461  75.1127046
  60.9144596  19.1723946  76.6107005  70.2044353  31.0054031  81.0632819
  71.1290900  30.7996893  80.9257270  70.0359656  30.7570432  81.9722160
  63.1615916  17.2180590  85.2851506  62.8212736  16.4188403  85.6872186
  62.4554922  17.5182301  84.7128339  63.8132388  14.3029903  83.7378829
  64.6358457  13.8290381  83.6157719  64.0570451  15.0820387  84.2377515
  62.4540622  17.3318161  74.0341731  63.1748985  17.7099414  73.5305448
  61.8305926  18.0507038  74.1376709  66.5971745  18.0363310  74.9700063
  66.8135360  18.9187948  74.6688891  66.1165812  17.6449524  74.2405705
  61.3370967  20.9949023  81.5470808  61.1915547  21.3089327  82.4395089
  60.8596170  21.6133924  80.9941706  63.1967350  17.9851571  81.5951697
  63.1828918  17.0892665  81.2583995  63.9139778  17.9922235  82.2289983
  65.0493480  18.4188912  83.6404825  64.7911258  19.3405982  83.6389155
  64.5178521  18.0219346  84.3305289  69.9939669  31.5239699  76.4194910
  70.1676547  30.9586121  75.6668762  70.4868560  32.3240594  76.2374400
  55.8116629  23.5354368  84.4858469  55.2670097  24.3114176  84.6178743
  56.6895979  23.8825172  84.3277590  62.6004245  16.8665952  76.8639267
  62.7220157  15.9382598  77.0630155  62.3106288  16.8804638  75.9517583
  65.4695436  14.5520862  80.0005987  65.4917133  14.6160195  79.0457967
  65.8863495  13.7125371  80.1946493  75.8479060  24.2876122  78.0385210
  76.2910206  23.5383447  77.6404333  74.9705570  24.2786258  77.6558942
  70.9814841  30.8406463  73.5191808  71.6765746  31.4613156  73.7379123
  71.3237992  29.9901814  73.7944186  56.5982651  22.6624264  87.3788626
  55.8564387  22.8106899  87.9653256  56.2775395  22.9232530  86.5155375
  72.8806265  28.2906169  75.0479139  73.4057589  28.6293441  74.3228459
  72.7928617  27.3553184  74.8642274  64.5426313  32.2040242  87.1769016
  64.8513440  31.9589389  88.0491715  65.3401795  32.4086881  86.6887886
  64.5646925  34.3578152  79.4074392  64.1251916  33.8654531  80.1007249
  65.3155042  33.8151120  79.1666467  57.0439264  30.5489693  79.4099020
  57.8697284  30.2493465  79.0297664  56.6933316  29.7797315  79.8588809
  62.0120798  29.9016161  81.4796694  61.3900807  29.2386866  81.1798922
  62.6825664  29.9277293  80.7970342  55.2447869  28.4676019  80.3687954
  54.4079778  28.0398194  80.1871955  55.2171515  28.6608463  81.3058745
  62.0845325  18.3797949  91.0729200  62.1333480  19.2560072  90.6906970
  62.6267839  17.8375342  90.5000843  72.5700171  28.9239072  90.3530337
  71.7795714  28.9063211  89.8134836  72.3333525  29.4627366  91.1079374
  72.6898046  25.7731539  87.6663066  72.7396051  25.6081546  88.6078588
  72.5811969  24.9058798  87.2760946  61.5734304  28.4520084  74.9555154
  61.7222425  29.1355549  74.3021827  62.3800748  28.4325174  75.4704610
  69.9801808  21.7562467  88.9822372  70.8811671  21.6168932  88.6906370
  70.0549783  21.9216922  89.9220550  64.3144613  19.1329321  87.8275559
  63.4447923  19.4262888  87.5558147  64.5504094  19.7169766  88.5482822
  74.1916243  28.1928480  87.9105087  73.9001051  28.5558461  88.7468548
  73.5788374  27.4795489  87.7318419  75.3911925  25.7581360  80.4307657
  76.2258816  26.1971164  80.5945218  75.5271054  25.2820013  79.6115903
  72.4403431  23.3161095  86.3785145  72.9157552  23.5088741  85.5703996
  71.5168996  23.3720281  86.1328529  59.3286937  24.4785262  75.9616223
  59.0832979  23.5747592  76.1596434  59.4982852  24.4802412  75.0195701
  67.0183647  15.3508938  85.3440979  67.5365591  16.0869965  85.0187468
  66.6638780  15.6572932  86.1787738  58.5982585  20.2113620  73.4602385
  57.9051830  20.2857975  72.8042421  58.3534337  19.4473963  73.9823902
  67.2696241  11.7709221  80.8641876  67.5497995  11.1032410  81.4902302
  68.0546848  11.9638317  80.3516539  65.0729710  30.9468215  72.4266902
  64.5003677  31.5658402  71.9737374  65.6462504  31.4967577  72.9606824
  71.1405100  20.1926855  84.6113451  72.0922523  20.2924953  84.6325675
  70.9708550  19.4005123  85.1211535  69.1619479  17.2782438  84.7972852
  68.5669411  17.5587451  84.1019340  68.8769176  17.7676339  85.5689593
  68.2926970  31.2305365  73.5575484  69.2257643  31.1650927  73.7608360
  68.2050183  32.0661632  73.0990017  70.9214986  30.5471235  70.5179432
  70.8428618  30.2131099  71.4115190  71.7424653  31.0393003  70.5170904
  73.6193178  23.4132975  83.7255750  73.5869498  22.4748975  83.9115434
  74.2293801  23.4917011  82.9921575  65.4576508  22.2829028  69.7682954
  66.4035613  22.1535236  69.8371372  65.0790753  21.5443689  70.2452383
  73.7687666  20.2044018  83.7714034  73.2526715  19.4202475  83.5843962
  74.6527615  19.8762735  83.9360553  71.4298393  13.9485034  79.7309846
  71.2323214  13.6400122  80.6153178  72.0398099  14.6746673  79.8607776
  79.4369727  24.4748981  82.8661787  80.1673116  24.2134270  83.4269490
  78.8276673  23.7377703  82.9063855  77.5185025  22.6156844  83.4636238
  76.7918188  22.4812809  82.8552730  77.1032311  22.9233673  84.2692956
  65.3415201  26.3346774  91.2283611  66.2618210  26.5125373  91.4223658
  65.3064784  25.3902819  91.0763311  63.6419426  20.2079004  69.7037840
  62.7350881  19.9112117  69.7800553  63.9195407  19.9108822  68.8372126
  54.5597366  21.5285367  80.1536886  54.2400150  20.6750676  79.8611260
  54.0130794  21.7433946  80.9094853  58.3377274  24.2447808  83.8706393
  58.5563283  25.1764916  83.8894426  58.7503047  23.8855783  84.6561196
  65.2581491  14.7515894  75.8582081  64.4482220  14.4062979  76.2337327
  65.9465908  14.4423437  76.4469692  67.1872040  13.8293941  77.4806378
  67.7403078  14.2489394  78.1396401  67.4242126  12.9029689  77.5229334
  63.2105139  19.8181014  93.2609141  63.1101866  20.7675371  93.1921233
  62.9926681  19.4899253  92.3885212  62.4118210  17.0665939  69.8449819
  63.2737374  17.3920838  70.1045636  62.5968554  16.2797435  69.3322885
  54.4285626  25.1488279  82.1230008  53.7349097  24.7342232  81.6099962
  55.1758617  25.1908815  81.5263427  70.5650847  15.9394466  76.9885042
  69.9849516  16.5979270  76.6063094  70.2986779  15.1171810  76.5772459
  69.0154413  15.3399523  79.1906362  69.5154191  15.4516058  78.3820681
  69.6590021  15.0360576  79.8307171  63.0736409  23.2478153  92.0774203
  62.5903491  24.0478513  92.2838092  63.1597348  23.2586098  91.1241647
  56.3422368  25.0806533  79.9996022  56.3193057  25.1794220  79.0477906
  56.6523005  25.9271683  80.3213189  59.0009746  27.1382688  84.1142637
  59.9553000  27.1066630  84.0472568  58.8022270  26.6773311  84.9292863
  59.5909128  25.7083804  86.6813435  60.4102017  26.2027882  86.7048272
  59.8645936  24.7915772  86.6531002  69.3475725  18.0994556  76.0441390
  68.4601580  18.3844207  75.8261585  69.7629714  17.9388319  75.1968667
  72.6990261  18.1241077  79.7595729  73.4750651  18.6137529  80.0320346
  71.9738395  18.5499131  80.2167599  75.1362819  18.8368696  80.8169670
  75.7307310  18.5964432  80.1062978  75.2089403  18.1175827  81.4443206
  57.3559975  32.6802307  81.1312835  57.2214443  31.9202708  80.5650833
  56.9392037  33.4043207  80.6641624  68.4918938  27.8639231  70.1389410
  69.1954788  28.0689233  70.7547066  67.7681587  28.4315993  70.4038494
  69.3216748  23.6149092  76.2591680  69.2651950  24.0717643  75.4199313
  69.8745091  22.8539777  76.0814523  73.1321554  19.4038824  77.0841800
  72.8758489  19.0035460  77.9150007  72.5074422  20.1182618  76.9591939
  77.4433892  22.1434897  79.5913091  76.8833450  22.2128086  80.3644653
  76.8377396  21.9675882  78.8712587  60.5129101  33.5771624  81.3431277
  60.3961485  34.5217057  81.2409968  59.6921547  33.2745186  81.7317077
  70.4005636  28.3021760  72.1887870  71.2351240  27.8702958  72.0065345
  70.2389978  28.1303774  73.1164765  70.0551528  24.8053873  73.5544209
  70.0000332  24.6398145  72.6132654  69.4297583  25.5129906  73.7106399
  54.8444043  20.0421938  87.3805632  55.4902906  19.5320892  87.8692857
  54.6361194  20.7790619  87.9549057  67.3697435  27.1102785  92.8797772
  68.2388595  27.2843437  92.5184407  66.8904186  27.9297202  92.7573502
  63.3647653  14.3061982  73.1329528  63.3526323  15.2503822  73.2897799
  64.2571075  14.1232128  72.8388989  61.5383615  34.2299886  84.5587206
  62.4410862  34.2623496  84.8753701  61.3120985  33.3000337  84.5733542
  63.2937217  32.9830873  81.2197284  62.3432848  32.9832734  81.1061657
  63.5969703  32.2363607  80.7033319  67.1799773  10.9004759  77.3875465
  66.4132168  10.3463246  77.5332147  67.5910478  10.9726628  78.2489616
  59.1841534  17.1889555  91.4780646  60.0472995  16.8326360  91.6883970
  58.6106944  16.8503450  92.1656050  79.0289911  38.8191411  82.2843047
  79.6668321  38.6998158  81.5806387  78.9110754  39.7672255  82.3430999
  75.8379617  38.7718839  82.2204572  75.4998128  38.6559904  81.3325106
  76.7069385  38.3710004  82.2005578  71.6966433  40.6254316  78.2101462
  71.1331298  40.5344252  77.4417750  71.5818828  39.8054220  78.6903955
  76.3199400  39.9253691  88.1790777  76.3088041  39.5306489  87.3071281
  76.4820039  39.1919763  88.7724549  69.2430865  42.1205507  81.0485683
  70.0352156  41.7796332  80.6331982  69.4827515  42.2300482  81.9687836
  77.2765991  44.2925283  73.5215927  76.6253971  44.8779364  73.1349941
  78.0710354  44.8231478  73.5810965  71.2021619  41.3814420  73.9203062
  71.9752495  40.8343407  73.7815938  71.5547017  42.2458670  74.1317523
  73.0406661  42.7090803  87.1269961  72.7496527  43.6136434  87.0116627
  73.6763645  42.7507330  87.8414031  73.9662868  40.0867651  83.7171321
  74.5626440  39.8623674  83.0028284  74.0237839  39.3452397  84.3196769
  73.5387896  37.5407087  71.5521512  73.7913417  37.0188608  70.7904975
  72.6012455  37.3773232  71.6548195  78.5831179  36.5442865  79.3596255
  79.3694268  36.1262288  79.0086672  78.8469883  37.4488957  79.5277903
  78.7541257  41.9815715  74.0584912  78.1187089  42.0550342  74.7705816
  78.4238663  42.5709314  73.3803991  83.9839606  36.4818098  80.2629233
  84.7164778  35.9117315  80.4967063  83.2278962  36.0939699  80.7035739
  73.2584185  39.4435192  73.7545887  73.1420443  38.7680096  74.4226971
  73.3686445  38.9567566  72.9378040  75.6015726  38.9045340  77.4592576
  75.2373933  38.3775961  78.1705497  76.4582842  38.5143809  77.2859061
  81.5065027  30.1939672  84.7223842  81.1748351  31.0635083  84.4985057
  80.9110640  29.8775956  85.4017872  75.2421213  33.9335239  72.4553924
  75.4095615  34.8015476  72.8224395  75.0518382  34.0962521  71.5315214
  77.9996546  42.3952218  84.1219755  77.6997269  43.2977257  84.0135562
  77.6547606  42.1284401  84.9740908  71.4509028  38.8466015  80.1556459
  70.5259524  38.7142229  80.3634151  71.6993441  39.6260234  80.6526402
  81.3993690  34.9134758  81.8017192  80.4910567  34.8450167  81.5075953
  81.3481286  35.3906703  82.6299018  75.2210434  36.3892897  73.4400591
  75.1010059  36.8349948  74.2786071  74.5263022  36.7378214  72.8814129
  68.8117839  38.4899289  80.9900248  68.9410220  38.7433767  81.9039660
  68.1315290  39.0826997  80.6704903  72.9817326  49.1596539  77.0890722
  72.9041356  50.1104364  77.1679203  72.3778970  48.8142411  77.7465649
  75.4734556  36.3324404  89.7452089  74.6967890  36.8918324  89.7354954
  76.1125119  36.8181187  90.2666959  83.2655336  33.1151197  83.5795066
  82.6229717  33.4083730  82.9334861  82.7610265  33.0004117  84.3848263
  80.9195500  36.8614370  74.2680925  81.8313356  37.0941757  74.0928623
  80.4105147  37.4451414  73.7056004  73.7280928  39.1409857  89.3070056
  74.4695612  39.6794901  89.0304880  73.0217914  39.7676146  89.4641608
  79.2036268  41.2838998  87.9042218  79.6119624  40.8421408  87.1596850
  78.4813529  40.7091625  88.1576411  75.5567338  36.2211605  85.2775775
  76.4028533  36.6451018  85.4210424  75.4965975  35.5645229  85.9714338
  79.5265082  41.8440188  81.6594507  78.8973945  42.0085903  80.9570575
  79.1390744  42.2581798  82.4305471  83.4054314  42.7794626  79.0138870
  82.7205352  43.1593528  78.4635904  83.4898164  43.3889953  79.7470818
  78.7066783  33.8815973  86.9356948  78.4627715  34.6358033  86.3991224
  78.9826714  34.2601321  87.7704195  80.6605246  40.4254585  85.6134214
  80.8722141  41.0686345  84.9368595  80.6134994  39.5916902  85.1456144
  78.2631475  33.0372406  82.5170786  77.4015954  33.3353659  82.8087524
  78.2893909  33.2542805  81.5851819  75.0793044  41.5814596  78.9244592
  75.5431390  41.8602299  78.1349214  74.8149842  40.6798041  78.7417682
  71.9717125  41.1286078  81.8624355  72.5418482  41.5573346  81.2241840
  72.5625237  40.8468663  82.5608541  74.0161930  37.7037749  75.7334157
  74.7185974  38.1558793  76.2008083  73.6842559  37.0621568  76.3614050
  72.4642292  36.2949505  90.1085366  71.8340952  36.9765786  90.3420763
  72.3578380  36.1832587  89.1638505  67.7587264  35.9621302  81.0351291
  66.9686318  36.2178830  80.5591401  68.2498512  36.7769639  81.1403331
  81.7751074  43.3026541  83.7856571  82.5968518  42.9006728  83.5039253
  81.7713477  43.1994775  84.7372687  69.7102010  36.3265881  77.9934767
  68.9133173  36.4384575  78.5118263  69.4827602  36.6652533  77.1275658
  75.5407677  42.8510584  85.9417282  75.6052110  43.3130991  86.7775454
  74.8318601  42.2207949  86.0699592  66.0424967  36.2151792  83.4666281
  66.2933006  37.0998802  83.7323857  66.5784516  36.0356393  82.6941373
  89.8657067  39.6465289  80.1341543  89.1120775  39.0772687  79.9785547
  90.0004608  39.6127954  81.0812178  75.2555695  44.5178691  75.8096262
  75.1201370  45.3630227  76.2381110  75.7965507  44.7197969  75.0462196
  71.7423035  30.5970271  92.4710617  71.3489980  30.0436470  93.1458262
  72.5589175  30.9080850  92.8617135  68.7085092  42.0354130  76.3824187
  69.2209613  42.8297380  76.5329752  69.3607805  41.3380420  76.3157789
  70.5179977  45.1519886  78.4646940  70.6946605  46.0737850  78.2767924
  71.3136810  44.8378305  78.8941320  74.6590996  32.0128150  90.0630874
  75.4000709  32.6135304  89.9835336  74.8908918  31.2705788  89.5048917
  69.8032334  37.1984518  88.3409104  69.6885849  36.2969775  88.6416203
  68.9476851  37.4448214  87.9893920  76.8824171  45.1402258  89.9396604
  76.4388025  44.3538637  89.6217509  77.5441385  45.3281408  89.2740495
  71.6411292  46.6698060  84.4657283  72.1918718  46.5415123  83.6934277
  70.8022768  46.9692949  84.1152176  78.9805409  45.4205058  87.9678006
  78.9623885  46.2413939  87.4758275  79.9025329  45.2959133  88.1928147
  75.4378463  42.9349187  88.8101514  75.9706800  42.1737476  88.5800822
  74.9092545  42.6422839  89.5525668  78.6048158  28.0409253  84.3395156
  78.2612428  28.9310895  84.2634266  78.9727121  27.8510911  83.4764741
  66.6734009  40.3642784  77.1583758  67.5109231  40.7739792  76.9417466
  66.8512277  39.4242226  77.1283952  78.5698441  38.0317864  72.8467591
  78.0545065  38.8022469  73.0855978  78.2975750  37.3583001  73.4700652
  76.1545552  32.8767565  77.9052829  75.2987149  32.4874416  77.7258468
  76.5672504  32.9559526  77.0452615  77.6844699  30.4113909  82.3044389
  77.1809494  30.3744044  81.4912194  77.9775306  31.3206651  82.3641046
  73.9287585  30.4952638  81.3110571  74.7940581  30.2995447  80.9516460
  73.9965094  30.2662990  82.2379927  83.5432715  40.7850219  74.7820764
  82.7662158  40.4461379  74.3375926  84.2224196  40.7902842  74.1075729
  78.3584744  35.9044957  74.6727372  78.0534880  36.2191106  75.5237515
  79.3115186  35.9826376  74.7154705  76.8031176  42.0635180  76.3220326
  76.2752538  41.3287939  76.0093563  76.3018679  42.8409856  76.0760294
  81.7824022  40.2584200  81.4387372  81.1247697  40.9483462  81.5267501
  82.5864421  40.6480632  81.7821359  71.5349904  32.7254846  78.6826937
  72.1093656  32.5030028  77.9500130  72.1220886  32.7943541  79.4355539
  80.5929481  38.6128573  79.4891314  81.1061363  39.2458565  79.9913024
  81.2430705  38.0129769  79.1234674  71.8619491  34.7559307  72.7022823
  71.0256803  35.0933994  73.0232097  71.7224261  34.6208287  71.7649960
  73.8372572  29.5996095  77.4102007  73.1836984  29.2845112  76.7858622
  73.7953046  28.9771836  78.1361830  74.9483776  39.8815390  69.3255299
  74.0410838  39.6504644  69.5246448  75.4454808  39.0853009  69.5129280
  77.8551855  48.5912897  72.2451985  77.1813554  48.8944594  72.8536943
  78.2417677  49.3941978  71.8957442  77.0710312  36.0878029  81.7349654
  76.1532873  36.3092976  81.5771343  77.4870455  36.1624339  80.8761362
  77.8545360  37.4869444  76.8652335  78.6017179  37.9990842  76.5559457
  78.1236949  37.1653497  77.7256728  76.1272010  39.9827985  73.8479289
  75.2183229  39.6987018  73.9451759  76.1567094  40.4027064  72.9882596
  81.3591277  43.5934575  77.6170457  80.9053604  42.7525484  77.6735647
  80.7285244  44.2295973  77.9545237  80.3024197  34.5226561  78.8471124
  79.5646954  34.0103947  79.1781367  80.5550970  34.0826942  78.0354401
  79.8024216  45.4311071  78.5520275  80.0947191  45.9916128  77.8332640
  80.3122837  45.7239632  79.3073434  80.4035824  27.3002813  79.4412893
  80.7094701  26.4400176  79.1538808  81.1288429  27.8920433  79.2411887
  66.6960180  37.7033499  77.8294491  66.4984580  37.1102860  77.1045558
  66.1406844  37.3985709  78.5470430  74.6756904  37.5956606  79.9489084
  74.7305514  36.6430442  79.8731561  73.8648106  37.7516045  80.4330383
  75.8248098  41.5236729  71.1867368  75.3867528  40.8072588  70.7273005
  76.5658538  41.7512844  70.6252459  72.6149264  36.2133665  77.7079463
  71.8017129  36.5127836  78.1144655  73.1108258  35.8189354  78.4253945
  74.7657842  46.2091422  79.6413728  74.7234020  46.4352269  78.7122260
  75.6820541  45.9754797  79.7899529  78.2123475  36.6775490  86.5394357
  78.5672863  36.9046963  87.3988823  78.8595607  37.0093867  85.9171612
  83.9421212  39.7993926  77.2443686  83.8039111  39.9895522  76.3164875
  83.5857431  40.5613309  77.7011737  72.1063339  33.7852021  83.3240698
  72.7462718  33.6440780  82.6263662  71.2740869  33.4986534  82.9479300
  83.9690592  41.8670453  82.2554958  84.4027099  41.7745742  83.1038012
  84.6822173  41.8427953  81.6174974  72.8823642  43.0854451  79.4375691
  73.6764241  42.5904771  79.2358266  72.1715335  42.5572314  79.0743396
  77.7018487  45.4672547  83.7888058  77.7555509  46.0363483  84.5565774
  76.8333268  45.6374432  83.4242095  69.1906406  37.2297533  75.5135443
  68.2603994  37.1681989  75.7305405  69.2863878  36.7073486  74.7172085
  69.1091955  33.7552346  78.1013685  69.3698772  34.6697679  77.9922845
  69.9309127  33.2876788  78.2510298  70.5816880  35.1690103  85.2712510
  71.2539934  34.9607465  84.6225158  69.7546667  34.9712189  84.8317742
  84.8306142  41.9094153  84.7887843  85.0242032  42.8139964  85.0347118
  84.7306760  41.4501572  85.6226428  76.4842452  31.7952044  87.2878170
  75.8370367  32.4941994  87.1942647  77.2543468  32.2288188  87.6554419
  79.8921250  42.0600896  90.3628724  79.7406757  41.8311448  89.4458807
  79.8825930  43.0171498  90.3760069  76.6606587  39.6332809  85.3474990
  77.5898647  39.7843968  85.1743957  76.2397617  39.7216830  84.4923637
  75.4594918  43.6583473  83.1173528  75.3206004  43.2902258  83.9899466
  74.6709515  44.1731113  82.9457486  76.0543070  48.7592570  74.4599064
  76.2294826  48.2880613  75.2744687  75.3675858  49.3858336  74.6880325
  77.0100134  43.0365076  80.5062366  76.6749966  42.9965846  81.4020015
  76.5104079  42.3709792  80.0332776  70.9844378  38.4432706  86.0314947
  70.8464175  37.7112945  86.6326486  71.8949301  38.3541606  85.7499134
  79.9459325  40.3821110  70.7799425  79.3288496  39.6567938  70.6832478
  79.4775814  41.1430471  70.4366499  73.6126678  38.1552665  85.5198626
  74.3226297  37.5145858  85.4785245  73.5695986  38.4065560  86.4424807
  81.6013457  45.0920019  88.4405206  81.5426003  44.4079239  87.7735789
  82.0032975  45.8339009  87.9885832  72.3255612  35.1417883  87.3394266
  71.7892969  34.6908622  87.9915862  71.7372321  35.2763792  86.5964730
  70.6204156  51.9081933  81.2338924  70.8600754  52.5400457  81.9117943
  69.7773352  51.5569973  81.5204284  71.7357871  34.6006535  69.9020729
  70.8587337  34.4795335  69.5382976  72.2115624  33.8092613  69.6499618
  81.6030864  43.0559603  86.6719185  80.7157643  42.7185524  86.7945584
  82.1729415  42.3242634  86.9087951  63.2560011  39.3883694  79.9962237
  63.9431051  39.0745424  79.4083252  63.1008140  40.2925059  79.7229488
  68.0594733  34.2773891  84.4247260  67.9752922  33.6699560  83.6897670
  67.2377440  34.7682909  84.4256757  75.1332018  47.7161055  83.6380428
  75.0602189  48.5216026  84.1499733  74.6909411  47.9153021  82.8128450
  74.9221797  46.9532825  77.1483250  74.1389319  47.4954505  77.2421474
  75.6214542  47.4706805  77.5477491  78.2318447  32.7627454  79.7917455
  78.7287147  32.0097417  79.4718526  77.4605429  32.7991771  79.2260665
  86.0848205  38.4667820  81.4335747  86.0738081  39.3492535  81.0629680
  85.2165584  38.1139371  81.2390284  77.5930701  47.6147889  85.7938587
  78.3058673  48.2495354  85.7214489  77.1020730  47.7111755  84.9778589
  79.3148228  41.5199142  77.3655879  78.3804507  41.6400604  77.1960583
  79.4924896  40.6171608  77.1015889  74.8153416  34.9044837  79.5189140
  74.4451204  34.3515878  80.2070046  75.3112508  34.3002971  78.9664140
  82.7020779  37.3616461  77.9005913  83.1681232  38.1944453  77.8266216
  83.1528280  36.8961443  78.6051171  72.6442615  45.3642332  86.6144158
  73.3452074  45.9978815  86.7673552  72.1737730  45.7057064  85.8539797
  80.7697010  43.7060282  74.8992065  81.0456854  43.5916877  75.8085939
  79.9001509  43.3077767  74.8604238  80.6737442  29.7297048  81.9396814
  79.7600522  29.9601275  82.1079021  81.1030544  29.8135492  82.7910847
  80.4443901  37.9186940  84.4396708  79.7915351  38.1662847  83.7849161
  80.8224280  37.1051078  84.1059186  77.4051074  47.9546633  78.5424879
  77.5873469  47.1368289  79.0052631  78.2284060  48.1714325  78.1049769
  77.7393240  46.8814818  75.8039927  78.2681006  46.3707273  75.1910089
  78.0021460  46.5657348  76.6685460  76.4931474  38.6606751  90.9262745
  75.8172111  38.5600880  91.5965121  77.3159107  38.5045965  91.3898743
  68.2410333  44.8978688  83.5475261  68.8263769  44.1522375  83.6803165
  68.0435171  45.2082644  84.4311924  71.0948988  47.9329935  78.5637703
  70.4259363  48.4176063  78.0801743  70.9561858  48.1799155  79.4781082
  62.8327987  37.4684288  82.2679704  62.8712087  36.9347878  83.0616822
  62.3268280  36.9419493  81.6490681  75.2354256  49.9673678  85.1620361
  75.7872565  50.1305300  85.9269447  75.5760450  50.5578116  84.4900386
  70.2118750  32.3148828  85.7642246  70.2760076  33.1763659  85.3519644
  70.1485870  31.7022830  85.0314605  69.6871022  34.3871961  89.4115280
  70.3143061  34.0049038  90.0252805  68.8298941  34.1686163  89.7770973
  80.0865131  44.7934936  91.0169016  80.6305035  45.4064894  90.5223971
  79.5051976  45.3514514  91.5336029  66.4636565  36.1948390  75.3433635
  66.7590006  35.2859068  75.2900689  65.5624601  36.1736129  75.0214637
  78.3722644  47.9155654  82.1484044  78.2473783  47.1145394  81.6394989
  79.0301735  48.4101847  81.6598013  69.9930812  34.2704386  81.3261184
  69.2717398  34.8840354  81.1868657  70.7824068  34.8062151  81.2477830
  80.4357552  45.7164674  83.7763594  79.4887888  45.5970025  83.7041920
  80.7840325  44.8287172  83.8589855  72.7957126  31.6058813  87.6001835
  73.3191527  31.8521109  88.3628145  72.5769459  32.4378848  87.1804973
  68.1924407  33.8762488  75.4672960  67.8637113  32.9959866  75.2848066
  68.5463777  33.8210156  76.3549350  77.4403985  45.5117390  79.9767946
  77.2928948  44.5834098  80.1575516  78.2657479  45.5337481  79.4925021
  71.3066230  34.1635457  75.8348438  71.6462302  34.6921379  75.1127046
  71.7538350  34.5015863  76.6107005  81.0438107  46.3345949  81.0632819
  81.9684655  46.1288810  80.9257270  80.8753411  46.0862350  81.9722160
  74.0009671  32.5472508  85.2851506  73.6606491  31.7480321  85.6872186
  73.2948677  32.8474219  84.7128339  74.6526142  29.6321820  83.7378829
  75.4752212  29.1582299  83.6157719  74.8964206  30.4112304  84.2377515
  73.2934377  32.6610079  74.0341731  74.0142739  33.0391332  73.5305448
  72.6699681  33.3798956  74.1376709  77.4365500  33.3655228  74.9700063
  77.6529114  34.2479866  74.6688891  76.9559567  32.9741441  74.2405705
  72.1764721  36.3240941  81.5470808  72.0309302  36.6381244  82.4395089
  71.6989925  36.9425841  80.9941706  74.0361104  33.3143489  81.5951697
  74.0222673  32.4184582  81.2583995  74.7533532  33.3214153  82.2289983
  75.8887235  33.7480829  83.6404825  75.6305013  34.6697900  83.6389155
  75.3572275  33.3511264  84.3305289  80.8333423  46.8531616  76.4194910
  81.0070301  46.2878039  75.6668762  81.3262315  47.6532511  76.2374400
  66.6510383  38.8646286  84.4858469  66.1063851  39.6406093  84.6178743
  67.5289733  39.2117090  84.3277590  73.4398000  32.1957869  76.8639267
  73.5613911  31.2674516  77.0630155  73.1500042  32.2096555  75.9517583
  76.3089190  29.8812780  80.0005987  76.3310887  29.9452113  79.0457967
  76.7257249  29.0417288  80.1946493  86.6872815  39.6168039  78.0385210
  87.1303961  38.8675365  77.6404333  85.8099325  39.6078176  77.6558942
  81.8208596  46.1698381  73.5191808  82.5159501  46.7905074  73.7379123
  82.1631746  45.3193732  73.7944186  67.4376405  37.9916182  87.3788626
  66.6958141  38.1398817  87.9653256  67.1169149  38.2524447  86.5155375
  83.7200019  43.6198086  75.0479139  84.2451343  43.9585359  74.3228459
  83.6322372  42.6845102  74.8642274  75.3820068  47.5332160  87.1769016
  75.6907194  47.2881307  88.0491715  76.1795550  47.7378798  86.6887886
  75.4040680  49.6870070  79.4074392  74.9645670  49.1946448  80.1007249
  76.1548797  49.1443037  79.1666467  67.8833019  45.8781610  79.4099020
  68.7091039  45.5785382  79.0297664  67.5327071  45.1089233  79.8588809
  72.8514552  45.2308079  81.4796694  72.2294561  44.5678784  81.1798922
  73.5219419  45.2569211  80.7970342  66.0841624  43.7967937  80.3687954
  65.2473532  43.3690111  80.1871955  66.0565269  43.9900380  81.3058745
  72.9239079  33.7089867  91.0729200  72.9727235  34.5851990  90.6906970
  73.4661594  33.1667260  90.5000843  83.4093925  44.2530990  90.3530337
  82.6189469  44.2355129  89.8134836  83.1727280  44.7919284  91.1079374
  83.5291800  41.1023456  87.6663066  83.5789805  40.9373464  88.6078588
  83.4205724  40.2350715  87.2760946  72.4128059  43.7812002  74.9555154
  72.5616179  44.4647466  74.3021827  73.2194502  43.7617092  75.4704610
  80.8195563  37.0854384  88.9822372  81.7205425  36.9460849  88.6906370
  80.8943537  37.2508839  89.9220550  75.1538368  34.4621239  87.8275559
  74.2841677  34.7554805  87.5558147  75.3897848  35.0461684  88.5482822
  85.0309997  43.5220398  87.9105087  84.7394805  43.8850378  88.7468548
  84.4182128  42.8087406  87.7318419  86.2305679  41.0873278  80.4307657
  87.0652571  41.5263082  80.5945218  86.3664808  40.6111931  79.6115903
  83.2797185  38.6453013  86.3785145  83.7551307  38.8380659  85.5703996
  82.3562751  38.7012198  86.1328529  70.1680692  39.8077180  75.9616223
  69.9226734  38.9039510  76.1596434  70.3376606  39.8094330  75.0195701
  77.8577402  30.6800856  85.3440979  78.3759346  31.4161883  85.0187468
  77.5032535  30.9864849  86.1787738  69.4376339  35.5405537  73.4602385
  68.7445584  35.6149892  72.8042421  69.1928091  34.7765881  73.9823902
  78.1089996  27.1001139  80.8641876  78.3891750  26.4324328  81.4902302
  78.8940603  27.2930234  80.3516539  81.9798854  35.5218773  84.6113451
  82.9316277  35.6216870  84.6325675  81.8102305  34.7297041  85.1211535
  80.0013234  32.6074356  84.7972852  79.4063166  32.8879369  84.1019340
  79.7162930  33.0968257  85.5689593  79.1320724  46.5597283  73.5575484
  80.0651397  46.4942844  73.7608360  79.0443937  47.3953549  73.0990017
  81.7608741  45.8763153  70.5179432  81.6822372  45.5423017  71.4115190
  82.5818408  46.3684921  70.5170904  84.4586932  38.7424892  83.7255750
  84.4263252  37.8040893  83.9115434  85.0687556  38.8208929  82.9921575
  76.2970263  37.6120945  69.7682954  77.2429368  37.4827153  69.8371372
  75.9184508  36.8735607  70.2452383  84.6081421  35.5335936  83.7714034
  84.0920469  34.7494392  83.5843962  85.4921369  35.2054652  83.9360553
  82.2692147  29.2776951  79.7309846  82.0716969  28.9692039  80.6153178
  82.8791853  30.0038590  79.8607776  90.2763482  39.8040899  82.8661787
  91.0066870  39.5426187  83.4269490  89.6670427  39.0669621  82.9063855
  88.3578779  37.9448762  83.4636238  87.6311943  37.8104727  82.8552730
  87.9426066  38.2525590  84.2692956  76.1808955  41.6638691  91.2283611
  77.1011965  41.8417290  91.4223658  76.1458538  40.7194737  91.0763311
  74.4813180  35.5370922  69.7037840  73.5744635  35.2404034  69.7800553
  74.7589161  35.2400740  68.8372126  65.3991120  36.8577285  80.1536886
  65.0793905  36.0042593  79.8611260  64.8524549  37.0725863  80.9094853
  69.1771028  39.5739726  83.8706393  69.3957038  40.5056834  83.8894426
  69.5896802  39.2147700  84.6561196  76.0975246  30.0807811  75.8582081
  75.2875974  29.7354896  76.2337327  76.7859663  29.7715355  76.4469692
  78.0265794  29.1585858  77.4806378  78.5796833  29.5781312  78.1396401
  78.2635880  28.2321606  77.5229334  74.0498893  35.1472932  93.2609141
  73.9495620  36.0967289  93.1921233  73.8320435  34.8191171  92.3885212
  73.2511965  32.3957857  69.8449819  74.1131129  32.7212755  70.1045636
  73.4362309  31.6089353  69.3322885  65.2679380  40.4780197  82.1230008
  64.5742852  40.0634149  81.6099962  66.0152371  40.5200733  81.5263427
  81.4044601  31.2686383  76.9885042  80.8243270  31.9271187  76.6063094
  81.1380534  30.4463728  76.5772459  79.8548168  30.6691441  79.1906362
  80.3547946  30.7807976  78.3820681  80.4983775  30.3652494  79.8307171
  73.9130163  38.5770071  92.0774203  73.4297245  39.3770431  92.2838092
  73.9991102  38.5878016  91.1241647  67.1816123  40.4098450  79.9996022
  67.1586811  40.5086138  79.0477906  67.4916759  41.2563601  80.3213189
  69.8403501  42.4674605  84.1142637  70.7946754  42.4358548  84.0472568
  69.6416024  42.0065229  84.9292863  70.4302883  41.0375721  86.6813435
  71.2495772  41.5319800  86.7048272  70.7039691  40.1207690  86.6531002
  80.1869479  33.4286474  76.0441390  79.2995334  33.7136124  75.8261585
  80.6023468  33.2680237  75.1968667  83.5384015  33.4532995  79.7595729
  84.3144405  33.9429447  80.0320346  82.8132149  33.8791049  80.2167599
  85.9756574  34.1660614  80.8169670  86.5701065  33.9256350  80.1062978
  86.0483158  33.4467744  81.4443206  68.1953730  48.0094225  81.1312835
  68.0608198  47.2494626  80.5650833  67.7785792  48.7335125  80.6641624
  79.3312693  43.1931148  70.1389410  80.0348543  43.3981151  70.7547066
  78.6075341  43.7607910  70.4038494  80.1610503  38.9441010  76.2591680
  80.1045704  39.4009561  75.4199313  80.7138845  38.1831694  76.0814523
  83.9715309  34.7330742  77.0841800  83.7152243  34.3327377  77.9150007
  83.3468177  35.4474535  76.9591939  88.2827647  37.4726815  79.5913091
  87.7227205  37.5420004  80.3644653  87.6771150  37.2967799  78.8712587
  71.3522856  48.9063542  81.3431277  71.2355240  49.8508974  81.2409968
  70.5315302  48.6037103  81.7317077  81.2399390  43.6313678  72.1887870
  82.0744994  43.1994876  72.0065345  81.0783733  43.4595691  73.1164765
  80.8945282  40.1345791  73.5544209  80.8394086  39.9690062  72.6132654
  80.2691338  40.8421824  73.7106399  65.6837797  35.3713855  87.3805632
  66.3296661  34.8612809  87.8692857  65.4754948  36.1082537  87.9549057
  78.2091189  42.4394703  92.8797772  79.0782349  42.6135355  92.5184407
  77.7297941  43.2589120  92.7573502  74.2041408  29.6353900  73.1329528
  74.1920078  30.5795740  73.2897799  75.0964830  29.4524045  72.8388989
  72.3777370  49.5591804  84.5587206  73.2804616  49.5915414  84.8753701
  72.1514740  48.6292255  84.5733542  74.1330972  48.3122790  81.2197284
  73.1826603  48.3124652  81.1061657  74.4363458  47.5655525  80.7033319
  78.0193527  26.2296677  77.3875465  77.2525923  25.6755163  77.5332147
  78.4304232  26.3018545  78.2489616  70.0235288  32.5181472  91.4780646
  70.8866750  32.1618277  91.6883970  69.4500699  32.1795367  92.1656050
  89.8683665  54.1483329  82.2843047  90.5062075  54.0290076  81.5806387
  89.7504508  55.0964173  82.3430999  86.6773371  54.1010757  82.2204572
  86.3391883  53.9851822  81.3325106  87.5463140  53.7001922  82.2005578
  82.5360187  55.9546233  78.2101462  81.9725052  55.8636170  77.4417750
  82.4212582  55.1346138  78.6903955  87.1593154  55.2545609  88.1790777
  87.1481795  54.8598407  87.3071281  87.3213794  54.5211681  88.7724549
  80.0824619  57.4497425  81.0485683  80.8745911  57.1088249  80.6331982
  80.3221269  57.5592400  81.9687836  88.1159746  59.6217201  73.5215927
  87.4647726  60.2071281  73.1349941  88.9104109  60.1523396  73.5810965
  82.0415373  56.7106338  73.9203062  82.8146249  56.1635325  73.7815938
  82.3940772  57.5750587  74.1317523  83.8800416  58.0382720  87.1269961
  83.5890282  58.9428351  87.0116627  84.5157400  58.0799248  87.8414031
  84.8056622  55.4159569  83.7171321  85.4020195  55.1915591  83.0028284
  84.8631594  54.6744314  84.3196769  84.3781651  52.8699004  71.5521512
  84.6307172  52.3480525  70.7904975  83.4406210  52.7065150  71.6548195
  89.4224934  51.8734783  79.3596255  90.2088023  51.4554206  79.0086672
  89.6863638  52.7780875  79.5277903  89.5935011  57.3107633  74.0584912
  88.9580844  57.3842259  74.7705816  89.2632417  57.9001232  73.3803991
  94.8233361  51.8110016  80.2629233  95.5558533  51.2409233  80.4967063
  94.0672716  51.4231616  80.7035739  84.0977940  54.7727110  73.7545887
  83.9814198  54.0972014  74.4226971  84.2080199  54.2859484  72.9378040
  86.4409480  54.2337257  77.4592576  86.0767688  53.7067878  78.1705497
  87.2976596  53.8435726  77.2859061  92.3458781  45.5231590  84.7223842
  92.0142106  46.3927001  84.4985057  91.7504395  45.2067874  85.4017872
  86.0814967  49.2627157  72.4553924  86.2489370  50.1307393  72.8224395
  85.8912137  49.4254439  71.5315214  88.8390301  57.7244136  84.1219755
  88.5391024  58.6269175  84.0135562  88.4941360  57.4576319  84.9740908
  82.2902782  54.1757933  80.1556459  81.3653279  54.0434147  80.3634151
  82.5387195  54.9552152  80.6526402  92.2387444  50.2426676  81.8017192
  91.3304322  50.1742084  81.5075953  92.1875040  50.7198621  82.6299018
  86.0604188  51.7184814  73.4400591  85.9403814  52.1641865  74.2786071
  85.3656777  52.0670132  72.8814129  79.6511593  53.8191206  80.9900248
  79.7803974  54.0725685  81.9039660  78.9709044  54.4118914  80.6704903
  83.8211080  64.4888456  77.0890722  83.7435110  65.4396281  77.1679203
  83.2172724  64.1434329  77.7465649  86.3128310  51.6616322  89.7452089
  85.5361644  52.2210242  89.7354954  86.9518873  52.1473105  90.2666959
  94.1049091  48.4443114  83.5795066  93.4623471  48.7375648  82.9334861
  93.6004019  48.3296035  84.3848263  91.7589255  52.1906288  74.2680925
  92.6707111  52.4233674  74.0928623  91.2498902  52.7743332  73.7056004
  84.5674683  54.4701775  89.3070056  85.3089367  55.0086819  89.0304880
  83.8611668  55.0968064  89.4641608  90.0430022  56.6130915  87.9042218
  90.4513378  56.1713326  87.1596850  89.3207284  56.0383543  88.1576411
  86.3961092  51.5503522  85.2775775  87.2422287  51.9742936  85.4210424
  86.3359730  50.8937147  85.9714338  90.3658837  57.1732106  81.6594507
  89.7367699  57.3377820  80.9570575  89.9784499  57.5873716  82.4305471
  94.2448069  58.1086544  79.0138870  93.5599107  58.4885445  78.4635904
  94.3291918  58.7181871  79.7470818  89.5460538  49.2107891  86.9356948
  89.3021469  49.9649951  86.3991224  89.8220468  49.5893238  87.7704195
  91.4999000  55.7546503  85.6134214  91.7115896  56.3978263  84.9368595
  91.4528749  54.9208820  85.1456144  89.1025229  48.3664324  82.5170786
  88.2409708  48.6645577  82.8087524  89.1287664  48.5834722  81.5851819
  85.9186799  56.9106514  78.9244592  86.3825144  57.1894217  78.1349214
  85.6543597  56.0089959  78.7417682  82.8110880  56.4577996  81.8624355
  83.3812237  56.8865264  81.2241840  83.4018992  56.1760580  82.5608541
  84.8555685  53.0329667  75.7334157  85.5579728  53.4850710  76.2008083
  84.5236313  52.3913485  76.3614050  83.3036046  51.6241423  90.1085366
  82.6734707  52.3057704  90.3420763  83.1972134  51.5124505  89.1638505
  78.5981019  51.2913219  81.0351291  77.8080073  51.5470748  80.5591401
  79.0892266  52.1061557  81.1403331  92.6144828  58.6318458  83.7856571
  93.4362272  58.2298646  83.5039253  92.6107231  58.5286693  84.7372687
  80.5495764  51.6557798  77.9934767  79.7526927  51.7676493  78.5118263
  80.3221356  51.9944451  77.1275658  86.3801432  58.1802502  85.9417282
  86.4445864  58.6422909  86.7775454  85.6712356  57.5499867  86.0699592
  76.8818722  51.5443710  83.4666281  77.1326760  52.4290720  83.7323857
  77.4178270  51.3648311  82.6941373 100.7050821  54.9757207  80.1341543
  99.9514530  54.4064605  79.9785547 100.8398363  54.9419871  81.0812178
  86.0949449  59.8470609  75.8096262  85.9595124  60.6922145  76.2381110
  86.6359262  60.0489887  75.0462196  82.5816789  45.9262189  92.4710617
  82.1883735  45.3728388  93.1458262  83.3982929  46.2372767  92.8617135
  79.5478847  57.3646047  76.3824187  80.0603367  58.1589297  76.5329752
  80.2001560  56.6672338  76.3157789  81.3573731  60.4811803  78.4646940
  81.5340360  61.4029768  78.2767924  82.1530565  60.1670223  78.8941320
  85.4984750  47.3420068  90.0630874  86.2394463  47.9427221  89.9835336
  85.7302673  46.5997706  89.5048917  80.6426088  52.5276435  88.3409104
  80.5279603  51.6261693  88.6416203  79.7870606  52.7740132  87.9893920
  87.7217926  60.4694176  89.9396604  87.2781780  59.6830554  89.6217509
  88.3835139  60.6573326  89.2740495  82.4805047  61.9989977  84.4657283
  83.0312472  61.8707041  83.6934277  81.6416523  62.2984866  84.1152176
  89.8199164  60.7496976  87.9678006  89.8017639  61.5705857  87.4758275
  90.7419084  60.6251051  88.1928147  86.2772218  58.2641105  88.8101514
  86.8100555  57.5029393  88.5800822  85.7486299  57.9714757  89.5525668
  89.4441913  43.3701171  84.3395156  89.1006182  44.2602813  84.2634266
  89.8120876  43.1802829  83.4764741  77.5127764  55.6934701  77.1583758
  78.3502986  56.1031710  76.9417466  77.6906031  54.7534144  77.1283952
  89.4092196  53.3609782  72.8467591  88.8938819  54.1314387  73.0855978
  89.1369504  52.6874918  73.4700652  86.9939307  48.2059483  77.9052829
  86.1380903  47.8166333  77.7258468  87.4066258  48.2851444  77.0452615
  88.5238453  45.7405826  82.3044389  88.0203249  45.7035961  81.4912194
  88.8169060  46.6498569  82.3641046  84.7681339  45.8244556  81.3110571
  85.6334336  45.6287365  80.9516460  84.8358848  45.5954908  82.2379927
  94.3826470  56.1142137  74.7820764  93.6055913  55.7753296  74.3375926
  95.0617951  56.1194760  74.1075729  89.1978499  51.2336874  74.6727372
  88.8928634  51.5483023  75.5237515  90.1508941  51.3118294  74.7154705
  87.6424931  57.3927098  76.3220326  87.1146292  56.6579857  76.0093563
  87.1412433  58.1701774  76.0760294  92.6217777  55.5876118  81.4387372
  91.9641451  56.2775379  81.5267501  93.4258176  55.9772550  81.7821359
  82.3743658  48.0546764  78.6826937  82.9487410  47.8321945  77.9500130
  82.9614641  48.1235458  79.4355539  91.4323236  53.9420491  79.4891314
  91.9455117  54.5750483  79.9913024  92.0824459  53.3421686  79.1234674
  82.7013245  50.0851225  72.7022823  81.8650558  50.4225911  73.0232097
  82.5618015  49.9500205  71.7649960  84.6766326  44.9288013  77.4102007
  84.0230738  44.6137030  76.7858622  84.6346800  44.3063753  78.1361830
  85.7877531  55.2107308  69.3255299  84.8804593  54.9796561  69.5246448
  86.2848563  54.4144927  69.5129280  88.6945610  63.9204815  72.2451985
  88.0207309  64.2236512  72.8536943  89.0811432  64.7233895  71.8957442
  87.9104066  51.4169946  81.7349654  86.9926628  51.6384893  81.5771343
  88.3264210  51.4916257  80.8761362  88.6939114  52.8161362  76.8652335
  89.4410933  53.3282759  76.5559457  88.9630704  52.4945415  77.7256728
  86.9665764  55.3119903  73.8479289  86.0576984  55.0278936  73.9451759
  86.9960848  55.7318981  72.9882596  92.1985032  58.9226492  77.6170457
  91.7447359  58.0817402  77.6735647  91.5678998  59.5587891  77.9545237
  91.1417951  49.8518478  78.8471124  90.4040708  49.3395864  79.1781367
  91.3944725  49.4118860  78.0354401  90.6417971  60.7602989  78.5520275
  90.9340945  61.3208046  77.8332640  91.1516592  61.0531550  79.3073434
  91.2429579  42.6294730  79.4412893  91.5488455  41.7692094  79.1538808
  91.9682183  43.2212350  79.2411887  77.5353935  53.0325417  77.8294491
  77.3378334  52.4394778  77.1045558  76.9800599  52.7277627  78.5470430
  85.5150658  52.9248523  79.9489084  85.5699268  51.9722360  79.8731561
  84.7041860  53.0807962  80.4330383  86.6641852  56.8528646  71.1867368
  86.2261282  56.1364505  70.7273005  87.4052293  57.0804761  70.6252459
  83.4543018  51.5425583  77.7079463  82.6410884  51.8419754  78.1144655
  83.9502012  51.1481272  78.4253945  85.6051596  61.5383340  79.6413728
  85.5627775  61.7644186  78.7122260  86.5214295  61.3046715  79.7899529
  89.0517230  52.0067408  86.5394357  89.4066618  52.2338881  87.3988823
  89.6989361  52.3385784  85.9171612  94.7814967  55.1285843  77.2443686
  94.6432865  55.3187439  76.3164875  94.4251186  55.8905226  77.7011737
  82.9457093  49.1143939  83.3240698  83.5856472  48.9732698  82.6263662
  82.1134624  48.8278452  82.9479300  94.8084346  57.1962370  82.2554958
  95.2420853  57.1037659  83.1038012  95.5215927  57.1719871  81.6174974
  83.7217397  58.4146369  79.4375691  84.5157995  57.9196689  79.2358266
  83.0109089  57.8864232  79.0743396  88.5412241  60.7964465  83.7888058
  88.5949264  61.3655401  84.5565774  87.6727023  60.9666350  83.4242095
  80.0300160  52.5589451  75.5135443  79.0997748  52.4973906  75.7305405
  80.1257632  52.0365403  74.7172085  79.9485709  49.0844264  78.1013685
  80.2092527  49.9989597  77.9922845  80.7702882  48.6168706  78.2510298
  81.4210635  50.4982021  85.2712510  82.0933688  50.2899383  84.6225158
  80.5940421  50.3004107  84.8317742  95.6699896  57.2386071  84.7887843
  95.8635786  58.1431882  85.0347118  95.5700514  56.7793490  85.6226428
  87.3236207  47.1243962  87.2878170  86.6764122  47.8233911  87.1942647
  88.0937222  47.5580106  87.6554419  90.7315005  57.3892814  90.3628724
  90.5800511  57.1603365  89.4458807  90.7219684  58.3463415  90.3760069
  87.5000341  54.9624727  85.3474990  88.4292401  55.1135886  85.1743957
  87.0791371  55.0508747  84.4923637  86.2988673  58.9875391  83.1173528
  86.1599759  58.6194175  83.9899466  85.5103269  59.5023030  82.9457486
  86.8936825  64.0884487  74.4599064  87.0688581  63.6172531  75.2744687
  86.2069613  64.7150254  74.6880325  87.8493888  58.3656994  80.5062366
  87.5143721  58.3257764  81.4020015  87.3497834  57.7001710  80.0332776
  81.8238132  53.7724624  86.0314947  81.6857930  53.0404863  86.6326486
  82.7343055  53.6833524  85.7499134  90.7853080  55.7113028  70.7799425
  90.1682250  54.9859856  70.6832478  90.3169568  56.4722388  70.4366499
  84.4520433  53.4844583  85.5198626  85.1620051  52.8437775  85.4785245
  84.4089741  53.7357478  86.4424807  92.4407211  60.4211936  88.4405206
  92.3819758  59.7371156  87.7735789  92.8426730  61.1630926  87.9885832
  83.1649367  50.4709801  87.3394266  82.6286724  50.0200539  87.9915862
  82.5766075  50.6055710  86.5964730  81.4597910  67.2373850  81.2338924
  81.6994508  67.8692374  81.9117943  80.6167107  66.8861890  81.5204284
  82.5751626  49.9298452  69.9020729  81.6981092  49.8087253  69.5382976
  83.0509379  49.1384531  69.6499618  92.4424619  58.3851520  86.6719185
  91.5551397  58.0477442  86.7945584  93.0123170  57.6534552  86.9087951
  74.0953766  54.7175612  79.9962237  74.7824806  54.4037342  79.4083252
  73.9401894  55.6216977  79.7229488  78.8988488  49.6065809  84.4247260
  78.8146677  48.9991478  83.6897670  78.0771194  50.0974827  84.4256757
  85.9725772  63.0452973  83.6380428  85.8995944  63.8507944  84.1499733
  85.5303165  63.2444938  82.8128450  85.7615552  62.2824743  77.1483250
  84.9783074  62.8246423  77.2421474  86.4608297  62.7998722  77.5477491
  89.0712202  48.0919372  79.7917455  89.5680901  47.3389334  79.4718526
  88.2999183  48.1283689  79.2260665  96.9241959  53.7959738  81.4335747
  96.9131835  54.6784453  81.0629680  96.0559339  53.4431288  81.2390284
  88.4324456  62.9439807  85.7938587  89.1452428  63.5787271  85.7214489
  87.9414484  63.0403673  84.9778589  90.1541982  56.8491059  77.3655879
  89.2198261  56.9692522  77.1960583  90.3318651  55.9463526  77.1015889
  85.6547171  50.2336755  79.5189140  85.2844958  49.6807796  80.2070046
  86.1506263  49.6294889  78.9664140  93.5414534  52.6908379  77.9005913
  94.0074986  53.5236370  77.8266216  93.9922034  52.2253360  78.6051171
  83.4836369  60.6934250  86.6144158  84.1845829  61.3270733  86.7673552
  83.0131484  61.0348982  85.8539797  91.6090765  59.0352200  74.8992065
  91.8850609  58.9208795  75.8085939  90.7395264  58.6369685  74.8604238
  91.5131197  45.0588966  81.9396814  90.5994276  45.2893192  82.1079021
  91.9424298  45.1427410  82.7910847  91.2837655  53.2478858  84.4396708
  90.6309105  53.4954765  83.7849161  91.6618035  52.4342996  84.1059186
  88.2444829  63.2838551  78.5424879  88.4267223  62.4660207  79.0052631
  89.0677815  63.5006243  78.1049769  88.5786994  62.2106736  75.8039927
  89.1074761  61.6999190  75.1910089  88.8415214  61.8949266  76.6685460
  87.3325228  53.9898669  90.9262745  86.6565865  53.8892798  91.5965121
  88.1552862  53.8337882  91.3898743  79.0804087  60.2270605  83.5475261
  79.6657524  59.4814293  83.6803165  78.8828926  60.5374562  84.4311924
  81.9342742  63.2621853  78.5637703  81.2653118  63.7467980  78.0801743
  81.7955612  63.5091073  79.4781082  73.6721742  52.7976205  82.2679704
  73.7105841  52.2639796  83.0616822  73.1662035  52.2711411  81.6490681
  86.0748011  65.2965596  85.1620361  86.6266319  65.4597218  85.9269447
  86.4154204  65.8870034  84.4900386  81.0512504  47.6440746  85.7642246
  81.1153831  48.5055577  85.3519644  80.9879624  47.0314748  85.0314605
  80.5264777  49.7163878  89.4115280  81.1536816  49.3340956  90.0252805
  79.6692696  49.4978080  89.7770973  90.9258885  60.1226854  91.0169016
  91.4698789  60.7356812  90.5223971  90.3445730  60.6806432  91.5336029
  77.3030319  51.5240308  75.3433635  77.5983761  50.6150986  75.2900689
  76.4018355  51.5028047  75.0214637  89.2116398  63.2447572  82.1484044
  89.0867538  62.4437311  81.6394989  89.8695489  63.7393765  81.6598013
  80.8324566  49.5996304  81.3261184  80.1111152  50.2132272  81.1868657
  81.6217822  50.1354069  81.2477830  91.2751307  61.0456592  83.7763594
  90.3281642  60.9261943  83.7041920  91.6234080  60.1579090  83.8589855
  83.6350880  46.9350731  87.6001835  84.1585282  47.1813027  88.3628145
  83.4163213  47.7670765  87.1804973  79.0318161  49.2054405  75.4672960
  78.7030867  48.3251784  75.2848066  79.3857532  49.1502074  76.3549350
  88.2797740  60.8409308  79.9767946  88.1322702  59.9126015  80.1575516
  89.1051233  60.8629399  79.4925021  82.1459984  49.4927375  75.8348438
  82.4856057  50.0213296  75.1127046  82.5932105  49.8307781  76.6107005
  91.8831862  61.6637867  81.0632819  92.8078409  61.4580728  80.9257270
  91.7147165  61.4154268  81.9722160  84.8403425  47.8764426  85.2851506
  84.5000245  47.0772239  85.6872186  84.1342431  48.1766137  84.7128339
  85.4919897  44.9613738  83.7378829  86.3145966  44.4874216  83.6157719
  85.7357960  45.7404222  84.2377515  84.1328131  47.9901997  74.0341731
  84.8536494  48.3683249  73.5305448  83.5093435  48.7090873  74.1376709
  88.2759254  48.6947146  74.9700063  88.4922869  49.5771783  74.6688891
  87.7953321  48.3033359  74.2405705  83.0158476  51.6532859  81.5470808
  82.8703056  51.9673162  82.4395089  82.5383679  52.2717759  80.9941706
  84.8754858  48.6435407  81.5951697  84.8616427  47.7476500  81.2583995
  85.5927287  48.6506071  82.2289983  86.7280989  49.0772747  83.6404825
  86.4698767  49.9989818  83.6389155  86.1966030  48.6803182  84.3305289
  91.6727178  62.1823534  76.4194910  91.8464056  61.6169957  75.6668762
  92.1656069  62.9824429  76.2374400  77.4904138  54.1938203  84.4858469
  76.9457606  54.9698011  84.6178743  78.3683488  54.5409008  84.3277590
  84.2791754  47.5249787  76.8639267  84.4007666  46.5966433  77.0630155
  83.9893797  47.5388473  75.9517583  87.1482945  45.2104697  80.0005987
  87.1704642  45.2744031  79.0457967  87.5651004  44.3709206  80.1946493
  97.5266569  54.9459957  78.0385210  97.9697715  54.1967282  77.6404333
  96.6493079  54.9370093  77.6558942  92.6602350  61.4990299  73.5191808
  93.3553255  62.1196991  73.7379123  93.0025501  60.6485650  73.7944186
  78.2770160  53.3208099  87.3788626  77.5351896  53.4690735  87.9653256
  77.9562904  53.5816365  86.5155375  94.5593774  58.9490004  75.0479139
  95.0845098  59.2877277  74.3228459  94.4716126  58.0137019  74.8642274
  86.2213822  62.8624078  87.1769016  86.5300949  62.6173224  88.0491715
  87.0189304  63.0670716  86.6887886  86.2434434  65.0161987  79.4074392
  85.8039425  64.5238366  80.1007249  86.9942551  64.4734955  79.1666467
  78.7226773  61.2073528  79.4099020  79.5484793  60.9077300  79.0297664
  78.3720825  60.4381151  79.8588809  83.6908306  60.5599996  81.4796694
  83.0688316  59.8970701  81.1798922  84.3613173  60.5861128  80.7970342
  76.9235378  59.1259855  80.3687954  76.0867287  58.6982029  80.1871955
  76.8959024  59.3192298  81.3058745  83.7632834  49.0381784  91.0729200
  83.8120989  49.9143907  90.6906970  84.3055348  48.4959177  90.5000843
  94.2487680  59.5822908  90.3530337  93.4583223  59.5647047  89.8134836
  94.0121034  60.1211201  91.1079374  94.3685555  56.4315374  87.6663066
  94.4183560  56.2665381  88.6078588  94.2599478  55.5642633  87.2760946
  83.2521813  59.1103920  74.9555154  83.4009934  59.7939384  74.3021827
  84.0588257  59.0909010  75.4704610  91.6589317  52.4146302  88.9822372
  92.5599180  52.2752767  88.6906370  91.7337292  52.5800757  89.9220550
  85.9932122  49.7913157  87.8275559  85.1235432  50.0846723  87.5558147
  86.2291603  50.3753602  88.5482822  95.8703752  58.8512316  87.9105087
  95.5788560  59.2142296  88.7468548  95.2575883  58.1379324  87.7318419
  97.0699434  56.4165195  80.4307657  97.9046325  56.8554999  80.5945218
  97.2058563  55.9403849  79.6115903  94.1190940  53.9744930  86.3785145
  94.5945061  54.1672577  85.5703996  93.1956505  54.0304116  86.1328529
  81.0074446  55.1369097  75.9616223  80.7620488  54.2331427  76.1596434
  81.1770361  55.1386248  75.0195701  88.6971156  46.0092774  85.3440979
  89.2153100  46.7453801  85.0187468  88.3426289  46.3156767  86.1787738
  80.2770094  50.8697455  73.4602385  79.5839339  50.9441810  72.8042421
  80.0321846  50.1057799  73.9823902  88.9483750  42.4293056  80.8641876
  89.2285504  41.7616245  81.4902302  89.7334357  42.6222152  80.3516539
  86.7517219  61.6052050  72.4266902  86.1791186  62.2242237  71.9737374
  87.3250013  62.1551412  72.9606824  92.8192609  50.8510690  84.6113451
  93.7710032  50.9508788  84.6325675  92.6496059  50.0588959  85.1211535
  90.8406988  47.9366273  84.7972852  90.2456920  48.2171286  84.1019340
  90.5556685  48.4260174  85.5689593  89.9714479  61.8889200  73.5575484
  90.9045152  61.8234762  73.7608360  89.8837692  62.7245467  73.0990017
  92.6002495  61.2055071  70.5179432  92.5216127  60.8714934  71.4115190
  93.4212162  61.6976839  70.5170904  95.2980687  54.0716810  83.7255750
  95.2657007  53.1332811  83.9115434  95.9081310  54.1500847  82.9921575
  87.1364017  52.9412863  69.7682954  88.0823122  52.8119071  69.8371372
  86.7578262  52.2027525  70.2452383  95.4475175  50.8627853  83.7714034
  94.9314224  50.0786310  83.5843962  96.3315124  50.5346570  83.9360553
  93.1085902  44.6068869  79.7309846  92.9110723  44.2983957  80.6153178
  93.7185608  45.3330508  79.8607776 101.1157236  55.1332817  82.8661787
 101.8460625  54.8718105  83.4269490 100.5064182  54.3961539  82.9063855
  99.1972534  53.2740679  83.4636238  98.4705697  53.1396644  82.8552730
  98.7819820  53.5817508  84.2692956  87.0202710  56.9930609  91.2283611
  87.9405719  57.1709208  91.4223658  86.9852293  56.0486654  91.0763311
  85.3206935  50.8662839  69.7037840  84.4138390  50.5695952  69.7800553
  85.5982916  50.5692657  68.8372126  76.2384875  52.1869203  80.1536886
  75.9187659  51.3334511  79.8611260  75.6918303  52.4017781  80.9094853
  80.0164782  54.9031644  83.8706393  80.2350792  55.8348752  83.8894426
  80.4290556  54.5439618  84.6561196  86.9369000  45.4099729  75.8582081
  86.1269729  45.0646814  76.2337327  87.6253417  45.1007273  76.4469692
  88.8659549  44.4877776  77.4806378  89.4190587  44.9073229  78.1396401
  89.1029635  43.5613524  77.5229334  84.8892648  50.4764849  93.2609141
  84.7889375  51.4259206  93.1921233  84.6714190  50.1483088  92.3885212
  84.0905719  47.7249775  69.8449819  84.9524883  48.0504673  70.1045636
  84.2756063  46.9381270  69.3322885  76.1073135  55.8072114  82.1230008
  75.4136606  55.3926067  81.6099962  76.8546126  55.8492651  81.5263427
  92.2438356  46.5978301  76.9885042  91.6637025  47.2563105  76.6063094
  91.9774288  45.7755646  76.5772459  90.6941922  45.9983359  79.1906362
  91.1941700  46.1099893  78.3820681  91.3377530  45.6944412  79.8307171
  84.7523918  53.9061988  92.0774203  84.2691000  54.7062348  92.2838092
  84.8384857  53.9169933  91.1241647  78.0209877  55.7390368  79.9996022
  77.9980566  55.8378055  79.0477906  78.3310514  56.5855519  80.3213189
  80.6797255  57.7966523  84.1142637  81.6340509  57.7650465  84.0472568
  80.4809779  57.3357147  84.9292863  81.2696637  56.3667639  86.6813435
  82.0889526  56.8611718  86.7048272  81.5433445  55.4499607  86.6531002
  91.0263234  48.7578391  76.0441390  90.1389089  49.0428042  75.8261585
  91.4417223  48.5972155  75.1968667  94.3777770  48.7824912  79.7595729
  95.1538160  49.2721365  80.0320346  93.6525904  49.2082967  80.2167599
  96.8150328  49.4952532  80.8169670  97.4094819  49.2548268  80.1062978
  96.8876912  48.7759662  81.4443206  79.0347484  63.3386143  81.1312835
  78.9001952  62.5786543  80.5650833  78.6179546  64.0627042  80.6641624
  90.1706447  58.5223066  70.1389410  90.8742297  58.7273069  70.7547066
  89.4469096  59.0899828  70.4038494  91.0004257  54.2732927  76.2591680
  90.9439459  54.7301479  75.4199313  91.5532600  53.5123612  76.0814523
  94.8109063  50.0622659  77.0841800  94.5545998  49.6619295  77.9150007
  94.1861931  50.7766453  76.9591939  99.1221401  52.8018732  79.5913091
  98.5620959  52.8711922  80.3644653  98.5164905  52.6259717  78.8712587
  82.1916610  64.2355460  81.3431277  82.0748994  65.1800892  81.2409968
  81.3709056  63.9329021  81.7317077  92.0793145  58.9605595  72.1887870
  92.9138748  58.5286794  72.0065345  91.9177487  58.7887609  73.1164765
  91.7339037  55.4637709  73.5544209  91.6787841  55.2981980  72.6132654
  91.1085092  56.1713741  73.7106399  76.5231552  50.7005773  87.3805632
  77.1690415  50.1904727  87.8692857  76.3148703  51.4374455  87.9549057
  89.0484944  57.7686620  92.8797772  89.9176104  57.9427273  92.5184407
  88.5691695  58.5881037  92.7573502  85.0435162  44.9645818  73.1329528
  85.0313832  45.9087657  73.2897799  85.9358584  44.7815963  72.8388989
  83.2171124  64.8883721  84.5587206  84.1198371  64.9207332  84.8753701
  82.9908494  63.9584172  84.5733542  84.9724726  63.6414708  81.2197284
  84.0220357  63.6416570  81.1061657  85.2757212  62.8947443  80.7033319
  88.8587282  41.5588594  77.3875465  88.0919677  41.0047081  77.5332147
  89.2697987  41.6310463  78.2489616  80.8629043  47.8473390  91.4780646
  81.7260504  47.4910195  91.6883970  80.2894453  47.5087285  92.1656050
 100.7077420  69.4775246  82.2843047 101.3455830  69.3581994  81.5806387
 100.5898263  70.4256090  82.3430999  97.5167126  69.4302674  82.2204572
  97.1785637  69.3143739  81.3325106  98.3856894  69.0293840  82.2005578
  93.3753942  71.2838151  78.2101462  92.8118807  71.1928088  77.4417750
  93.2606337  70.4638055  78.6903955  97.9986909  70.5837526  88.1790777
  97.9875550  70.1890324  87.3071281  98.1607548  69.8503599  88.7724549
  90.9218374  72.7789342  81.0485683  91.7139665  72.4380167  80.6331982
  91.1615024  72.8884318  81.9687836  98.9553500  74.9509119  73.5215927
  98.3041480  75.5363199  73.1349941  99.7497863  75.4815314  73.5810965
  92.8809127  72.0398256  73.9203062  93.6540003  71.4927243  73.7815938
  93.2334526  72.9042505  74.1317523  94.7194170  73.3674638  87.1269961
  94.4284036  74.2720269  87.0116627  95.3551154  73.4091166  87.8414031
  95.6450377  70.7451487  83.7171321  96.2413949  70.5207509  83.0028284
  95.7025348  70.0036232  84.3196769  95.2175405  68.1990922  71.5521512
  95.4700926  67.6772443  70.7904975  94.2799964  68.0357067  71.6548195
 100.2618688  67.2026700  79.3596255 101.0481777  66.7846123  79.0086672
 100.5257392  68.1072792  79.5277903 100.4328765  72.6399551  74.0584912
  99.7974598  72.7134177  74.7705816 100.1026172  73.2293149  73.3803991
 105.6627115  67.1401933  80.2629233 106.3952287  66.5701150  80.4967063
 104.9066471  66.7523534  80.7035739  94.9371694  70.1019028  73.7545887
  94.8207952  69.4263931  74.4226971  95.0473954  69.6151402  72.9378040
  97.2803235  69.5629175  77.4592576  96.9161442  69.0359796  78.1705497
  98.1370351  69.1727644  77.2859061 103.1852536  60.8523508  84.7223842
 102.8535860  61.7218918  84.4985057 102.5898149  60.5359792  85.4017872
  96.9208722  64.5919075  72.4553924  97.0883124  65.4599311  72.8224395
  96.7305891  64.7546356  71.5315214  99.6784055  73.0536054  84.1219755
  99.3784778  73.9561092  84.0135562  99.3335115  72.7868237  84.9740908
  93.1296537  69.5049850  80.1556459  92.2047033  69.3726064  80.3634151
  93.3780950  70.2844070  80.6526402 103.0781199  65.5718594  81.8017192
 102.1698076  65.5034002  81.5075953 103.0268795  66.0490539  82.6299018
  96.8997943  67.0476732  73.4400591  96.7797568  67.4933783  74.2786071
  96.2050531  67.3962050  72.8814129  90.4905348  69.1483124  80.9900248
  90.6197729  69.4017603  81.9039660  89.8102799  69.7410832  80.6704903
  94.6604835  79.8180374  77.0890722  94.5828865  80.7688199  77.1679203
  94.0566479  79.4726246  77.7465649  97.1522065  66.9908239  89.7452089
  96.3755399  67.5502159  89.7354954  97.7912628  67.4765022  90.2666959
 104.9442845  63.7735032  83.5795066 104.3017226  64.0667565  82.9334861
 104.4397774  63.6587952  84.3848263 102.5983009  67.5198205  74.2680925
 103.5100865  67.7525592  74.0928623 102.0892656  68.1035250  73.7056004
  95.4068437  69.7993693  89.3070056  96.1483121  70.3378737  89.0304880
  94.7005422  70.4259981  89.4641608 100.8823777  71.9422833  87.9042218
 101.2907133  71.5005244  87.1596850 100.1601038  71.3675461  88.1576411
  97.2354847  66.8795440  85.2775775  98.0816042  67.3034853  85.4210424
  97.1753484  66.2229064  85.9714338 101.2052591  72.5024024  81.6594507
 100.5761454  72.6669738  80.9570575 100.8178253  72.9165633  82.4305471
 105.0841823  73.4378462  79.0138870 104.3992861  73.8177363  78.4635904
 105.1685673  74.0473788  79.7470818 100.3854292  64.5399808  86.9356948
 100.1415224  65.2941869  86.3991224 100.6614223  64.9185156  87.7704195
 102.3392755  71.0838421  85.6134214 102.5509650  71.7270181  84.9368595
 102.2922503  70.2500737  85.1456144  99.9418984  63.6956241  82.5170786
  99.0803463  63.9937495  82.8087524  99.9681418  63.9126640  81.5851819
  96.7580553  72.2398432  78.9244592  97.2218899  72.5186135  78.1349214
  96.4937351  71.3381876  78.7417682  93.6504634  71.7869913  81.8624355
  94.2205991  72.2157182  81.2241840  94.2412746  71.5052498  82.5608541
  95.6949439  68.3621584  75.7334157  96.3973483  68.8142628  76.2008083
  95.3630068  67.7205403  76.3614050  94.1429801  66.9533341  90.1085366
  93.5128461  67.6349622  90.3420763  94.0365889  66.8416422  89.1638505
  89.4374773  66.6205137  81.0351291  88.6473827  66.8762665  80.5591401
  89.9286021  67.4353475  81.1403331 103.4538583  73.9610376  83.7856571
 104.2756026  73.5590563  83.5039253 103.4500986  73.8578610  84.7372687
  91.3889519  66.9849716  77.9934767  90.5920682  67.0968410  78.5118263
  91.1615111  67.3236368  77.1275658  97.2195186  73.5094419  85.9417282
  97.2839619  73.9714827  86.7775454  96.5106110  72.8791784  86.0699592
  87.7212476  66.8735627  83.4666281  87.9720515  67.7582637  83.7323857
  88.2572025  66.6940229  82.6941373  96.9343204  75.1762527  75.8096262
  96.7988879  76.0214063  76.2381110  97.4753016  75.3781804  75.0462196
  93.4210543  61.2554107  92.4710617  93.0277489  60.7020305  93.1458262
  94.2376684  61.5664685  92.8617135  90.3872601  72.6937965  76.3824187
  90.8997122  73.4881215  76.5329752  91.0395314  71.9964255  76.3157789
  92.1967486  75.8103721  78.4646940  92.3734114  76.7321686  78.2767924
  92.9924319  75.4962140  78.8941320  96.3378504  62.6711986  90.0630874
  97.0788218  63.2719139  89.9835336  96.5696427  61.9289624  89.5048917
  91.4819842  67.8568353  88.3409104  91.3673358  66.9553610  88.6416203
  90.6264360  68.1032050  87.9893920  98.5611680  75.7986093  89.9396604
  98.1175534  75.0122472  89.6217509  99.2228894  75.9865244  89.2740495
  93.3198801  77.3281895  84.4657283  93.8706227  77.1998958  83.6934277
  92.4810277  77.6276784  84.1152176 100.6592918  76.0788893  87.9678006
 100.6411394  76.8997774  87.4758275 101.5812838  75.9542968  88.1928147
  97.1165972  73.5933023  88.8101514  97.6494309  72.8321311  88.5800822
  96.5880054  73.3006675  89.5525668 100.2835667  58.6993089  84.3395156
  99.9399937  59.5894730  84.2634266 100.6514630  58.5094746  83.4764741
  88.3521518  71.0226619  77.1583758  89.1896740  71.4323628  76.9417466
  88.5299786  70.0826061  77.1283952 100.2485950  68.6901700  72.8467591
  99.7332574  69.4606304  73.0855978  99.9763259  68.0166836  73.4700652
  97.8333061  63.5351401  77.9052829  96.9774658  63.1458251  77.7258468
  98.2460013  63.6143361  77.0452615  99.3632208  61.0697744  82.3044389
  98.8597003  61.0327879  81.4912194  99.6562815  61.9790487  82.3641046
  95.6075094  61.1536474  81.3110571  96.4728090  60.9579282  80.9516460
  95.6752603  60.9246825  82.2379927 105.2220224  71.4434054  74.7820764
 104.4449667  71.1045214  74.3375926 105.9011705  71.4486678  74.1075729
 100.0372253  66.5628792  74.6727372  99.7322389  66.8774941  75.5237515
 100.9902695  66.6410212  74.7154705  98.4818685  72.7219015  76.3220326
  97.9540047  71.9871775  76.0093563  97.9806188  73.4993692  76.0760294
 103.4611531  70.9168036  81.4387372 102.8035206  71.6067297  81.5267501
 104.2651930  71.3064468  81.7821359  93.2137413  63.3838682  78.6826937
  93.7881165  63.1613863  77.9500130  93.8008395  63.4527376  79.4355539
 102.2716990  69.2712408  79.4891314 102.7848872  69.9042400  79.9913024
 102.9218214  68.6713604  79.1234674  93.5407000  65.4143143  72.7022823
  92.7044312  65.7517829  73.0232097  93.4011770  65.2792122  71.7649960
  95.5160080  60.2579930  77.4102007  94.8624493  59.9428948  76.7858622
  95.4740555  59.6355671  78.1361830  96.6271285  70.5399225  69.3255299
  95.7198347  70.3088479  69.5246448  97.1242317  69.7436845  69.5129280
  99.5339364  79.2496733  72.2451985  98.8601063  79.5528429  72.8536943
  99.9205186  80.0525813  71.8957442  98.7497821  66.7461864  81.7349654
  97.8320382  66.9676811  81.5771343  99.1657964  66.8208174  80.8761362
  99.5332869  68.1453280  76.8652335 100.2804688  68.6574677  76.5559457
  99.8024458  67.8237332  77.7256728  97.8059519  70.6411820  73.8479289
  96.8970738  70.3570853  73.9451759  97.8354603  71.0610899  72.9882596
 103.0378786  74.2518410  77.6170457 102.5841113  73.4109320  77.6735647
 102.4072753  74.8879808  77.9545237 101.9811706  65.1810396  78.8471124
 101.2434463  64.6687782  79.1781367 102.2338479  64.7410778  78.0354401
 101.4811725  76.0894907  78.5520275 101.7734700  76.6499964  77.8332640
 101.9910346  76.3823468  79.3073434 102.0823333  57.9586648  79.4412893
 102.3882210  57.0984011  79.1538808 102.8075938  58.5504268  79.2411887
  88.3747689  68.3617334  77.8294491  88.1772089  67.7686695  77.1045558
  87.8194353  68.0569545  78.5470430  96.3544413  68.2540441  79.9489084
  96.4093023  67.3014277  79.8731561  95.5435615  68.4099880  80.4330383
  97.5035607  72.1820564  71.1867368  97.0655037  71.4656423  70.7273005
  98.2446047  72.4096679  70.6252459  94.2936773  66.8717501  77.7079463
  93.4804638  67.1711671  78.1144655  94.7895767  66.4773189  78.4253945
  96.4445351  76.8675258  79.6413728  96.4021529  77.0936104  78.7122260
  97.3608049  76.6338632  79.7899529  99.8910984  67.3359325  86.5394357
 100.2460372  67.5630798  87.3988823 100.5383116  67.6677702  85.9171612
 105.6208721  70.4577761  77.2443686 105.4826620  70.6479357  76.3164875
 105.2644940  71.2197144  77.7011737  93.7850848  64.4435856  83.3240698
  94.4250227  64.3024615  82.6263662  92.9528378  64.1570370  82.9479300
 105.6478101  72.5254288  82.2554958 106.0814608  72.4329577  83.1038012
 106.3609682  72.5011789  81.6174974  94.5611151  73.7438287  79.4375691
  95.3551750  73.2488607  79.2358266  93.8502844  73.2156150  79.0743396
  99.3805996  76.1256382  83.7888058  99.4343018  76.6947319  84.5565774
  98.5120777  76.2958267  83.4242095  90.8693915  67.8881368  75.5135443
  89.9391503  67.8265824  75.7305405  90.9651387  67.3657321  74.7172085
  90.7879464  64.4136181  78.1013685  91.0486281  65.3281514  77.9922845
  91.6096636  63.9460624  78.2510298  92.2604389  65.8273938  85.2712510
  92.9327443  65.6191301  84.6225158  91.4334176  65.6296024  84.8317742
 106.5093651  72.5677989  84.7887843 106.7029541  73.4723799  85.0347118
 106.4094269  72.1085408  85.6226428  98.1629961  62.4535879  87.2878170
  97.5157876  63.1525829  87.1942647  98.9330977  62.8872023  87.6554419
  98.3394096  70.2916644  85.3474990  99.2686156  70.4427804  85.1743957
  97.9185126  70.3800665  84.4923637  97.1382427  74.3167309  83.1173528
  96.9993513  73.9486093  83.9899466  96.3497024  74.8314948  82.9457486
  97.7330579  79.4176405  74.4599064  97.9082335  78.9464448  75.2744687
  97.0463367  80.0442171  74.6880325  98.6887643  73.6948911  80.5062366
  98.3537475  73.6549681  81.4020015  98.1891588  73.0293627  80.0332776
  92.6631887  69.1016541  86.0314947  92.5251684  68.3696780  86.6326486
  93.5736810  69.0125441  85.7499134 101.6246834  71.0404946  70.7799425
 101.0076005  70.3151774  70.6832478 101.1563323  71.8014306  70.4366499
  95.2914187  68.8136501  85.5198626  96.0013806  68.1729693  85.4785245
  95.2483495  69.0649396  86.4424807  94.0043121  65.8001719  87.3394266
  93.4680478  65.3492457  87.9915862  93.4159830  65.9347627  86.5964730
  92.2991665  82.5665768  81.2338924  92.5388263  83.1984292  81.9117943
  91.4560861  82.2153808  81.5204284  93.4145380  65.2590370  69.9020729
  92.5374846  65.1379171  69.5382976  93.8903133  64.4676448  69.6499618
 103.2818373  73.7143438  86.6719185 102.3945152  73.3769360  86.7945584
 103.8516924  72.9826469  86.9087951  84.9347520  70.0467530  79.9962237
  85.6218560  69.7329260  79.4083252  84.7795649  70.9508894  79.7229488
  89.7382242  64.9357726  84.4247260  89.6540431  64.3283396  83.6897670
  88.9164949  65.4266745  84.4256757  96.8119527  78.3744890  83.6380428
  96.7389698  79.1799862  84.1499733  96.3696920  78.5736856  82.8128450
  96.6009306  77.6116660  77.1483250  95.8176828  78.1538341  77.2421474
  97.3002051  78.1290640  77.5477491  99.9105956  63.4211290  79.7917455
 100.4074656  62.6681252  79.4718526  99.1392938  63.4575606  79.2260665
 107.7635714  69.1251655  81.4335747 107.7525590  70.0076371  81.0629680
 106.8953093  68.7723206  81.2390284  99.2718210  78.2731724  85.7938587
  99.9846182  78.9079189  85.7214489  98.7808239  78.3695590  84.9778589
 100.9935737  72.1782977  77.3655879 100.0592016  72.2984439  77.1960583
 101.1712405  71.2755444  77.1015889  96.4940925  65.5628673  79.5189140
  96.1238713  65.0099713  80.2070046  96.9900017  64.9586806  78.9664140
 104.3808288  68.0200296  77.9005913 104.8468741  68.8528288  77.8266216
 104.8315789  67.5545278  78.6051171  94.3230124  76.0226168  86.6144158
  95.0239583  76.6562651  86.7673552  93.8525239  76.3640899  85.8539797
 102.4484519  74.3644118  74.8992065 102.7244363  74.2500712  75.8085939
 101.5789018  73.9661602  74.8604238 102.3524951  60.3880883  81.9396814
 101.4388031  60.6185110  82.1079021 102.7818053  60.4719327  82.7910847
 102.1231410  68.5770775  84.4396708 101.4702860  68.8246683  83.7849161
 102.5011789  67.7634913  84.1059186  99.0838583  78.6130468  78.5424879
  99.2660978  77.7952124  79.0052631  99.9071569  78.8298161  78.1049769
  99.4180749  77.5398654  75.8039927  99.9468515  77.0291108  75.1910089
  99.6808969  77.2241184  76.6685460  98.1718983  69.3190586  90.9262745
  97.4959620  69.2184716  91.5965121  98.9946616  69.1629800  91.3898743
  89.9197842  75.5562523  83.5475261  90.5051278  74.8106211  83.6803165
  89.7222680  75.8666480  84.4311924  92.7736497  78.5913770  78.5637703
  92.1046872  79.0759898  78.0801743  92.6349367  78.8382991  79.4781082
  84.5115496  68.1268123  82.2679704  84.5499596  67.5931714  83.0616822
  84.0055789  67.6003329  81.6490681  96.9141765  80.6257514  85.1620361
  97.4660073  80.7889135  85.9269447  97.2547959  81.2161952  84.4900386
  91.8906259  62.9732664  85.7642246  91.9547585  63.8347494  85.3519644
  91.8273379  62.3606665  85.0314605  91.3658531  65.0455796  89.4115280
  91.9930570  64.6632873  90.0252805  90.5086450  64.8269998  89.7770973
  88.1424074  66.8532225  75.3433635  88.4377515  65.9442904  75.2900689
  87.2412110  66.8319965  75.0214637 100.0510153  78.5739489  82.1484044
  99.9261292  77.7729229  81.6394989 100.7089244  79.0685683  81.6598013
  91.6718321  64.9288222  81.3261184  90.9504907  65.5424190  81.1868657
  92.4611577  65.4645987  81.2477830 102.1145061  76.3748509  83.7763594
 101.1675397  76.2553861  83.7041920 102.4627834  75.4871007  83.8589855
  94.4744634  62.2642648  87.6001835  94.9979036  62.5104945  88.3628145
  94.2556968  63.0962683  87.1804973  89.8711916  64.5346323  75.4672960
  89.5424622  63.6543702  75.2848066  90.2251286  64.4793992  76.3549350
  99.1191494  76.1701226  79.9767946  98.9716457  75.2417933  80.1575516
  99.9444988  76.1921316  79.4925021  92.9853739  64.8219293  75.8348438
  93.3249811  65.3505214  75.1127046  93.4325859  65.1599699  76.6107005
 102.7225616  76.9929784  81.0632819 103.6472164  76.7872646  80.9257270
 102.5540920  76.7446185  81.9722160  95.6797180  63.2056343  85.2851506
  95.3394000  62.4064156  85.6872186  94.9736186  63.5058054  84.7128339
  96.3313651  60.2905656  83.7378829  97.1539721  59.8166134  83.6157719
  96.5751715  61.0696140  84.2377515  94.9721886  63.3193914  74.0341731
  95.6930248  63.6975167  73.5305448  94.3487190  64.0382791  74.1376709
  99.1153009  64.0239063  74.9700063  99.3316623  64.9063701  74.6688891
  98.6347076  63.6325277  74.2405705  93.8552230  66.9824776  81.5470808
  93.7096811  67.2965080  82.4395089  93.3777434  67.6009677  80.9941706
  95.7148613  63.9727324  81.5951697  95.7010182  63.0768418  81.2583995
  96.4321041  63.9797988  82.2289983  97.5674744  64.4064665  83.6404825
  97.3092522  65.3281735  83.6389155  97.0359784  64.0095099  84.3305289
 102.5120932  77.5115452  76.4194910 102.6857810  76.9461874  75.6668762
 103.0049824  78.3116347  76.2374400  88.3297892  69.5230121  84.4858469
  87.7851360  70.2989929  84.6178743  89.2077242  69.8700925  84.3277590
  95.1185509  62.8541705  76.8639267  95.2401420  61.9258351  77.0630155
  94.8287551  62.8680391  75.9517583  97.9876699  60.5396615  80.0005987
  98.0098396  60.6035948  79.0457967  98.4044758  59.7001124  80.1946493
 103.4996105  76.8282216  73.5191808 104.1947010  77.4488909  73.7379123
 103.8419255  75.9777567  73.7944186  89.1163914  68.6500017  87.3788626
  88.3745650  68.7982652  87.9653256  88.7956658  68.9108283  86.5155375
 105.3987528  74.2781922  75.0479139 105.9238852  74.6169194  74.3228459
 105.3109881  73.3428937  74.8642274  97.0607577  78.1915995  87.1769016
  97.3694703  77.9465142  88.0491715  97.8583059  78.3962634  86.6887886
  97.0828189  80.3453905  79.4074392  96.6433179  79.8530284  80.1007249
  97.8336306  79.8026873  79.1666467  89.5620528  76.5365446  79.4099020
  90.3878548  76.2369218  79.0297664  89.2114580  75.7673068  79.8588809
  94.5302061  75.8891914  81.4796694  93.9082070  75.2262619  81.1798922
  95.2006928  75.9153046  80.7970342  87.7629133  74.4551772  80.3687954
  86.9261041  74.0273947  80.1871955  87.7352778  74.6484216  81.3058745
  94.6026588  64.3673702  91.0729200  94.6514744  65.2435825  90.6906970
  95.1449103  63.8251095  90.5000843 105.2079309  71.7607292  87.6663066
 105.2577314  71.5957299  88.6078588 105.0993233  70.8934551  87.2760946
  94.0915568  74.4395837  74.9555154  94.2403688  75.1231302  74.3021827
  94.8982011  74.4200927  75.4704610 102.4983072  67.7438220  88.9822372
 103.3992934  67.6044685  88.6906370 102.5731046  67.9092675  89.9220550
  96.8325877  65.1205075  87.8275559  95.9629186  65.4138641  87.5558147
  97.0685357  65.7045520  88.5482822 104.9584694  69.3036848  86.3785145
 105.4338816  69.4964494  85.5703996 104.0350260  69.3596034  86.1328529
  91.8468201  70.4661015  75.9616223  91.6014243  69.5623345  76.1596434
  92.0164115  70.4678166  75.0195701  99.5364911  61.3384691  85.3440979
 100.0546855  62.0745718  85.0187468  99.1820044  61.6448685  86.1787738
  91.1163848  66.1989373  73.4602385  90.4233093  66.2733728  72.8042421
  90.8715600  65.4349716  73.9823902  99.7877505  57.7584974  80.8641876
 100.0679259  57.0908163  81.4902302 100.5728112  57.9514070  80.3516539
  97.5910973  76.9343968  72.4266902  97.0184940  77.5534155  71.9737374
  98.1643767  77.4843330  72.9606824 103.6586363  66.1802608  84.6113451
 104.6103786  66.2800706  84.6325675 103.4889814  65.3880877  85.1211535
 101.6800743  63.2658191  84.7972852 101.0850675  63.5463204  84.1019340
 101.3950439  63.7552092  85.5689593 100.8108233  77.2181118  73.5575484
 101.7438906  77.1526680  73.7608360 100.7231446  78.0537385  73.0990017
 103.4396250  76.5346988  70.5179432 103.3609881  76.2006852  71.4115190
 104.2605917  77.0268756  70.5170904 106.1374441  69.4008728  83.7255750
 106.1050761  68.4624728  83.9115434 106.7475065  69.4792764  82.9921575
  97.9757772  68.2704781  69.7682954  98.9216877  68.1410989  69.8371372
  97.5972017  67.5319443  70.2452383 106.2868930  66.1919771  83.7714034
 105.7707978  65.4078228  83.5843962 107.1708878  65.8638488  83.9360553
 103.9479656  59.9360787  79.7309846 103.7504478  59.6275875  80.6153178
 104.5579362  60.6622426  79.8607776  97.8596464  72.3222527  91.2283611
  98.7799474  72.5001126  91.4223658  97.8246047  71.3778572  91.0763311
  96.1600689  66.1954757  69.7037840  95.2532144  65.8987870  69.7800553
  96.4376670  65.8984575  68.8372126  87.0778629  67.5161120  80.1536886
  86.7581414  66.6626429  79.8611260  86.5312058  67.7309699  80.9094853
  90.8558537  70.2323561  83.8706393  91.0744547  71.1640669  83.8894426
  91.2684311  69.8731536  84.6561196  97.7762755  60.7391647  75.8582081
  96.9663483  60.3938732  76.2337327  98.4647172  60.4299190  76.4469692
  99.7053303  59.8169694  77.4806378 100.2584342  60.2365147  78.1396401
  99.9423389  58.8905442  77.5229334  95.7286402  65.8056767  93.2609141
  95.6283129  66.7551124  93.1921233  95.5107944  65.4775006  92.3885212
  94.9299474  63.0541692  69.8449819  95.7918638  63.3796591  70.1045636
  95.1149818  62.2673188  69.3322885  86.9466889  71.1364032  82.1230008
  86.2530361  70.7217985  81.6099962  87.6939880  71.1784568  81.5263427
 103.0832110  61.9270219  76.9885042 102.5030779  62.5855023  76.6063094
 102.8168043  61.1047563  76.5772459 101.5335677  61.3275276  79.1906362
 102.0335455  61.4391811  78.3820681 102.1771284  61.0236329  79.8307171
  95.5917672  69.2353906  92.0774203  95.1084754  70.0354266  92.2838092
  95.6778611  69.2461851  91.1241647  88.8603632  71.0682286  79.9996022
  88.8374320  71.1669973  79.0477906  89.1704268  71.9147436  80.3213189
  91.5191010  73.1258441  84.1142637  92.4734263  73.0942383  84.0472568
  91.3203533  72.6649064  84.9292863  92.1090392  71.6959557  86.6813435
  92.9283281  72.1903635  86.7048272  92.3827200  70.7791525  86.6531002
 101.8656988  64.0870309  76.0441390 100.9782843  64.3719960  75.8261585
 102.2810977  63.9264072  75.1968667 105.2171524  64.1116830  79.7595729
 105.9931914  64.6013282  80.0320346 104.4919658  64.5374884  80.2167599
 107.6544083  64.8244449  80.8169670 108.2488574  64.5840185  80.1062978
 107.7270667  64.1051580  81.4443206  89.8741239  78.6678060  81.1312835
  89.7395707  77.9078461  80.5650833  89.4573301  79.3918960  80.6641624
 101.0100202  73.8514984  70.1389410 101.7136052  74.0564986  70.7547066
 100.2862850  74.4191746  70.4038494 101.8398012  69.6024845  76.2591680
 101.7833213  70.0593396  75.4199313 102.3926354  68.8415530  76.0814523
 105.6502818  65.3914577  77.0841800 105.3939752  64.9911213  77.9150007
 105.0255686  66.1058371  76.9591939  93.0310365  79.5647377  81.3431277
  92.9142749  80.5092810  81.2409968  92.2102811  79.2620939  81.7317077
 102.9186899  74.2897513  72.1887870 103.7532503  73.8578711  72.0065345
 102.7571242  74.1179527  73.1164765 102.5732791  70.7929626  73.5544209
 102.5181595  70.6273898  72.6132654 101.9478847  71.5005659  73.7106399
  87.3625306  66.0297691  87.3805632  88.0084170  65.5196645  87.8692857
  87.1542457  66.7666372  87.9549057  95.8828917  60.2937735  73.1329528
  95.8707587  61.2379575  73.2897799  96.7752339  60.1107881  72.8388989
  94.0564879  80.2175639  84.5587206  94.9592125  80.2499249  84.8753701
  93.8302249  79.2876090  84.5733542  95.8118481  78.9706626  81.2197284
  94.8614112  78.9708487  81.1061657  96.1150967  78.2239360  80.7033319
  99.6981036  56.8880512  77.3875465  98.9313432  56.3338999  77.5332147
 100.1091741  56.9602381  78.2489616  91.7022797  63.1765308  91.4780646
  92.5654259  62.8202113  91.6883970  91.1288208  62.8379203  92.1656050
 104.2147696  86.6130069  78.2101462 103.6512561  86.5220006  77.4417750
 104.1000091  85.7929973  78.6903955 103.7202882  87.3690173  73.9203062
 104.4933758  86.8219161  73.7815938 104.0728281  88.2334423  74.1317523
 106.0569160  83.5282840  71.5521512 106.3094680  83.0064361  70.7904975
 105.1193719  83.3648985  71.6548195 105.7765449  85.4310946  73.7545887
 105.6601707  84.7555849  74.4226971 105.8867708  84.9443319  72.9378040
 107.7602476  79.9210992  72.4553924 107.9276879  80.7891229  72.8224395
 107.5699646  80.0838274  71.5315214 103.9690291  84.8341768  80.1556459
 103.0440788  84.7017982  80.3634151 104.2174704  85.6135987  80.6526402
 107.7391697  82.3768650  73.4400591 107.6191323  82.8225701  74.2786071
 107.0444286  82.7253967  72.8814129 101.3299102  84.4775042  80.9900248
 101.4591483  84.7309521  81.9039660 100.6496553  85.0702750  80.6704903
 107.5974308  87.5690350  78.9244592 108.0612653  87.8478053  78.1349214
 107.3331106  86.6673794  78.7417682 106.5343194  83.6913502  75.7334157
 107.2367237  84.1434546  76.2008083 106.2023822  83.0497321  76.3614050
 100.2768528  81.9497055  81.0351291  99.4867582  82.2054583  80.5591401
 100.7679775  82.7645392  81.1403331 102.2283273  82.3141634  77.9934767
 101.4314436  82.4260328  78.5118263 102.0008865  82.6528286  77.1275658
  98.5606231  82.2027545  83.4666281  98.8114269  83.0874555  83.7323857
  99.0965779  82.0232147  82.6941373 107.7736958  90.5054445  75.8096262
 107.6382633  91.3505980  76.2381110 108.3146771  90.7073722  75.0462196
 101.2266356  88.0229883  76.3824187 101.7390876  88.8173133  76.5329752
 101.8789069  87.3256173  76.3157789 103.0361240  91.1395639  78.4646940
 103.2127869  92.0613604  78.2767924 103.8318074  90.8254058  78.8941320
  99.1915273  86.3518537  77.1583758 100.0290495  86.7615545  76.9417466
  99.3693540  85.4117979  77.1283952 106.4468848  76.4828391  81.3110571
 107.3121845  76.2871200  80.9516460 106.5146357  76.2538743  82.2379927
 104.0531167  78.7130599  78.6826937 104.6274919  78.4905781  77.9500130
 104.6402150  78.7819294  79.4355539 104.3800754  80.7435060  72.7022823
 103.5438067  81.0809747  73.0232097 104.2405524  80.6084040  71.7649960
 106.3553835  75.5871848  77.4102007 105.7018247  75.2720865  76.7858622
 106.3134309  74.9647589  78.1361830 107.4665040  85.8691143  69.3255299
 106.5592102  85.6380397  69.5246448 107.9636072  85.0728762  69.5129280
  99.2141444  83.6909252  77.8294491  99.0165843  83.0978613  77.1045558
  98.6588108  83.3861462  78.5470430 107.1938167  83.5832359  79.9489084
 107.2486777  82.6306195  79.8731561 106.3829369  83.7391798  80.4330383
 105.1330527  82.2009418  77.7079463 104.3198393  82.5003589  78.1144655
 105.6289521  81.8065107  78.4253945 104.6244602  79.7727774  83.3240698
 105.2643981  79.6316533  82.6263662 103.7922133  79.4862287  82.9479300
 105.4004906  89.0730204  79.4375691 106.1945504  88.5780524  79.2358266
 104.6896598  88.5448067  79.0743396 101.7087669  83.2173286  75.5135443
 100.7785257  83.1557742  75.7305405 101.8045141  82.6949239  74.7172085
 101.6273218  79.7428099  78.1013685 101.8880036  80.6573432  77.9922845
 102.4490391  79.2752541  78.2510298 104.2539135  80.5882288  69.9020729
 103.3768601  80.4671088  69.5382976 104.7296888  79.7968366  69.6499618
  95.7741275  85.3759447  79.9962237  96.4612315  85.0621177  79.4083252
  95.6189403  86.2800812  79.7229488 100.5775997  80.2649644  84.4247260
 100.4934186  79.6575314  83.6897670  99.7558703  80.7558662  84.4256757
 107.3334680  80.8920590  79.5189140 106.9632467  80.3391631  80.2070046
 107.8293772  80.2878724  78.9664140  95.3509251  83.4560041  82.2679704
  95.3893350  82.9223631  83.0616822  94.8449544  82.9295246  81.6490681
 102.7300013  78.3024581  85.7642246 102.7941340  79.1639412  85.3519644
 102.6667133  77.6898583  85.0314605  98.9817828  82.1824143  75.3433635
  99.2771270  81.2734821  75.2900689  98.0805864  82.1611882  75.0214637
 102.5112075  80.2580139  81.3261184 101.7898661  80.8716107  81.1868657
 103.3005331  80.7937904  81.2477830 100.7105670  79.8638241  75.4672960
 100.3818376  78.9835619  75.2848066 101.0645041  79.8085909  76.3549350
 103.8247493  80.1511210  75.8348438 104.1643566  80.6797132  75.1127046
 104.2719614  80.4891616  76.6107005 107.1707406  75.6197573  83.7378829
 107.9933475  75.1458052  83.6157719 107.4145469  76.3988057  84.2377515
 105.8115640  78.6485832  74.0341731 106.5324003  79.0267085  73.5305448
 105.1880944  79.3674709  74.1376709 104.6945985  82.3116694  81.5470808
 104.5490565  82.6256997  82.4395089 104.2171188  82.9301594  80.9941706
 106.5542367  79.3019242  81.5951697 106.5403936  78.4060335  81.2583995
 107.2714796  79.3089906  82.2289983 105.9579263  78.1833622  76.8639267
 106.0795175  77.2550269  77.0630155 105.6681306  78.1972308  75.9517583
 100.4014282  91.8657364  79.4099020 101.2272302  91.5661135  79.0297664
 100.0508334  91.0964986  79.8588809  98.6022887  89.7843690  80.3687954
  97.7654796  89.3565864  80.1871955  98.5746533  89.9776133  81.3058745
 104.9309322  89.7687755  74.9555154 105.0797443  90.4523219  74.3021827
 105.7375766  89.7492845  75.4704610 102.6861955  85.7952933  75.9616223
 102.4407997  84.8915263  76.1596434 102.8557870  85.7970083  75.0195701
 101.9557603  81.5281290  73.4602385 101.2626848  81.6025645  72.8042421
 101.7109355  80.7641634  73.9823902 106.9994444  81.5246675  69.7037840
 106.0925899  81.2279787  69.7800553 107.2770425  81.2276493  68.8372126
  97.9172384  82.8453038  80.1536886  97.5975168  81.9918346  79.8611260
  97.3705812  83.0601616  80.9094853 105.7693228  78.3833610  69.8449819
 106.6312392  78.7088508  70.1045636 105.9543572  77.5965106  69.3322885
  97.7860644  86.4655950  82.1230008  97.0924115  86.0509902  81.6099962
  98.5333635  86.5076486  81.5263427  99.6997386  86.3974203  79.9996022
  99.6768075  86.4961891  79.0477906 100.0098023  87.2439354  80.3213189
 106.7222671  75.6229653  73.1329528 106.7101341  76.5671493  73.2897799
 107.6146093  75.4399798  72.8388989  48.9416648  -1.7439780  67.9584231
  49.1813246  -1.1121256  68.6363250  48.0985844  -2.0951740  68.2449590
  60.8572679   2.3024520  64.9346769  60.2937545   2.2114457  64.1663057
  60.7425074   1.4824425  65.4149262  58.4037111   3.7975712  67.7730990
  59.1958403   3.4566537  67.3577289  58.6433762   3.9070687  68.6933143
  66.4372238   5.9695488  60.2461234  65.7860218   6.5549569  59.8595248
  67.2316601   6.5001683  60.3056272  60.3627865   3.0584625  60.6448368
  61.1358741   2.5113612  60.5061244  60.7153264   3.9228875  60.8562830
  62.2012908   4.3861008  73.8515268  61.9102774   5.2906638  73.7361934
  62.8369892   4.4277535  74.5659337  63.1269115   1.7637856  70.4416627
  63.7232687   1.5393879  69.7273590  63.1844086   1.0222602  71.0442075
  67.9147503   3.6585920  60.7830218  67.2793336   3.7320547  61.4951123
  67.5844910   4.2479519  60.1049298  62.4190432   1.1205397  60.4791193
  62.3026690   0.4450301  61.1472278  62.5292692   0.6337771  59.6623346
  67.1602793   4.0722423  70.8465061  66.8603516   4.9747462  70.7380869
  66.8153852   3.8054606  71.6986214  60.6115274   0.5236220  66.8801766
  59.6865771   0.3912434  67.0879458  60.8599688   1.3030439  67.3771708
  57.9724085   0.1669493  67.7145555  58.1016467   0.4203972  68.6284967
  57.2921537   0.7597201  67.3950210  62.1423573  10.8366743  63.8136029
  62.0647602  11.7874569  63.8924510  61.5385216  10.4912616  64.4710955
  62.8887175   0.8180062  76.0315363  63.6301859   1.3565106  75.7550187
  62.1824160   1.4446351  76.1886915  68.3642514   2.9609203  74.6287524
  68.7725870   2.5191613  73.8842157  67.6419776   2.3861830  74.8821717
  68.6871329   3.5210393  68.3839813  68.0580192   3.6856107  67.6815881
  68.2996991   3.9352003  69.1550777  72.5660561   4.4564831  65.7384177
  71.8811599   4.8363733  65.1881210  72.6504410   5.0660158  66.4716125
  64.2399291   3.2584801  65.6489898  64.7037637   3.5372504  64.8594521
  63.9756089   2.3568246  65.4662989  61.1323372   2.8056283  68.5869662
  61.7024729   3.2343551  67.9487146  61.7231484   2.5238868  69.2853847
  70.9357321   4.9796746  70.5101878  71.7574764   4.5776933  70.2284560
  70.9319723   4.8764980  71.4617994  64.7013924   4.5280789  72.6662588
  64.7658357   4.9901196  73.5020760  63.9924848   3.8978154  72.7944898
  55.2031214  -2.1078003  70.1911588  55.4539252  -1.2230993  70.4569164
  55.7390762  -2.2873402  69.4186680  64.4161942   6.1948896  62.5341569
  64.2807616   7.0400432  62.9626417  64.9571754   6.3968174  61.7707503
  57.8691339   3.7124334  63.1069494  58.3815860   4.5067585  63.2575059
  58.5214052   3.0150625  63.0403095  59.6786224   6.8290091  65.1892247
  59.8552852   7.7508055  65.0013231  60.4743057   6.5148510  65.6186627
  66.0430418   6.8172463  76.6641911  65.5994272   6.0308841  76.3462815
  66.7047632   7.0051613  75.9985802  60.8017539   8.3468264  71.1902589
  61.3524964   8.2185328  70.4179583  59.9629015   8.6463154  70.8397482
  68.1411656   7.0975263  74.6923312  68.1230131   7.9184144  74.2003581
  69.0631576   6.9729338  74.9173453  64.5984710   4.6119392  75.5346821
  65.1313047   3.8507681  75.3046129  64.0698791   4.3193044  76.2770975
  55.8340256   2.0412989  63.8829064  56.6715478   2.4509997  63.6662772
  56.0118524   1.1012431  63.8529258  65.9637423   3.7405385  63.0465633
  65.4358785   3.0058144  62.7338870  65.4624926   4.5180061  62.8005601
  64.1090023   1.5585595  56.0500606  63.2017085   1.3274849  56.2491755
  64.6061055   0.7623214  56.2374587  67.0158102  10.2683102  58.9697292
  66.3419801  10.5714799  59.5782250  67.4023924  11.0712183  58.6202749
  65.2878257   1.6598190  60.5724596  64.3789476   1.3757223  60.6697065
  65.3173340   2.0797268  59.7127903  70.5197524   5.2704779  64.3415763
  70.0659851   4.4295689  64.3980954  69.8891491   5.9066178  64.6790543
  68.9630463   7.1081276  65.2765581  69.2553438   7.6686333  64.5577947
  69.4729084   7.4009837  66.0318740  55.8566427  -0.6196296  64.5539798
  55.6590827  -1.2126935  63.8290864  55.3013091  -0.9244086  65.2715737
  64.9854344   3.2006934  57.9112674  64.5473774   2.4842793  57.4518312
  65.7264785   3.4283048  57.3497766  63.9264088   7.8861627  66.3659035
  63.8840267   8.1122474  65.4367567  64.8426787   7.6525002  66.5144836
  62.0429889   4.7624656  66.1620997  62.8370488   4.2674976  65.9603572
  61.3321582   4.2342519  65.7988703  66.8624734   7.1442752  70.5133365
  66.9161756   7.7133688  71.2811081  65.9939515   7.3144637  70.1487402
  69.0527497   3.7371101  77.0874030  68.9013003   3.5081653  76.1704114
  69.0432176   4.6941702  77.1005375  65.8212833   1.3103014  72.0720297
  66.7504893   1.4614173  71.8989264  65.4003863   1.3987035  71.2168943
  64.6201165   5.3353678  69.8418834  64.4812251   4.9672463  70.7144772
  63.8315761   5.8501318  69.6702792  65.2149317  10.4362775  61.1844371
  65.3901073   9.9650818  61.9989994  64.5282105  11.0628541  61.4125632
  66.1706380   4.7135281  67.2307672  65.8356213   4.6736051  68.1265322
  65.6710326   4.0479997  66.7578082  60.1450624   0.1202911  72.7560253
  60.0070422  -0.6116850  73.3571792  61.0555548   0.0311811  72.4744441
  70.7619704   6.7690224  75.1650512  70.7032250   6.0849444  74.4981095
  71.1639222   7.5109214  74.7131138  59.7810402  13.5852137  67.9584231
  60.0207001  14.2170662  68.6363250  58.9379599  13.2340177  68.2449590
  70.7637111   4.7329808  73.3964492  69.8763890   4.3955729  73.5190891
  71.3335662   4.0012839  73.6333257  52.4166258   1.0653899  66.7207543
  53.1037298   0.7515629  66.1328559  52.2614387   1.9695264  66.4474795
  64.2938264   9.3931260  70.3625735  64.2208436  10.1986231  70.8745040
  63.8515657   9.5923226  69.5373756  64.0828044   8.6303030  63.8728557
  63.2995566   9.1724710  63.9666781  64.7820789   9.1477010  64.2722798
  66.7536948   9.2918094  72.5183894  67.4664920   9.9265559  72.4459795
  66.2626976   9.3881960  71.7023896  68.4754475   3.1969347  64.0901185
  67.5410753   3.3170809  63.9205890  68.6531143   2.2941813  63.8261195
  61.8048861   7.0412537  73.3389465  62.5058321   7.6749020  73.4918859
  61.3343976   7.3827269  72.5785104  69.9303257   5.3830487  61.6237372
  70.2063101   5.2687082  62.5331246  69.0607756   4.9847972  61.5849545
  66.5657321   9.6316838  65.2670185  66.7479716   8.8138494  65.7297938
  67.3890307   9.8484530  64.8295075  66.8999487   8.5585023  62.5285234
  67.4287253   8.0477478  61.9155396  67.1627706   8.2427553  63.3930767
  57.4016579   6.5748892  70.2720567  57.9870016   5.8292580  70.4048471
  57.2041418   6.8852849  71.1557231  60.2555235   9.6100140  65.2883010
  59.5865610  10.0946267  64.8047050  60.1168104   9.8569360  66.2026388
  51.9934234  -0.8545507  68.9925010  52.0318334  -1.3881917  69.7862128
  51.4874527  -1.3810302  68.3735988  64.3960503  11.6443883  71.8865668
  64.9478811  11.8075505  72.6514753  64.7366697  12.2348321  71.2145693
  69.2471378   6.4705141  77.7414322  69.7911282   7.0835099  77.2469277
  68.6658222   7.0284719  78.2581335  67.5328891   9.5925859  68.8729350
  67.4080030   8.7915599  68.3640296  68.1907982  10.0872052  68.3843320
  69.5963799   7.3934879  70.5008900  68.6494134   7.2740230  70.4287227
  69.9446572   6.5057377  70.5835162  66.6010232   7.1887595  66.7013252
  66.4535195   6.2604303  66.8820822  67.4263726   7.2107686  66.2170328
  70.2044354   8.0116154  67.7878125  71.1290902   7.8059015  67.6502576
  70.0359657   7.7632555  68.6967467  69.9939670   8.5301821  63.1440217
  70.1676548   7.9648244  62.3914069  70.4868561   9.3302716  62.9619707
  55.8116630   0.5416490  71.2103775  55.2670098   1.3176298  71.3424050
  56.6895980   0.8887295  71.0522897  70.9814843   7.8468586  60.2437115
  71.6765747   8.4675278  60.4624430  71.3237993   6.9963937  60.5189493
  56.5982652  -0.3313613  74.1033932  55.8564388  -0.1830978  74.6898563
  56.2775396  -0.0705348  73.2400682  72.8806266   5.2968291  61.7724446
  73.4057590   5.6355564  61.0473766  72.7928618   4.3615307  61.5887580
  64.5426315   9.2102365  73.9014322  64.8513441   8.9651512  74.7737022
  65.3401797   9.4149003  73.4133193  64.5646927  11.3640275  66.1319699
  64.1251917  10.8716653  66.8252556  65.3155044  10.8213242  65.8911774
  57.0439266   7.5551815  66.1344327  57.8697285   7.2555587  65.7542971
  56.6933318   6.7859438  66.5834116  62.0120799   6.9078284  68.2042001
  61.3900808   6.2448989  67.9044228  62.6825666   6.9339416  67.5215648
  55.2447871   5.4738142  67.0933261  54.4079779   5.0460316  66.9117262
  55.2171516   5.6670585  68.0304052  72.5700172   5.9301195  77.0775644
  71.7795716   5.9125334  76.5380143  72.3333526   6.4689489  77.8324680
  61.5734306   5.4582207  61.6800461  61.7222426   6.1417671  61.0267134
  62.3800749   5.4387297  62.1949917  74.1916244   5.1990603  74.6350394
  73.9001052   5.5620583  75.4713855  73.5788375   4.4857611  74.4563726
  59.3286939   1.4847385  62.6861530  59.0832981   0.5809715  62.8841740
  59.4982853   1.4864535  61.7441008  65.0729711   7.9530337  59.1512209
  64.5003678   8.5720525  58.6982680  65.6462505   8.5029699  59.6852130
  68.2926971   8.2367488  60.2820791  69.2257644   8.1713049  60.4853666
  68.2050184   9.0723754  59.8235323  70.9214988   7.5533358  57.2424738
  70.8428619   7.2193222  58.1360496  71.7424654   8.0455126  57.2416211
  65.3415202   3.3408896  77.9528918  66.2618212   3.5187495  78.1468965
  65.3064785   2.3964942  77.8008617  54.5597367  -1.4652510  66.8782193
  54.2400152  -2.3187202  66.5856567  54.0130795  -1.2503932  67.6340160
  58.3377275   1.2509931  70.5951699  58.5563285   2.1827039  70.6139733
  58.7503049   0.8917905  71.3806503  54.4285627   2.1550401  68.8475314
  53.7349099   1.7404354  68.3345269  55.1758618   2.1970938  68.2508733
  63.0736410   0.2540276  78.8019510  62.5903492   1.0540636  79.0083399
  63.1597349   0.2648220  77.8486954  56.3422370   2.0868655  66.7241329
  56.3193058   2.1856343  65.7723212  56.6523006   2.9333806  67.0458495
  59.0009748   4.1444810  70.8387944  59.9553001   4.1128753  70.7717875
  58.8022271   3.6835434  71.6538169  59.5909130   2.7145926  73.4058741
  60.4102019   3.2090005  73.4293578  59.8645937   1.7977894  73.3776309
  57.3559976   9.6864430  67.8558141  57.2214444   8.9264831  67.2896139
  56.9392039  10.4105330  67.3886930  68.4918939   4.8701353  56.8634717
  69.1954790   5.0751356  57.4792372  67.7681588   5.4378115  57.1283800
  60.5129102  10.5833747  68.0676584  60.3961486  11.5279179  67.9655274
  59.6921549  10.2807308  68.4562383  70.4005637   5.3083883  58.9133177
  71.2351241   4.8765081  58.7310652  70.2389980   5.1365896  59.8410071
  67.3697436   4.1164908  79.6043079  68.2388596   4.2905560  79.2429714
  66.8904188   4.9359325  79.4818808  61.5383616  11.2362009  71.2832512
  62.4410863  11.2685619  71.5999007  61.3120986  10.3062460  71.2978848
  63.2937218   9.9892995  67.9442591  62.3432849   9.9894857  67.8306963
  63.5969705   9.2425730  67.4278626  79.0289912  15.8253534  69.0088353
  79.6668322  15.7060281  68.3051694  78.9110755  16.7734378  69.0676306
  75.8379618  15.7780962  68.9449878  75.4998130  15.6622026  68.0570413
  76.7069386  15.3772127  68.9250884  71.6966434  17.6316438  64.9346769
  71.1331299  17.5406375  64.1663057  71.5818829  16.8116343  65.4149262
  76.3199401  16.9315813  74.9036084  76.3088042  16.5368612  74.0316587
  76.4820041  16.1981886  75.4969855  69.2430866  19.1267630  67.7730990
  70.0352158  18.7858454  67.3577289  69.4827516  19.2362605  68.6933143
  77.2765993  21.2987406  60.2461234  76.6253972  21.8841486  59.8595248
  78.0710355  21.8293601  60.3056272  71.2021620  18.3876543  60.6448368
  71.9752496  17.8405530  60.5061244  71.5547019  19.2520792  60.8562830
  73.0406662  19.7152925  73.8515268  72.7496528  20.6198556  73.7361934
  73.6763647  19.7569453  74.5659337  73.9662869  17.0929774  70.4416627
  74.5626441  16.8685796  69.7273590  74.0237841  16.3514519  71.0442075
  73.5387898  14.5469209  58.2766818  73.7913418  14.0250730  57.5150281
  72.6012457  14.3835355  58.3793502  78.5831180  13.5504987  66.0841562
  79.3694270  13.1324411  65.7331979  78.8469885  14.4551080  66.2523210
  78.7541258  18.9877838  60.7830218  78.1187091  19.0612464  61.4951123
  78.4238664  19.5771437  60.1049298  83.9839608  13.4880221  66.9874540
  84.7164779  12.9179437  67.2212370  83.2278963  13.1001821  67.4281046
  73.2584186  16.4497315  60.4791193  73.1420444  15.7742218  61.1472278
  73.3686446  15.9629689  59.6623346  75.6015727  15.9107462  64.1837883
  75.2373934  15.3838083  64.8950804  76.4582843  15.5205931  64.0104368
  81.5065028   7.2001795  71.4469149  81.1748353   8.0697206  71.2230364
  80.9110641   6.8838079  72.1263179  75.2421214  10.9397362  59.1799231
  75.4095617  11.8077598  59.5469702  75.0518383  11.1024644  58.2560520
  77.9996547  19.4014341  70.8465061  77.6997271  20.3039380  70.7380869
  77.6547607  19.1346524  71.6986214  71.4509029  15.8528138  66.8801766
  70.5259525  15.7204352  67.0879458  71.6993442  16.6322357  67.3771708
  81.3993691  11.9196881  68.5262499  80.4910569  11.8512289  68.2321260
  81.3481287  12.3968826  69.3544324  75.2210435  13.3955019  60.1645898
  75.1010060  13.8412070  61.0031378  74.5263023  13.7440337  59.6059436
  68.8117840  15.4961411  67.7145555  68.9410221  15.7495890  68.6284967
  68.1315291  16.0889119  67.3950210  72.9817327  26.1658661  63.8136029
  72.9041357  27.1166486  63.8924510  72.3778971  25.8204534  64.4710955
  75.4734557  13.3386527  76.4697396  74.6967891  13.8980447  76.4600261
  76.1125120  13.8243310  76.9912266  83.2655338  10.1213319  70.3040373
  82.6229718  10.4145853  69.6580167  82.7610266  10.0066240  71.1093569
  80.9195501  13.8676493  60.9926232  81.8313357  14.1003879  60.8173929
  80.4105148  14.4513537  60.4301310  73.7280929  16.1471980  76.0315363
  74.4695614  16.6857024  75.7550187  73.0217915  16.7738269  76.1886915
  79.2036269  18.2901120  74.6287524  79.6119625  17.8483531  73.8842157
  78.4813530  17.7153748  74.8821717  75.5567339  13.2273727  72.0021081
  76.4028534  13.6513141  72.1455730  75.4965977  12.5707351  72.6959645
  79.5265084  18.8502311  68.3839813  78.8973946  19.0148025  67.6815881
  79.1390746  19.2643921  69.1550777  83.4054315  19.7856749  65.7384177
  82.7205354  20.1655650  65.1881210  83.4898165  20.3952076  66.4716125
  78.7066784  10.8878095  73.6602255  78.4627716  11.6420156  73.1236531
  78.9826715  11.2663443  74.4949502  80.6605247  17.4316708  72.3379521
  80.8722142  18.0748468  71.6613902  80.6134995  16.5979024  71.8701451
  78.2631476  10.0434529  69.2416093  77.4015955  10.3415782  69.5332830
  78.2893911  10.2604927  68.3097125  75.0793045  18.5876719  65.6489898
  75.5431391  18.8664422  64.8594521  74.8149844  17.6860164  65.4662989
  71.9717127  18.1348201  68.5869662  72.5418484  18.5635469  67.9487146
  72.5625238  17.8530785  69.2853847  74.0161932  14.7099871  62.4579464
  74.7185975  15.1620915  62.9253390  73.6842560  14.0683690  63.0859357
  72.4642293  13.3011628  76.8330673  71.8340954  13.9827909  77.0666070
  72.3578381  13.1894710  75.8883811  67.7587265  12.9683424  67.7596597
  66.9686319  13.2240953  67.2836708  68.2498513  13.7831762  67.8648638
  81.7751075  20.3088663  70.5101878  82.5968519  19.9068851  70.2284560
  81.7713478  20.2056897  71.4617994  69.7102011  13.3328003  64.7180074
  68.9133174  13.4446698  65.2363570  69.4827603  13.6714656  63.8520964
  75.5407678  19.8572707  72.6662588  75.6052111  20.3193114  73.5020760
  74.8318602  19.2270072  72.7944898  66.0424968  13.2213915  70.1911588
  66.2933007  14.1060924  70.4569164  66.5784517  13.0418516  69.4186680
  89.8657068  16.6527412  66.8586849  89.1120776  16.0834810  66.7030854
  90.0004609  16.6190076  67.8057484  75.2555696  21.5240814  62.5341569
  75.1201371  22.3692350  62.9626417  75.7965509  21.7260092  61.7707503
  71.7423036   7.6032394  79.1955924  71.3489981   7.0498592  79.8703568
  72.5589176   7.9142972  79.5862442  68.7085094  19.0416252  63.1069494
  69.2209614  19.8359502  63.2575059  69.3607806  18.3442543  63.0403095
  70.5179978  22.1582008  65.1892247  70.6946607  23.0799973  65.0013231
  71.3136812  21.8440428  65.6186627  74.6590997   9.0190273  76.7876181
  75.4000710   9.6197426  76.7080643  74.8908920   8.2767911  76.2294223
  69.8032335  14.2046640  75.0654410  69.6885850  13.3031898  75.3661509
  68.9476853  14.4510337  74.7139227  76.8824173  22.1464381  76.6641911
  76.4388027  21.3600759  76.3462815  77.5441386  22.3343531  75.9985802
  71.6411294  23.6760182  71.1902589  72.1918719  23.5477246  70.4179583
  70.8022770  23.9755071  70.8397482  78.9805411  22.4267181  74.6923312
  78.9623886  23.2476062  74.2003581  79.9025331  22.3021256  74.9173453
  75.4378465  19.9411310  75.5346821  75.9706802  19.1799598  75.3046129
  74.9092546  19.6484962  76.2770975  66.6734010  17.3704906  63.8829064
  67.5109232  17.7801915  63.6662772  66.8512278  16.4304349  63.8529258
  78.5698442  15.0379987  59.5712897  78.0545066  15.8084592  59.8101285
  78.2975751  14.3645123  60.1945959  76.1545553   9.8829688  64.6298136
  75.2987150   9.4936538  64.4503774  76.5672505   9.9621649  63.7697921
  77.6844700   7.4176031  69.0289696  77.1809496   7.3806166  68.2157501
  77.9775307   8.3268774  69.0886352  73.9287586   7.5014761  68.0355877
  74.7940583   7.3057570  67.6761767  73.9965095   7.2725113  68.9625234
  83.5432717  17.7912342  61.5066071  82.7662159  17.4523501  61.0621233
  84.2224198  17.7964965  60.8321036  78.3584746  12.9107079  61.3972679
  78.0534881  13.2253228  62.2482822  79.3115188  12.9888499  61.4400012
  76.8031177  19.0697302  63.0465633  76.2752539  18.3350062  62.7338870
  76.3018680  19.8471979  62.8005601  81.7824023  17.2646323  68.1632679
  81.1247698  17.9545584  68.2512807  82.5864423  17.6542755  68.5066665
  71.5349905   9.7316969  65.4072244  72.1093657   9.5092150  64.6745437
  72.1220887   9.8005663  66.1600845  80.5929482  15.6190696  66.2136621
  81.1061364  16.2520687  66.7158330  81.2430706  15.0191891  65.8479981
  71.8619492  11.7621430  59.4268129  71.0256804  12.0996116  59.7477404
  71.7224262  11.6270410  58.4895266  73.8372573   6.6058218  64.1347313
  73.1836985   6.2907235  63.5103928  73.7953047   5.9833958  64.8607136
  74.9483778  16.8877513  56.0500606  74.0410839  16.6566766  56.2491755
  75.4454810  16.0915132  56.2374587  77.8551857  25.5975020  58.9697292
  77.1813555  25.9006717  59.5782250  78.2417678  26.4004100  58.6202749
  77.0710313  13.0940151  68.4594961  76.1532875  13.3155098  68.3016649
  77.4870457  13.1686462  67.6006668  77.8545361  14.4931567  63.5897641
  78.6017180  15.0052964  63.2804763  78.1236950  14.1715620  64.4502035
  76.1272011  16.9890108  60.5724596  75.2183230  16.7049140  60.6697065
  76.1567095  17.4089186  59.7127903  81.3591278  20.5996697  64.3415763
  80.9053606  19.7587607  64.3980954  80.7285245  21.2358095  64.6790543
  80.3024198  11.5288683  65.5716431  79.5646955  11.0166069  65.9026673
  80.5550972  11.0889065  64.7599708  79.8024218  22.4373194  65.2765581
  80.0947192  22.9978251  64.5577947  80.3122838  22.7301755  66.0318740
  66.6960181  14.7095622  64.5539798  66.4984581  14.1164982  63.8290864
  66.1406845  14.4047832  65.2715737  74.6756905  14.6018728  66.6734391
  74.7305515  13.6492565  66.5976868  73.8648107  14.7578167  67.1575689
  75.8248099  18.5298851  57.9112674  75.3867529  17.8134710  57.4518312
  76.5658540  18.7574966  57.3497766  72.6149265  13.2195788  64.4324770
  71.8017131  13.5189959  64.8389962  73.1108259  12.8251477  65.1499252
  74.7657843  23.2153545  66.3659035  74.7234022  23.4414391  65.4367567
  75.6820542  22.9816919  66.5144836  78.2123477  13.6837612  73.2639664
  78.5672864  13.9109086  74.1234130  78.8595608  14.0155989  72.6416919
  83.9421214  16.8056048  63.9688993  83.8039112  16.9957644  63.0410182
  83.5857432  17.5675431  64.4257044  72.1063340  10.7914143  70.0486005
  72.7462719  10.6502903  69.3508968  71.2740870  10.5048657  69.6724607
  83.9690593  18.8732575  68.9800264  84.4027100  18.7807864  69.8283318
  84.6822174  18.8490076  68.3420280  72.8823644  20.0916574  66.1620997
  73.6764242  19.5966894  65.9603572  72.1715336  19.5634437  65.7988703
  77.7018488  22.4734669  70.5133365  77.7555510  23.0425606  71.2811081
  76.8333270  22.6436554  70.1487402  69.1906407  14.2359656  62.2380750
  68.2603995  14.1744111  62.4550712  69.2863879  13.7135608  61.4417391
  69.1091956  10.7614468  64.8258992  69.3698774  11.6759802  64.7168152
  69.9309129  10.2938911  64.9755604  70.5816882  12.1752226  71.9957816
  71.2539935  11.9669588  71.3470465  69.7546668  11.9774312  71.5563048
  84.8306143  18.9156276  71.5133150  85.0242033  19.8202086  71.7592425
  84.7306761  18.4563695  72.3471735  76.4842454   8.8014167  74.0123477
  75.8370369   9.5004116  73.9187953  77.2543469   9.2350310  74.3799725
  79.8921251  19.0663019  77.0874030  79.7406758  18.8373570  76.1704114
  79.8825931  20.0233620  77.1005375  76.6606588  16.6394931  72.0720297
  77.5898648  16.7906091  71.8989264  76.2397618  16.7278952  71.2168943
  75.4594920  20.6645596  69.8418834  75.3206005  20.2964380  70.7144772
  74.6709516  21.1793235  69.6702792  76.0543072  25.7654692  61.1844371
  76.2294827  25.2942736  61.9989994  75.3675860  26.3920459  61.4125632
  77.0100135  20.0427199  67.2307672  76.6749967  20.0027969  68.1265322
  76.5104081  19.3771914  66.7578082  70.9844379  15.4494829  72.7560253
  70.8464177  14.7175067  73.3571792  71.8949302  15.3603729  72.4744441
  79.9459326  17.3883233  57.5044732  79.3288497  16.6630061  57.4077785
  79.4775815  18.1492593  57.1611806  73.6126679  15.1614788  72.2443933
  74.3226298  14.5207980  72.2030551  73.5695988  15.4127683  73.1670114
  81.6013458  22.0982141  75.1650512  81.5426004  21.4141361  74.4981095
  82.0032977  22.8401131  74.7131138  72.3255613  12.1480006  74.0639572
  71.7892970  11.6970744  74.7161169  71.7372322  12.2825915  73.3210037
  70.6204157  28.9144055  67.9584231  70.8600755  29.5462579  68.6363250
  69.7773353  28.5632095  68.2449590  71.7357872  11.6068657  56.6266036
  70.8587339  11.4857458  56.2628283  72.2115625  10.8154736  56.3744925
  81.6030865  20.0621725  73.3964492  80.7157644  19.7247647  73.5190891
  82.1729416  19.3304756  73.6333257  63.2560013  16.3945817  66.7207543
  63.9431052  16.0807547  66.1328559  63.1008141  17.2987182  66.4474795
  68.0594735  11.2836014  71.1492567  67.9752923  10.6761683  70.4142977
  67.2377441  11.7745032  71.1502063  75.1332019  24.7223178  70.3625735
  75.0602190  25.5278149  70.8745040  74.6909412  24.9215143  69.5373756
  74.9221798  23.9594948  63.8728557  74.1389320  24.5016628  63.9666781
  75.6214544  24.4768927  64.2722798  78.2318449   9.7689577  66.5162762
  78.7287148   9.0159539  66.1963832  77.4605430   9.8053894  65.9505971
  86.0848206  15.4729943  68.1581054  86.0738082  16.3554658  67.7874987
  85.2165585  15.1201493  67.9635591  77.5930702  24.6210012  72.5183894
  78.3058675  25.2557476  72.4459795  77.1020731  24.7173878  71.7023896
  79.3148229  18.5261264  64.0901185  78.3804508  18.6462727  63.9205890
  79.4924898  17.6233731  63.8261195  74.8153417  11.9106960  66.2434447
  74.4451205  11.3578000  66.9315352  75.3112510  11.3065094  65.6909447
  82.7020781  14.3678584  64.6251220  83.1681233  15.2006575  64.5511522
  83.1528281  13.9023565  65.3296478  72.6442616  22.3704455  73.3389465
  73.3452075  23.0040938  73.4918859  72.1737731  22.7119187  72.5785104
  80.7697012  20.7122405  61.6237372  81.0456856  20.5978999  62.5331246
  79.9001510  20.3139890  61.5849545  80.6737443   6.7359171  68.6642121
  79.7600523   6.9663397  68.8324328  81.1030545   6.8197615  69.5156153
  80.4443902  14.9249063  71.1642015  79.7915352  15.1724970  70.5094468
  80.8224282  14.1113201  70.8304492  77.4051076  24.9608756  65.2670185
  77.5873470  24.1430412  65.7297938  78.2284062  25.1776448  64.8295075
  77.7393241  23.8876941  62.5285234  78.2681008  23.3769395  61.9155396
  78.0021461  23.5719471  63.3930767  76.4931475  15.6668874  77.6508052
  75.8172112  15.5663003  78.3210427  77.3159109  15.5108087  78.1144049
  68.2410334  21.9040810  70.2720567  68.8263771  21.1584498  70.4048471
  68.0435172  22.2144767  71.1557231  71.0948989  24.9392057  65.2883010
  70.4259364  25.4238185  64.8047050  70.9561859  25.1861278  66.2026388
  62.8327989  14.4746410  68.9925010  62.8712088  13.9410001  69.7862128
  62.3268281  13.9481616  68.3735988  75.2354258  26.9735801  71.8865668
  75.7872566  27.1367423  72.6514753  75.5760451  27.5640239  71.2145693
  70.2118751   9.3210951  72.4887553  70.2760077  10.1825782  72.0764950
  70.1485871   8.7084952  71.7559911  69.6871023  11.3934083  76.1360587
  70.3143062  11.0111161  76.7498111  68.8298942  11.1748285  76.5016279
  80.0865132  21.7997059  77.7414322  80.6305036  22.4127017  77.2469277
  79.5051977  22.3576637  78.2581335  66.4636566  13.2010512  62.0678942
  66.7590007  12.2921191  62.0145995  65.5624602  13.1798252  61.7459944
  78.3722645  24.9217777  68.8729350  78.2473784  24.1207516  68.3640296
  79.0301736  25.4163970  68.3843320  69.9930813  11.2766509  68.0506490
  69.2717399  11.8902477  67.9113964  70.7824069  11.8124274  67.9723136
  80.4357553  22.7226797  70.5008900  79.4887889  22.6032148  70.4287227
  80.7840326  21.8349295  70.5835162  72.7957127   8.6120936  74.3247142
  73.3191529   8.8583232  75.0873451  72.5769460   9.4440970  73.9050279
  68.1924408  10.8824610  62.1918267  67.8637114  10.0021989  62.0093373
  68.5463779  10.8272279  63.0794656  77.4403987  22.5179513  66.7013252
  77.2928949  21.5896220  66.8820822  78.2657480  22.5399604  66.2170328
  71.3066231  11.1697580  62.5593745  71.6462303  11.6983501  61.8372353
  71.7538351  11.5077986  63.3352311  81.0438109  23.3408072  67.7878125
  81.9684656  23.1350933  67.6502576  80.8753412  23.0924473  68.6967467
  74.0009672   9.5534631  72.0096813  73.6606492   8.7542444  72.4117493
  73.2948678   9.8536341  71.4373646  74.6526144   6.6383943  70.4624136
  75.4752213   6.1644421  70.3403026  74.8964207   7.4174427  70.9622822
  73.2934378   9.6672202  60.7587037  74.0142741  10.0453454  60.2550754
  72.6699682  10.3861078  60.8622015  77.4365501  10.3717350  61.6945370
  77.6529115  11.2541988  61.3934198  76.9559568   9.9803564  60.9651012
  72.1764722  13.3303064  68.2716114  72.0309303  13.6443367  69.1640396
  71.6989926  13.9487964  67.7187013  74.0361105  10.3205612  68.3197004
  74.0222674   9.4246705  67.9829302  74.7533533  10.3276275  68.9535290
  75.8887236  10.7542952  70.3650131  75.6305014  11.6760023  70.3634462
  75.3572276  10.3573386  71.0550595  80.8333425  23.8593739  63.1440217
  81.0070302  23.2940162  62.3914069  81.3262316  24.6594634  62.9619707
  66.6510385  15.8708408  71.2103775  66.1063853  16.6468216  71.3424050
  67.5289734  16.2179213  71.0522897  73.4398001   9.2019992  63.5884574
  73.5613912   8.2736638  63.7875461  73.1500044   9.2158678  62.6762889
  76.3089192   6.8874902  66.7251294  76.3310888   6.9514236  65.7703273
  76.7257251   6.0479411  66.9191800  86.6872816  16.6230162  64.7630516
  87.1303962  15.8737487  64.3649640  85.8099326  16.6140298  64.3804248
  81.8208597  23.1760503  60.2437115  82.5159502  23.7967196  60.4624430
  82.1631747  22.3255855  60.5189493  67.4376406  14.9978304  74.1033932
  66.6958142  15.1460940  74.6898563  67.1169151  15.2586570  73.2400682
  83.7200020  20.6260209  61.7724446  84.2451344  20.9647482  61.0473766
  83.6322373  19.6907224  61.5887580  75.3820069  24.5394283  73.9014322
  75.6907195  24.2943429  74.7737022  76.1795551  24.7440921  73.4133193
  75.4040681  26.6932192  66.1319699  74.9645671  26.2008571  66.8252556
  76.1548798  26.1505160  65.8911774  67.8833020  22.8843733  66.1344327
  68.7091040  22.5847505  65.7542971  67.5327072  22.1151356  66.5834116
  72.8514553  22.2370201  68.2042001  72.2294563  21.5740906  67.9044228
  73.5219420  22.2631333  67.5215648  66.0841625  20.8030060  67.0933261
  65.2473533  20.3752234  66.9117262  66.0565271  20.9962503  68.0304052
  72.9239081  10.7151989  77.7974507  72.9727236  11.5914112  77.4152276
  73.4661595  10.1729382  77.2246150  83.4093926  21.2593113  77.0775644
  82.6189470  21.2417251  76.5380143  83.1727281  21.7981406  77.8324680
  83.5291801  18.1085579  74.3908372  83.5789806  17.9435586  75.3323895
  83.4205725  17.2412838  74.0006253  72.4128060  20.7874125  61.6800461
  72.5616181  21.4709589  61.0267134  73.2194504  20.7679215  62.1949917
  80.8195564  14.0916507  75.7067679  81.7205427  13.9522972  75.4151677
  80.8943538  14.2570962  76.6465856  75.1538369  11.4683362  74.5520865
  74.2841679  11.7616928  74.2803454  75.3897850  12.0523807  75.2728129
  85.0309998  20.5282520  74.6350394  84.7394807  20.8912501  75.4713855
  84.4182130  19.8149529  74.4563726  86.2305681  18.0935400  67.1552964
  87.0652572  18.5325204  67.3190524  86.3664809  17.6174053  66.3361210
  83.2797187  15.6515135  73.1030452  83.7551308  15.8442781  72.2949303
  82.3562752  15.7074321  72.8573835  70.1680693  16.8139302  62.6861530
  69.9226735  15.9101632  62.8841740  70.3376608  16.8156453  61.7441008
  77.8577403   7.6862979  72.0686286  78.3759347   8.4224006  71.7432774
  77.5032536   7.9926972  72.9033045  69.4376341  12.5467660  60.1847691
  68.7445586  12.6212015  59.5287727  69.1928093  11.7828004  60.7069208
  75.9123466  23.2822255  59.1512209  75.3397433  23.9012442  58.6982680
  76.4856259  23.8321617  59.6852130  81.9798856  12.5280895  71.3358757
  82.9316278  12.6278993  71.3570981  81.8102306  11.7359164  71.8456842
  80.0013235   9.6136478  71.5218158  79.4063167   9.8941491  70.8264647
  79.7162932  10.1030379  72.2934899  79.1320725  23.5659405  60.2820791
  80.0651399  23.5004967  60.4853666  79.0443938  24.4015672  59.8235323
  81.7608742  22.8825276  57.2424738  81.6822374  22.5485139  58.1360496
  82.5818409  23.3747043  57.2416211  84.4586933  15.7487015  70.4501057
  84.4263253  14.8103016  70.6360741  85.0687557  15.8271052  69.7166882
  76.2970264  14.6183068  56.4928261  77.2429369  14.4889276  56.5616679
  75.9184509  13.8797730  56.9697689  84.6081422  12.5398058  70.4959340
  84.0920470  11.7556515  70.3089269  85.4921370  12.2116775  70.6605860
  90.2763483  16.8103022  69.5907094  91.0066872  16.5488310  70.1514797
  89.6670429  16.0731744  69.6309162  88.3578780  14.9510884  70.1881545
  87.6311944  14.8166849  69.5798037  87.9426067  15.2587713  70.9938263
  76.1808957  18.6700814  77.9528918  77.1011966  18.8479413  78.1468965
  76.1458540  17.7256859  77.8008617  74.4813181  12.5433044  56.4283146
  73.5744637  12.2466157  56.5045860  74.7589162  12.2462862  55.5617432
  65.3991122  13.8639408  66.8782193  65.0793906  13.0104716  66.5856567
  64.8524550  14.0787986  67.6340160  69.1771029  16.5801849  70.5951699
  69.3957039  17.5118956  70.6139733  69.5896803  16.2209823  71.3806503
  76.0975247   7.0869934  62.5827388  75.2875975   6.7417019  62.9582634
  76.7859664   6.7777478  63.1714999  74.0498895  12.1535054  79.9854448
  73.9495621  13.1029411  79.9166539  73.8320437  11.8253293  79.1130518
  73.2511966   9.4019979  56.5695125  74.1131130   9.7274878  56.8290943
  73.4362310   8.6151475  56.0568191  65.2679382  17.4842319  68.8475314
  64.5742853  17.0696272  68.3345269  66.0152373  17.5262856  68.2508733
  81.4044602   8.2748506  63.7130348  80.8243271   8.9333310  63.3308401
  81.1380535   7.4525851  63.3017766  79.8548169   7.6753564  65.9151669
  80.3547947   7.7870098  65.1065988  80.4983777   7.3714616  66.5552477
  73.9130165  15.5832193  78.8019510  73.4297246  16.3832553  79.0083399
  73.9991104  15.5940138  77.8486954  67.1816124  17.4160573  66.7241329
  67.1586812  17.5148260  65.7723212  67.4916761  18.2625724  67.0458495
  69.8403502  19.4736728  70.8387944  70.7946756  19.4420670  70.7717875
  69.6416026  19.0127352  71.6538169  70.4302884  18.0437844  73.4058741
  71.2495773  18.5381923  73.4293578  70.7039692  17.1269812  73.3776309
  80.1869480  10.4348596  62.7686697  79.2995335  10.7198247  62.5506891
  80.6023470  10.2742360  61.9213974  83.5384017  10.4595117  66.4841036
  84.3144407  10.9491570  66.7565653  82.8132151  10.8853171  66.9412905
  85.9756575  11.1722737  67.5414977  86.5701066  10.9318472  66.8308285
  86.0483159  10.4529867  68.1688513  68.1953731  25.0156347  67.8558141
  68.0608199  24.2556748  67.2896139  67.7785793  25.7397247  67.3886930
  79.3312694  20.1993271  56.8634717  80.0348544  20.4043273  57.4792372
  78.6075343  20.7670033  57.1283800  80.1610504  15.9503132  62.9836987
  80.1045706  16.4071684  62.1444619  80.7138847  15.1893817  62.8059830
  83.9715310  11.7392864  63.8087106  83.7152244  11.3389500  64.6395314
  83.3468178  12.4536658  63.6837246  88.2827648  14.4788937  66.3158398
  87.7227206  14.5482127  67.0889960  87.6771151  14.3029922  65.5957894
  71.3522857  25.9125664  68.0676584  71.2355241  26.8571097  67.9655274
  70.5315303  25.6099226  68.4562383  81.2399391  20.6375800  58.9133177
  82.0744995  20.2056999  58.7310652  81.0783734  20.4657814  59.8410071
  80.8945284  17.1407913  60.2789516  80.8394087  16.9752185  59.3377960
  80.2691339  17.8483946  60.4351706  65.6837798  12.3775978  74.1050938
  66.3296662  11.8674932  74.5938163  65.4754950  13.1144660  74.6794364
  78.2091191  19.4456825  79.6043079  79.0782350  19.6197478  79.2429714
  77.7297942  20.2651242  79.4818808  74.2041409   6.6416023  59.8574834
  74.1920079   7.5857862  60.0143105  75.0964831   6.4586168  59.5634296
  72.3777371  26.5653926  71.2832512  73.2804618  26.5977537  71.5999007
  72.1514741  25.6354377  71.2978848  74.1330973  25.3184913  67.9442591
  73.1826604  25.3186775  67.8306963  74.4363459  24.5717647  67.4278626
  70.0235289   9.5243595  78.2025952  70.8866751   9.1680400  78.4129277
  69.4500700   9.1857490  78.8901357  89.8683666  31.1545451  69.0088353
  90.5062076  31.0352199  68.3051694  89.7504509  32.1026295  69.0676306
  86.6773373  31.1072879  68.9449878  86.3391884  30.9913944  68.0570413
  87.5463141  30.7064044  68.9250884  82.5360188  32.9608356  64.9346769
  81.9725054  32.8698293  64.1663057  82.4212583  32.1408260  65.4149262
  87.1593156  32.2607731  74.9036084  87.1481796  31.8660529  74.0316587
  87.3213795  31.5273804  75.4969855  80.0824620  34.4559547  67.7730990
  80.8745912  34.1150372  67.3577289  80.3221270  34.5654522  68.6933143
  88.1159747  36.6279324  60.2461234  87.4647727  37.2133404  59.8595248
  88.9104110  37.1585518  60.3056272  82.0415374  33.7168461  60.6448368
  82.8146250  33.1697448  60.5061244  82.3940773  34.5812710  60.8562830
  83.8800417  35.0444843  73.8515268  83.5890283  35.9490474  73.7361934
  84.5157401  35.0861371  74.5659337  84.8056624  32.4221691  70.4416627
  85.4020196  32.1977714  69.7273590  84.8631595  31.6806437  71.0442075
  84.3781652  29.8761127  58.2766818  84.6307173  29.3542648  57.5150281
  83.4406211  29.7127272  58.3793502  89.4224935  28.8796905  66.0841562
  90.2088024  28.4616328  65.7331979  89.6863639  29.7842997  66.2523210
  89.5935012  34.3169755  60.7830218  88.9580845  34.3904382  61.4951123
  89.2632419  34.9063354  60.1049298  94.8233362  28.8172138  66.9874540
  95.5558534  28.2471355  67.2212370  94.0672718  28.4293739  67.4281046
  84.0977941  31.7789233  60.4791193  83.9814199  31.1034136  61.1472278
  84.2080201  31.2921607  59.6623346  86.4409482  31.2399380  64.1837883
  86.0767689  30.7130001  64.8950804  87.2976598  30.8497849  64.0104368
  92.3458782  22.5293712  71.4469149  92.0142107  23.3989123  71.2230364
  91.7504396  22.2129996  72.1263179  86.0814969  26.2689280  59.1799231
  86.2489371  27.1369516  59.5469702  85.8912138  26.4316561  58.2560520
  88.8390302  34.7306258  70.8465061  88.5391025  35.6331297  70.7380869
  88.4941361  34.4638442  71.6986214  82.2902783  31.1820055  66.8801766
  81.3653280  31.0496269  67.0879458  82.5387197  31.9614275  67.3771708
  92.2387446  27.2488799  68.5262499  91.3304323  27.1804207  68.2321260
  92.1875041  27.7260744  69.3544324  86.0604190  28.7246937  60.1645898
  85.9403815  29.1703988  61.0031378  85.3656778  29.0732255  59.6059436
  79.6511594  30.8253329  67.7145555  79.7803976  31.0787808  68.6284967
  78.9709046  31.4181037  67.3950210  83.8211082  41.4950579  63.8136029
  83.7435111  42.4458404  63.8924510  83.2172725  41.1496451  64.4710955
  86.3128311  28.6678444  76.4697396  85.5361646  29.2272364  76.4600261
  86.9518875  29.1535227  76.9912266  94.1049092  25.4505237  70.3040373
  93.4623472  25.7437770  69.6580167  93.6004021  25.3358157  71.1093569
  91.7589256  29.1968410  60.9926232  92.6707112  29.4295797  60.8173929
  91.2498903  29.7805454  60.4301310  84.5674684  31.4763898  76.0315363
  85.3089368  32.0148942  75.7550187  83.8611669  32.1030186  76.1886915
  90.0430023  33.6193038  74.6287524  90.4513379  33.1775449  73.8842157
  89.3207285  33.0445666  74.8821717  86.3961093  28.5565645  72.0021081
  87.2422289  28.9805058  72.1455730  86.3359731  27.8999269  72.6959645
  90.3658838  34.1794229  68.3839813  89.7367701  34.3439943  67.6815881
  89.9784500  34.5935838  69.1550777  94.2448070  35.1148667  65.7384177
  93.5599108  35.4947568  65.1881210  94.3291919  35.7243993  66.4716125
  89.5460539  26.2170013  73.6602255  89.3021471  26.9712074  73.1236531
  89.8220469  26.5955361  74.4949502  91.4999002  32.7608626  72.3379521
  91.7115897  33.4040385  71.6613902  91.4528750  31.9270942  71.8701451
  89.1025231  25.3726446  69.2416093  88.2409710  25.6707700  69.5332830
  89.1287665  25.5896845  68.3097125  85.9186800  33.9168637  65.6489898
  86.3825145  34.1956340  64.8594521  85.6543598  33.0152081  65.4662989
  82.8110881  33.4640118  68.5869662  83.3812238  33.8927387  67.9487146
  83.4018993  33.1822703  69.2853847  84.8555686  30.0391789  62.4579464
  85.5579729  30.4912833  62.9253390  84.5236315  29.3975608  63.0859357
  83.3036048  28.6303546  76.8330673  82.6734708  29.3119827  77.0666070
  83.1972135  28.5186627  75.8883811  78.5981020  28.2975342  67.7596597
  77.8080074  28.5532870  67.2836708  79.0892267  29.1123680  67.8648638
  92.6144830  35.6380581  70.5101878  93.4362273  35.2360768  70.2284560
  92.6107232  35.5348815  71.4617994  80.5495765  28.6619921  64.7180074
  79.7526929  28.7738615  65.2363570  80.3221358  29.0006573  63.8520964
  86.3801433  35.1864624  72.6662588  86.4445865  35.6485031  73.5020760
  85.6712357  34.5561989  72.7944898  76.8818723  28.5505832  70.1911588
  77.1326761  29.4352842  70.4569164  77.4178271  28.3710434  69.4186680
 100.7050823  31.9819329  66.8586849  99.9514531  31.4126728  66.7030854
 100.8398364  31.9481994  67.8057484  86.0949451  36.8532732  62.5341569
  85.9595125  37.6984267  62.9626417  86.6359263  37.0552009  61.7707503
  82.5816790  22.9324312  79.1955924  82.1883736  22.3790510  79.8703568
  83.3982931  23.2434890  79.5862442  79.5478848  34.3708170  63.1069494
  80.0603369  35.1651420  63.2575059  80.2001561  33.6734460  63.0403095
  81.3573733  37.4873926  65.1892247  81.5340361  38.4091891  65.0013231
  82.1530566  37.1732345  65.6186627  85.4984751  24.3482191  76.7876181
  86.2394465  24.9489344  76.7080643  85.7302674  23.6059828  76.2294223
  80.6426089  29.5338558  75.0654410  80.5279604  28.6323815  75.3661509
  79.7870607  29.7802255  74.7139227  87.7217927  37.4756298  76.6641911
  87.2781781  36.6892677  76.3462815  88.3835141  37.6635449  75.9985802
  82.4805048  39.0052100  71.1902589  83.0312473  38.8769163  70.4179583
  81.6416524  39.3046989  70.8397482  89.8199165  37.7559098  74.6923312
  89.8017640  38.5767979  74.2003581  90.7419085  37.6313173  74.9173453
  86.2772219  35.2703228  75.5346821  86.8100556  34.5091516  75.3046129
  85.7486300  34.9776879  76.2770975  89.4441914  20.3763294  71.0640462
  89.1006184  21.2664935  70.9879573  89.8120877  20.1864951  70.2010047
  77.5127765  32.6996824  63.8829064  78.3502987  33.1093832  63.6662772
  77.6906033  31.7596266  63.8529258  89.4092197  30.3671905  59.5712897
  88.8938820  31.1376509  59.8101285  89.1369505  29.6937041  60.1945959
  86.9939308  25.2121606  64.6298136  86.1380904  24.8228456  64.4503774
  87.4066260  25.2913566  63.7697921  88.5238455  22.7467949  69.0289696
  88.0203250  22.7098084  68.2157501  88.8169061  23.6560692  69.0886352
  84.7681340  22.8306679  68.0355877  85.6334337  22.6349487  67.6761767
  84.8358849  22.6017030  68.9625234  94.3826471  33.1204259  61.5066071
  93.6055914  32.7815419  61.0621233  95.0617952  33.1256883  60.8321036
  89.1978500  28.2398997  61.3972679  88.8928636  28.5545146  62.2482822
  90.1508942  28.3180417  61.4400012  87.6424932  34.3989220  63.0465633
  87.1146294  33.6641980  62.7338870  87.1412435  35.1763896  62.8005601
  92.6217778  32.5938241  68.1632679  91.9641452  33.2837502  68.2512807
  93.4258177  32.9834673  68.5066665  82.3743660  25.0608886  65.4072244
  82.9487411  24.8384068  64.6745437  82.9614642  25.1297581  66.1600845
  91.4323237  30.9482613  66.2136621  91.9455119  31.5812605  66.7158330
  92.0824461  30.3483809  65.8479981  82.7013247  27.0913347  59.4268129
  81.8650559  27.4288034  59.7477404  82.5618016  26.9562327  58.4895266
  84.6766327  21.9350135  64.1347313  84.0230740  21.6199153  63.5103928
  84.6346801  21.3125876  64.8607136  85.7877532  32.2169430  56.0500606
  84.8804594  31.9858684  56.2491755  86.2848564  31.4207050  56.2374587
  88.6945611  40.9266938  58.9697292  88.0207310  41.2298634  59.5782250
  89.0811433  41.7296018  58.6202749  87.9104068  28.4232069  68.4594961
  86.9926629  28.6447016  68.3016649  88.3264211  28.4978379  67.6006668
  88.6939115  29.8223485  63.5897641  89.4410934  30.3344882  63.2804763
  88.9630705  29.5007537  64.4502035  86.9665766  32.3182025  60.5724596
  86.0576985  32.0341058  60.6697065  86.9960849  32.7381104  59.7127903
  92.1985033  35.9288615  64.3415763  91.7447360  35.0879525  64.3980954
  91.5679000  36.5650013  64.6790543  91.1417953  26.8580601  65.5716431
  90.4040709  26.3457987  65.9026673  91.3944726  26.4180982  64.7599708
  90.6417972  37.7665111  65.2765581  90.9340947  38.3270169  64.5577947
  91.1516593  38.0593672  66.0318740  91.2429580  19.6356853  66.1658200
  91.5488457  18.7754216  65.8784115  91.9682185  20.2274473  65.9657194
  77.5353936  30.0387539  64.5539798  77.3378336  29.4456900  63.8290864
  76.9800600  29.7339750  65.2715737  85.5150660  29.9310646  66.6734391
  85.5699269  28.9784482  66.5976868  84.7041862  30.0870085  67.1575689
  86.6641853  33.8590769  57.9112674  86.2261283  33.1426628  57.4518312
  87.4052294  34.0866884  57.3497766  83.4543020  28.5487706  64.4324770
  82.6410885  28.8481876  64.8389962  83.9502014  28.1543394  65.1499252
  85.6051597  38.5445463  66.3659035  85.5627776  38.7706309  65.4367567
  86.5214296  38.3108837  66.5144836  89.0517231  29.0129530  73.2639664
  89.4066619  29.2401003  74.1234130  89.6989362  29.3447907  72.6416919
  94.7814968  32.1347966  63.9688993  94.6432867  32.3249562  63.0410182
  94.4251187  32.8967349  64.4257044  82.9457094  26.1206061  70.0486005
  83.5856474  25.9794820  69.3508968  82.1134625  25.8340575  69.6724607
  94.8084348  34.2024493  68.9800264  95.2420854  34.1099782  69.8283318
  95.5215928  34.1781993  68.3420280  83.7217398  35.4208492  66.1620997
  84.5157997  34.9258812  65.9603572  83.0109091  34.8926355  65.7988703
  88.5412243  37.8026587  70.5133365  88.5949265  38.3717523  71.2811081
  87.6727024  37.9728472  70.1487402  80.0300162  29.5651573  62.2380750
  79.0997750  29.5036029  62.4550712  80.1257634  29.0427526  61.4417391
  79.9485711  26.0906386  64.8258992  80.2092528  27.0051719  64.7168152
  80.7702883  25.6230829  64.9755604  81.4210636  27.5044143  71.9957816
  82.0933689  27.2961505  71.3470465  80.5940423  27.3066229  71.5563048
  95.6699897  34.2448194  71.5133150  95.8635787  35.1494004  71.7592425
  95.5700515  33.7855613  72.3471735  87.3236208  24.1306084  74.0123477
  86.6764123  24.8296034  73.9187953  88.0937223  24.5642228  74.3799725
  90.7315006  34.3954936  77.0874030  90.5800512  34.1665488  76.1704114
  90.7219685  35.3525538  77.1005375  87.5000342  31.9686849  72.0720297
  88.4292402  32.1198009  71.8989264  87.0791372  32.0570870  71.2168943
  86.2988674  35.9937514  69.8418834  86.1599760  35.6256298  70.7144772
  85.5103270  36.5085153  69.6702792  86.8936826  41.0946610  61.1844371
  87.0688582  40.6234653  61.9989994  86.2069614  41.7212376  61.4125632
  87.8493889  35.3719116  67.2307672  87.5143722  35.3319886  68.1265322
  87.3497835  34.7063832  66.7578082  81.8238133  30.7786746  72.7560253
  81.6857931  30.0466985  73.3571792  82.7343057  30.6895646  72.4744441
  90.7853081  32.7175151  57.5044732  90.1682252  31.9921979  57.4077785
  90.3169569  33.4784511  57.1611806  84.4520434  30.4906706  72.2443933
  85.1620052  29.8499898  72.2030551  84.4089742  30.7419600  73.1670114
  92.4407213  37.4274059  75.1650512  92.3819759  36.7433279  74.4981095
  92.8426731  38.1693049  74.7131138  83.1649368  27.4771923  74.0639572
  82.6286725  27.0262662  74.7161169  82.5766076  27.6117832  73.3210037
  81.4597911  44.2435973  67.9584231  81.6994510  44.8754497  68.6363250
  80.6167108  43.8924013  68.2449590  82.5751627  26.9360575  56.6266036
  81.6981093  26.8149376  56.2628283  83.0509380  26.1446653  56.3744925
  92.4424620  35.3913643  73.3964492  91.5551399  35.0539565  73.5190891
  93.0123171  34.6596674  73.6333257  74.0953767  31.7237735  66.7207543
  74.7824807  31.4099465  66.1328559  73.9401896  32.6279099  66.4474795
  78.8988489  26.6127931  71.1492567  78.8146678  26.0053601  70.4142977
  78.0771196  27.1036950  71.1502063  85.9725773  40.0515095  70.3625735
  85.8995945  40.8570067  70.8745040  85.5303166  40.2507061  69.5373756
  89.0712203  25.0981495  66.5162762  89.5680903  24.3451457  66.1963832
  88.2999185  25.1345811  65.9505971  96.9241960  30.8021860  68.1581054
  96.9131837  31.6846576  67.7874987  96.0559340  30.4493411  67.9635591
  88.4324457  39.9501929  72.5183894  89.1452429  40.5849394  72.4459795
  87.9414485  40.0465795  71.7023896  90.1541984  33.8553182  64.0901185
  89.2198262  33.9754644  63.9205890  90.3318652  32.9525649  63.8261195
  85.6547172  27.2398878  66.2434447  85.2844959  26.6869918  66.9315352
  86.1506264  26.6357011  65.6909447  93.5414535  29.6970501  64.6251220
  94.0074987  30.5298493  64.5511522  93.9922036  29.2315483  65.3296478
  83.4836370  37.6996373  73.3389465  84.1845830  38.3332856  73.4918859
  83.0131485  38.0411104  72.5785104  91.6090766  36.0414323  61.6237372
  91.8850610  35.9270917  62.5331246  90.7395265  35.6431807  61.5849545
  91.5131198  22.0651088  68.6642121  90.5994278  22.2955315  68.8324328
  91.9424299  22.1489532  69.5156153  91.2837656  30.2540980  71.1642015
  90.6309107  30.5016888  70.5094468  91.6618036  29.4405118  70.8304492
  88.2444830  40.2900673  65.2670185  88.4267225  39.4722329  65.7297938
  89.0677816  40.5068366  64.8295075  88.5786996  39.2168858  62.5285234
  89.1074762  38.7061313  61.9155396  88.8415215  38.9011389  63.3930767
  87.3325229  30.9960791  77.6508052  86.6565866  30.8954921  78.3210427
  88.1552863  30.8400005  78.1144049  79.0804088  37.2332728  70.2720567
  79.6657525  36.4876416  70.4048471  78.8828927  37.5436684  71.1557231
  81.9342744  40.2683975  65.2883010  81.2653119  40.7530103  64.8047050
  81.7955613  40.5153196  66.2026388  73.6721743  29.8038328  68.9925010
  73.7105843  29.2701919  69.7862128  73.1662036  29.2773534  68.3735988
  86.0748012  42.3027719  71.8865668  86.6266320  42.4659340  72.6514753
  86.4154206  42.8932157  71.2145693  81.0512505  24.6502868  72.4887553
  81.1153832  25.5117699  72.0764950  80.9879626  24.0376870  71.7559911
  80.5264778  26.7226001  76.1360587  81.1536817  26.3403078  76.7498111
  79.6692697  26.5040203  76.5016279  90.9258887  37.1288976  77.7414322
  91.4698791  37.7418934  77.2469277  90.3445731  37.6868555  78.2581335
  77.3030321  28.5302430  62.0678942  77.5983762  27.6213109  62.0145995
  76.4018356  28.5090170  61.7459944  89.2116399  40.2509694  68.8729350
  89.0867539  39.4499434  68.3640296  89.8695491  40.7455888  68.3843320
  80.8324568  26.6058427  68.0506490  80.1111153  27.2194394  67.9113964
  81.6217823  27.1416192  67.9723136  91.2751308  38.0518714  70.5008900
  90.3281643  37.9324065  70.4287227  91.6234081  37.1641212  70.5835162
  83.6350881  23.9412853  74.3247142  84.1585283  24.1875150  75.0873451
  83.4163215  24.7732888  73.9050279  79.0318162  26.2116528  62.1918267
  78.7030868  25.3313907  62.0093373  79.3857533  26.1564196  63.0794656
  88.2797741  37.8471431  66.7013252  88.1322704  36.9188138  66.8820822
  89.1051235  37.8691521  66.2170328  82.1459985  26.4989498  62.5593745
  82.4856058  27.0275419  61.8372353  82.5932106  26.8369904  63.3352311
  91.8831863  38.6699989  67.7878125  92.8078410  38.4642851  67.6502576
  91.7147166  38.4216390  68.6967467  84.8403426  24.8826548  72.0096813
  84.5000247  24.0834361  72.4117493  84.1342433  25.1828259  71.4373646
  85.4919898  21.9675861  70.4624136  86.3145967  21.4936339  70.3403026
  85.7357962  22.7466345  70.9622822  84.1328133  24.9964119  60.7587037
  84.8536495  25.3745372  60.2550754  83.5093437  25.7152996  60.8622015
  88.2759255  25.7009268  61.6945370  88.4922870  26.5833906  61.3934198
  87.7953323  25.3095482  60.9651012  83.0158477  28.6594981  68.2716114
  82.8703058  28.9735284  69.1640396  82.5383681  29.2779882  67.7187013
  84.8754860  25.6497529  68.3197004  84.8616429  24.7538623  67.9829302
  85.5927288  25.6568193  68.9535290  86.7280990  26.0834870  70.3650131
  86.4698768  27.0051940  70.3634462  86.1966031  25.6865304  71.0550595
  91.6727179  39.1885657  63.1440217  91.8464057  38.6232079  62.3914069
  92.1656070  39.9886552  62.9619707  77.4904139  31.2000326  71.2103775
  76.9457607  31.9760134  71.3424050  78.3683489  31.5471130  71.0522897
  84.2791756  24.5311910  63.5884574  84.4007667  23.6028556  63.7875461
  83.9893798  24.5450596  62.6762889  87.1482946  22.2166820  66.7251294
  87.1704643  22.2806153  65.7703273  87.5651005  21.3771329  66.9191800
  97.5266570  31.9522080  64.7630516  97.9697716  31.2029405  64.3649640
  96.6493081  31.9432216  64.3804248  92.6602352  38.5052421  60.2437115
  93.3553256  39.1259114  60.4624430  93.0025502  37.6547772  60.5189493
  78.2770161  30.3270222  74.1033932  77.5351897  30.4752857  74.6898563
  77.9562905  30.5878488  73.2400682  94.5593775  35.9552127  61.7724446
  95.0845099  36.2939399  61.0473766  94.4716127  35.0199142  61.5887580
  86.2213824  39.8686200  73.9014322  86.5300950  39.6235347  74.7737022
  87.0189306  40.0732839  73.4133193  86.2434436  42.0224110  66.1319699
  85.8039426  41.5300489  66.8252556  86.9942553  41.4797078  65.8911774
  78.7226775  38.2135651  66.1344327  79.5484794  37.9139423  65.7542971
  78.3720827  37.4443273  66.5834116  83.6908308  37.5662119  68.2042001
  83.0688317  36.9032824  67.9044228  84.3613175  37.5923251  67.5215648
  76.9235380  36.1321977  67.0933261  76.0867288  35.7044152  66.9117262
  76.8959025  36.3254421  68.0304052  83.7632835  26.0443907  77.7974507
  83.8120991  26.9206030  77.4152276  84.3055349  25.5021300  77.2246150
  94.2487681  36.5885030  77.0775644  93.4583225  36.5709169  76.5380143
  94.0121035  37.1273324  77.8324680  94.3685556  33.4377497  74.3908372
  94.4183561  33.2727504  75.3323895  94.2599479  32.5704756  74.0006253
  83.2521815  36.1166042  61.6800461  83.4009935  36.8001507  61.0267134
  84.0588258  36.0971132  62.1949917  91.6589318  29.4208425  75.7067679
  92.5599181  29.2814890  75.4151677  91.7337293  29.5862880  76.6465856
  85.9932124  26.7975279  74.5520865  85.1235433  27.0908845  74.2803454
  86.2291604  27.3815724  75.2728129  95.8703753  35.8574438  74.6350394
  95.5788561  36.2204419  75.4713855  95.2575884  35.1441446  74.4563726
  97.0699435  33.4227318  67.1552964  97.9046326  33.8617122  67.3190524
  97.2058564  32.9465971  66.3361210  94.1190941  30.9807053  73.1030452
  94.5945063  31.1734699  72.2949303  93.1956506  31.0366239  72.8573835
  81.0074448  32.1431220  62.6861530  80.7620490  31.2393550  62.8841740
  81.1770362  32.1448370  61.7441008  88.6971158  23.0154896  72.0686286
  89.2153101  23.7515923  71.7432774  88.3426290  23.3218890  72.9033045
  80.2770095  27.8759578  60.1847691  79.5839340  27.9503933  59.5287727
  80.0321847  27.1119921  60.7069208  88.9483752  19.4355179  67.5887182
  89.2285505  18.7678368  68.2147609  89.7334359  19.6284275  67.0761846
  86.7517220  38.6114173  59.1512209  86.1791187  39.2304360  58.6982680
  87.3250014  39.1613534  59.6852130  92.8192610  27.8572813  71.3358757
  93.7710033  27.9570911  71.3570981  92.6496060  27.0651081  71.8456842
  90.8406989  24.9428396  71.5218158  90.2456922  25.2233409  70.8264647
  90.5556686  25.4322297  72.2934899  89.9714480  38.8951323  60.2820791
  90.9045153  38.8296885  60.4853666  89.8837693  39.7307590  59.8235323
  92.6002497  38.2117193  57.2424738  92.5216128  37.8777057  58.1360496
  93.4212163  38.7038961  57.2416211  95.2980688  31.0778933  70.4501057
  95.2657008  30.1394933  70.6360741  95.9081311  31.1562969  69.7166882
  87.1364019  29.9474986  56.4928261  88.0823123  29.8181194  56.5616679
  86.7578264  29.2089647  56.9697689  95.4475176  27.8689976  70.4959340
  94.9314225  27.0848433  70.3089269  96.3315125  27.5408693  70.6605860
  93.1085903  21.6130992  66.4555153  92.9110724  21.3046080  67.3398485
  93.7185609  22.3392630  66.5853083 101.1157238  32.1394939  69.5907094
 101.8460626  31.8780228  70.1514797 100.5064183  31.4023661  69.6309162
  99.1972535  30.2802802  70.1881545  98.4705698  30.1458767  69.5798037
  98.7819822  30.5879631  70.9938263  87.0202711  33.9992732  77.9528918
  87.9405721  34.1771331  78.1468965  86.9852294  33.0548777  77.8008617
  85.3206936  27.8724962  56.4283146  84.4138391  27.5758075  56.5045860
  85.5982917  27.5754780  55.5617432  76.2384876  29.1931325  66.8782193
  75.9187661  28.3396634  66.5856567  75.6918304  29.4079903  67.6340160
  80.0164784  31.9093766  70.5951699  80.2350794  32.8410874  70.6139733
  80.4290558  31.5501741  71.3806503  86.9369002  22.4161852  62.5827388
  86.1269730  22.0708937  62.9582634  87.6253418  22.1069395  63.1714999
  88.8659550  21.4939898  64.2051684  89.4190588  21.9135352  64.8641707
  89.1029636  20.5675647  64.2474640  84.8892649  27.4826972  79.9854448
  84.7889376  28.4321329  79.9166539  84.6714191  27.1545211  79.1130518
  84.0905720  24.7311897  56.5695125  84.9524884  25.0566795  56.8290943
  84.2756065  23.9443393  56.0568191  76.1073136  32.8134237  68.8475314
  75.4136608  32.3988190  68.3345269  76.8546127  32.8554773  68.2508733
  92.2438357  23.6040424  63.7130348  91.6637026  24.2625228  63.3308401
  91.9774290  22.7817768  63.3017766  90.6941923  23.0045481  65.9151669
  91.1941702  23.1162016  65.1065988  91.3377531  22.7006534  66.5552477
  84.7523919  30.9124111  78.8019510  84.2691001  31.7124471  79.0083399
  84.8384858  30.9232056  77.8486954  78.0209879  32.7452491  66.7241329
  77.9980567  32.8440178  65.7723212  78.3310515  33.5917641  67.0458495
  80.6797257  34.8028646  70.8387944  81.6340510  34.7712588  70.7717875
  80.4809780  34.3419269  71.6538169  81.2696639  33.3729762  73.4058741
  82.0889528  33.8673840  73.4293578  81.5433446  32.4561730  73.3776309
  91.0263235  25.7640514  62.7686697  90.1389090  26.0490165  62.5506891
  91.4417224  25.6034277  61.9213974  94.3777771  25.7887035  66.4841036
  95.1538161  26.2783487  66.7565653  93.6525905  26.2145089  66.9412905
  96.8150330  26.5014654  67.5414977  97.4094821  26.2610390  66.8308285
  96.8876913  25.7821785  68.1688513  79.0347485  40.3448265  67.8558141
  78.9001953  39.5848666  67.2896139  78.6179548  41.0689165  67.3886930
  90.1706448  35.5285189  56.8634717  90.8742299  35.7335191  57.4792372
  89.4469097  36.0961951  57.1283800  91.0004259  31.2795050  62.9836987
  90.9439460  31.7363601  62.1444619  91.5532601  30.5185735  62.8059830
  94.8109065  27.0684782  63.8087106  94.5545999  26.6681417  64.6395314
  94.1861933  27.7828576  63.6837246  99.1221402  29.8080855  66.3158398
  98.5620960  29.8774044  67.0889960  98.5164906  29.6321840  65.5957894
  82.1916611  41.2417582  68.0676584  82.0748995  42.1863015  67.9655274
  81.3709058  40.9391144  68.4562383  92.0793146  35.9667718  58.9133177
  92.9138750  35.5348916  58.7310652  91.9177489  35.7949732  59.8410071
  91.7339038  32.4699831  60.2789516  91.6787842  32.3044103  59.3377960
  91.1085093  33.1775864  60.4351706  76.5231553  27.7067896  74.1050938
  77.1690417  27.1966850  74.5938163  76.3148704  28.4436577  74.6794364
  89.0484945  34.7748743  79.6043079  89.9176105  34.9489395  79.2429714
  88.5691697  35.5943160  79.4818808  85.0435163  21.9707940  59.8574834
  85.0313833  22.9149780  60.0143105  85.9358585  21.7878086  59.5634296
  83.2171125  41.8945844  71.2832512  84.1198372  41.9269454  71.5999007
  82.9908495  40.9646295  71.2978848  84.9724727  40.6476831  67.9442591
  84.0220358  40.6478692  67.8306963  85.2757214  39.9009565  67.4278626
  88.8587283  18.5650717  64.1120771  88.0919679  18.0109204  64.2577454
  89.2697988  18.6372586  64.9734923  80.8629044  24.8535513  78.2025952
  81.7260506  24.4972317  78.4129277  80.2894455  24.5149407  78.8901357
 100.7077421  46.4837369  69.0088353 101.3455831  46.3644116  68.3051694
 100.5898264  47.4318213  69.0676306  97.5167127  46.4364797  68.9449878
  97.1785639  46.3205862  68.0570413  98.3856895  46.0355962  68.9250884
  93.3753943  48.2900273  64.9346769  92.8118808  48.1990210  64.1663057
  93.2606338  47.4700178  65.4149262  97.9986910  47.5899649  74.9036084
  97.9875551  47.1952447  74.0316587  98.1607550  46.8565721  75.4969855
  90.9218375  49.7851465  67.7730990  91.7139667  49.4442290  67.3577289
  91.1615025  49.8946440  68.6933143  98.9553502  51.9571241  60.2461234
  98.3041481  52.5425322  59.8595248  99.7497864  52.4877436  60.3056272
  92.8809129  49.0460378  60.6448368  93.6540005  48.4989365  60.5061244
  93.2334528  49.9104628  60.8562830  94.7194171  50.3736761  73.8515268
  94.4284037  51.2782391  73.7361934  95.3551156  50.4153288  74.5659337
  95.6450378  47.7513609  70.4416627  96.2413950  47.5269632  69.7273590
  95.7025350  47.0098355  71.0442075  95.2175407  45.2053044  58.2766818
  95.4700927  44.6834566  57.5150281  94.2799966  45.0419190  58.3793502
 100.2618689  44.2088823  66.0841562 101.0481779  43.7908246  65.7331979
 100.5257394  45.1134915  66.2523210 100.4328767  49.6461673  60.7830218
  99.7974600  49.7196300  61.4951123 100.1026173  50.2355272  60.1049298
 105.6627117  44.1464056  66.9874540 106.3952288  43.5763273  67.2212370
 104.9066472  43.7585656  67.4281046  94.9371695  47.1081150  60.4791193
  94.8207953  46.4326054  61.1472278  95.0473955  46.6213524  59.6623346
  97.2803236  46.5691298  64.1837883  96.9161443  46.0421918  64.8950804
  98.1370352  46.1789767  64.0104368 103.1852537  37.8585630  71.4469149
 102.8535862  38.7281041  71.2230364 102.5898150  37.5421914  72.1263179
  96.9208723  41.5981197  59.1799231  97.0883126  42.4661434  59.5469702
  96.7305892  41.7608479  58.2560520  99.6784056  50.0598176  70.8465061
  99.3784779  50.9623215  70.7380869  99.3335116  49.7930359  71.6986214
  93.1296538  46.5111973  66.8801766  92.2047034  46.3788187  67.0879458
  93.3780951  47.2906192  67.3771708 103.0781200  42.5780716  68.5262499
 102.1698078  42.5096125  68.2321260 103.0268796  43.0552661  69.3544324
  96.8997944  44.0538855  60.1645898  96.7797569  44.4995905  61.0031378
  96.2050532  44.4024172  59.6059436  90.4905349  46.1545247  67.7145555
  90.6197730  46.4079725  68.6284967  89.8102800  46.7472955  67.3950210
  94.6604836  56.8242496  63.8136029  94.5828866  57.7750322  63.8924510
  94.0566480  56.4788369  64.4710955  97.1522066  43.9970362  76.4697396
  96.3755400  44.5564282  76.4600261  97.7912629  44.4827145  76.9912266
 104.9442847  40.7797155  70.3040373 104.3017227  41.0729688  69.6580167
 104.4397775  40.6650075  71.1093569 102.5983010  44.5260328  60.9926232
 103.5100866  44.7587715  60.8173929 102.0892657  45.1097372  60.4301310
  95.4068438  46.8055815  76.0315363  96.1483123  47.3440859  75.7550187
  94.7005424  47.4322104  76.1886915 100.8823778  48.9484956  74.6287524
 101.2907134  48.5067366  73.8842157 100.1601039  48.3737583  74.8821717
  97.2354848  43.8857562  72.0021081  98.0816043  44.3096976  72.1455730
  97.1753486  43.2291187  72.6959645 101.2052593  49.5086146  68.3839813
 100.5761455  49.6731860  67.6815881 100.8178255  49.9227756  69.1550777
 105.0841824  50.4440584  65.7384177 104.3992863  50.8239486  65.1881210
 105.1685674  51.0535911  66.4716125 100.3854293  41.5461931  73.6602255
 100.1415225  42.3003991  73.1236531 100.6614224  41.9247278  74.4949502
 102.3392756  48.0900543  72.3379521 102.5509651  48.7332303  71.6613902
 102.2922504  47.2562860  71.8701451  99.9418985  40.7018364  69.2416093
  99.0803464  40.9999617  69.5332830  99.9681420  40.9188763  68.3097125
  96.7580554  49.2460554  65.6489898  97.2218900  49.5248257  64.8594521
  96.4937353  48.3443999  65.4662989  93.6504636  48.7932036  68.5869662
  94.2205993  49.2219304  67.9487146  94.2412747  48.5114621  69.2853847
  95.6949441  45.3683707  62.4579464  96.3973484  45.8204750  62.9253390
  95.3630069  44.7267526  63.0859357  94.1429802  43.9595463  76.8330673
  93.5128463  44.6411744  77.0666070  94.0365890  43.8478545  75.8883811
  89.4374774  43.6267259  67.7596597  88.6473828  43.8824788  67.2836708
  89.9286022  44.4415597  67.8648638 103.4538584  50.9672499  70.5101878
 104.2756028  50.5652686  70.2284560 103.4500987  50.8640733  71.4617994
  91.3889520  43.9911839  64.7180074  90.5920683  44.1030533  65.2363570
  91.1615112  44.3298491  63.8520964  97.2195187  50.5156542  72.6662588
  97.2839620  50.9776949  73.5020760  96.5106111  49.8853907  72.7944898
  87.7212477  43.8797750  70.1911588  87.9720516  44.7644760  70.4569164
  88.2572026  43.7002351  69.4186680  96.9343205  52.1824649  62.5341569
  96.7988880  53.0276185  62.9626417  97.4753018  52.3843927  61.7707503
  93.4210545  38.2616229  79.1955924  93.0277490  37.7082428  79.8703568
  94.2376685  38.5726808  79.5862442  90.3872603  49.7000087  63.1069494
  90.8997123  50.4943338  63.2575059  91.0395315  49.0026378  63.0403095
  92.1967487  52.8165844  65.1892247  92.3734116  53.7383808  65.0013231
  92.9924321  52.5024263  65.6186627  96.3378506  39.6774108  76.7876181
  97.0788219  40.2781262  76.7080643  96.5696429  38.9351746  76.2294223
  91.4819844  44.8630476  75.0654410  91.3673359  43.9615733  75.3661509
  90.6264362  45.1094172  74.7139227  98.5611682  52.8048216  76.6641911
  98.1175536  52.0184594  76.3462815  99.2228895  52.9927366  75.9985802
  93.3198803  54.3344018  71.1902589  93.8706228  54.2061081  70.4179583
  92.4810279  54.6338907  70.8397482 100.6592920  53.0851016  74.6923312
 100.6411395  53.9059897  74.2003581 101.5812840  52.9605091  74.9173453
  97.1165974  50.5995145  75.5346821  97.6494311  49.8383434  75.3046129
  96.5880055  50.3068797  76.2770975 100.2835669  35.7055211  71.0640462
  99.9399938  36.5956853  70.9879573 100.6514631  35.5156869  70.2010047
  88.3521519  48.0288742  63.8829064  89.1896741  48.4385750  63.6662772
  88.5299787  47.0888184  63.8529258 100.2485951  45.6963822  59.5712897
  99.7332575  46.4668427  59.8101285  99.9763260  45.0228959  60.1945959
  97.8333062  40.5413523  64.6298136  96.9774659  40.1520374  64.4503774
  98.2460014  40.6205484  63.7697921  99.3632209  38.0759866  69.0289696
  98.8597005  38.0390002  68.2157501  99.6562816  38.9852609  69.0886352
  95.6075095  38.1598596  68.0355877  96.4728092  37.9641405  67.6761767
  95.6752604  37.9308948  68.9625234 105.2220226  48.4496177  61.5066071
 104.4449668  48.1107337  61.0621233 105.9011707  48.4548800  60.8321036
 100.0372255  43.5690915  61.3972679  99.7322390  43.8837064  62.2482822
 100.9902697  43.6472334  61.4400012  98.4818686  49.7281138  63.0465633
  97.9540048  48.9933897  62.7338870  97.9806189  50.5055814  62.8005601
 103.4611532  47.9230158  68.1632679 102.8035207  48.6129420  68.2512807
 104.2651932  48.3126590  68.5066665  93.2137414  40.3900804  65.4072244
  93.7881166  40.1675986  64.6745437  93.8008396  40.4589499  66.1600845
 102.2716991  46.2774531  66.2136621 102.7848873  46.9104523  66.7158330
 102.9218215  45.6775727  65.8479981  93.5407001  42.4205265  59.4268129
  92.7044313  42.7579952  59.7477404  93.4011771  42.2854245  58.4895266
  95.5160082  37.2642053  64.1347313  94.8624494  36.9491070  63.5103928
  95.4740556  36.6417793  64.8607136  96.6271287  47.5461348  56.0500606
  95.7198348  47.3150602  56.2491755  97.1242319  46.7498967  56.2374587
  99.5339365  56.2558855  58.9697292  98.8601064  56.5590552  59.5782250
  99.9205187  57.0587936  58.6202749  98.7497822  43.7523987  68.4594961
  97.8320383  43.9738934  68.3016649  99.1657966  43.8270297  67.6006668
  99.5332870  45.1515402  63.5897641 100.2804689  45.6636799  63.2804763
  99.8024459  44.8299455  64.4502035  97.8059520  47.6473943  60.5724596
  96.8970739  47.3632976  60.6697065  97.8354604  48.0673022  59.7127903
 103.0378787  51.2580532  64.3415763 102.5841115  50.4171442  64.3980954
 102.4072754  51.8941931  64.6790543 101.9811707  42.1872518  65.5716431
 101.2434464  41.6749905  65.9026673 102.2338481  41.7472900  64.7599708
 101.4811727  53.0957029  65.2765581 101.7734701  53.6562086  64.5577947
 101.9910347  53.3885590  66.0318740 102.0823334  34.9648770  66.1658200
 102.3882211  34.1046134  65.8784115 102.8075939  35.5566391  65.9657194
  88.3747690  45.3679457  64.5539798  88.1772090  44.7748818  63.8290864
  87.8194354  45.0631667  65.2715737  96.3544414  45.2602564  66.6734391
  96.4093024  44.3076400  66.5976868  95.5435616  45.4162003  67.1575689
  97.5035608  49.1882687  57.9112674  97.0655038  48.4718546  57.4518312
  98.2446049  49.4158801  57.3497766  94.2936774  43.8779623  64.4324770
  93.4804640  44.1773794  64.8389962  94.7895768  43.4835312  65.1499252
  96.4445352  53.8737380  66.3659035  96.4021531  54.0998227  65.4367567
  97.3608051  53.6400755  66.5144836  99.8910986  44.3421448  73.2639664
 100.2460373  44.5692921  74.1234130 100.5383117  44.6739825  72.6416919
 105.6208723  47.4639884  63.9688993 105.4826621  47.6541480  63.0410182
 105.2644941  48.2259266  64.4257044  93.7850849  41.4497979  70.0486005
  94.4250228  41.3086738  69.3508968  92.9528379  41.1632492  69.6724607
 105.6478102  49.5316411  68.9800264 106.0814609  49.4391700  69.8283318
 106.3609683  49.5073911  68.3420280  94.5611153  50.7500409  66.1620997
  95.3551751  50.2550729  65.9603572  93.8502845  50.2218272  65.7988703
  99.3805997  53.1318505  70.5133365  99.4343019  53.7009441  71.2811081
  98.5120779  53.3020390  70.1487402  90.8693916  44.8943491  62.2380750
  89.9391504  44.8327946  62.4550712  90.9651388  44.3719444  61.4417391
  90.7879465  41.4198304  64.8258992  91.0486282  42.3343637  64.7168152
  91.6096638  40.9522746  64.9755604  92.2604391  42.8336061  71.9957816
  92.9327444  42.6253423  71.3470465  91.4334177  42.6358147  71.5563048
 106.5093652  49.5740111  71.5133150 106.7029542  50.4785922  71.7592425
 106.4094270  49.1147530  72.3471735  98.1629963  39.4598002  74.0123477
  97.5157878  40.1587952  73.9187953  98.9330978  39.8934146  74.3799725
 101.5708760  49.7246854  77.0874030 101.4194267  49.4957406  76.1704114
 101.5613440  50.6817455  77.1005375  98.3394097  47.2978767  72.0720297
  99.2686157  47.4489926  71.8989264  97.9185127  47.3862788  71.2168943
  97.1382429  51.3229431  69.8418834  96.9993514  50.9548216  70.7144772
  96.3497025  51.8377071  69.6702792  97.7330581  56.4238528  61.1844371
  97.9082336  55.9526571  61.9989994  97.0463369  57.0504294  61.4125632
  98.6887644  50.7011034  67.2307672  98.3537476  50.6611804  68.1265322
  98.1891589  50.0355750  66.7578082  92.6631888  46.1078664  72.7560253
  92.5251686  45.3758903  73.3571792  93.5736811  46.0187564  72.4744441
 101.6246835  48.0467068  57.5044732 101.0076006  47.3213896  57.4077785
 101.1563324  48.8076429  57.1611806  95.2914188  45.8198623  72.2443933
  96.0013807  45.1791815  72.2030551  95.2483497  46.0711518  73.1670114
 103.2800967  52.7565977  75.1650512 103.2213513  52.0725197  74.4981095
 103.6820486  53.4984967  74.7131138  94.0043122  42.8063841  74.0639572
  93.4680479  42.3554580  74.7161169  93.4159831  42.9409750  73.3210037
  92.2991666  59.5727890  67.9584231  92.5388264  60.2046415  68.6363250
  91.4560862  59.2215930  68.2449590  93.4145381  42.2652493  56.6266036
  92.5374848  42.1441293  56.2628283  93.8903134  41.4738571  56.3744925
 103.2818374  50.7205561  73.3964492 102.3945153  50.3831482  73.5190891
 103.8516925  49.9888592  73.6333257  84.9347522  47.0529652  66.7207543
  85.6218561  46.7391382  66.1328559  84.7795650  47.9571017  66.4474795
  89.7382244  41.9419849  71.1492567  89.6540432  41.3345518  70.4142977
  88.9164950  42.4328867  71.1502063  96.8119528  55.3807013  70.3625735
  96.7389699  56.1861984  70.8745040  96.3696921  55.5798979  69.5373756
  96.6009307  54.6178783  63.8728557  95.8176829  55.1600463  63.9666781
  97.3002053  55.1352763  64.2722798  99.9105958  40.4273412  66.5162762
 100.4074657  39.6743375  66.1963832  99.1392939  40.4637729  65.9505971
 107.7635715  46.1313778  68.1581054 107.7525591  47.0138493  67.7874987
 106.8953094  45.7785329  67.9635591  99.2718211  55.2793847  72.5183894
  99.9846184  55.9141312  72.4459795  98.7808240  55.3757713  71.7023896
 100.9935738  49.1845100  64.0901185 100.0592017  49.3046562  63.9205890
 101.1712407  48.2817566  63.8261195  96.4940926  42.5690795  66.2434447
  96.1238714  42.0161836  66.9315352  96.9900019  41.9648929  65.6909447
 104.3808290  45.0262419  64.6251220 104.8468742  45.8590410  64.5511522
 104.8315790  44.5607400  65.3296478  94.3230125  53.0288290  73.3389465
  95.0239584  53.6624773  73.4918859  93.8525240  53.3703022  72.5785104
 102.4484521  51.3706240  61.6237372 102.7244365  51.2562835  62.5331246
 101.5789019  50.9723725  61.5849545 102.3524952  37.3943006  68.6642121
 101.4388032  37.6247233  68.8324328 102.7818054  37.4781450  69.5156153
 102.1231411  45.5832898  71.1642015 101.4702861  45.8308805  70.5094468
 102.5011791  44.7697036  70.8304492  99.0838585  55.6192591  65.2670185
  99.2660979  54.8014247  65.7297938  99.9071571  55.8360283  64.8295075
  99.4180750  54.5460776  62.5285234  99.9468517  54.0353231  61.9155396
  99.6808970  54.2303306  63.3930767  98.1718984  46.3252709  77.6508052
  97.4959621  46.2246838  78.3210427  98.9946618  46.1691923  78.1144049
  89.9197843  52.5624645  70.2720567  90.5051280  51.8168333  70.4048471
  89.7222681  52.8728602  71.1557231  92.7736498  55.5975893  65.2883010
  92.1046873  56.0822020  64.8047050  92.6349368  55.8445113  66.2026388
  84.5115498  45.1330246  68.9925010  84.5499597  44.5993836  69.7862128
  84.0055790  44.6065451  68.3735988  96.9141767  57.6319636  71.8865668
  97.4660075  57.7951258  72.6514753  97.2547960  58.2224074  71.2145693
  91.8906260  39.9794786  72.4887553  91.9547586  40.8409617  72.0764950
  91.8273380  39.3668788  71.7559911  91.3658532  42.0517919  76.1360587
  91.9930571  41.6694996  76.7498111  90.5086451  41.8332121  76.5016279
 101.7652641  52.4580894  77.7414322 102.3092545  53.0710852  77.2469277
 101.1839486  53.0160472  78.2581335  88.1424075  43.8594348  62.0678942
  88.4377516  42.9505026  62.0145995  87.2412111  43.8382087  61.7459944
 100.0510154  55.5801612  68.8729350  99.9261293  54.7791352  68.3640296
 100.7089245  56.0747805  68.3843320  91.6718322  41.9350344  68.0506490
  90.9504908  42.5486312  67.9113964  92.4611578  42.4708109  67.9723136
 102.1145062  53.3810632  70.5008900 101.1675398  53.2615983  70.4287227
 102.4627835  52.4933130  70.5835162  94.4744636  39.2704771  74.3247142
  94.9979038  39.5167067  75.0873451  94.2556969  40.1024806  73.9050279
  89.8711917  41.5408445  62.1918267  89.5424623  40.6605824  62.0093373
  90.2251287  41.4856114  63.0794656  99.1191496  53.1763348  66.7013252
  98.9716458  52.2480056  66.8820822  99.9444989  53.1983439  66.2170328
  92.9853740  41.8281415  62.5593745  93.3249812  42.3567337  61.8372353
  93.4325860  42.1661821  63.3352311 102.7225618  53.9991907  67.7878125
 103.6472165  53.7934768  67.6502576 102.5540921  53.7508308  68.6967467
  95.6797181  40.2118466  72.0096813  95.3394001  39.4126279  72.4117493
  94.9736187  40.5120177  71.4373646  96.3313653  37.2967778  70.4624136
  97.1539722  36.8228257  70.3403026  96.5751716  38.0758262  70.9622822
  94.9721887  40.3256037  60.7587037  95.6930250  40.7037290  60.2550754
  94.3487191  41.0444914  60.8622015  99.1153010  41.0301186  61.6945370
  99.3316624  41.9125824  61.3934198  98.6347077  40.6387399  60.9651012
  93.8552231  43.9886899  68.2716114  93.7096812  44.3027202  69.1640396
  93.3777435  44.6071799  67.7187013  95.7148614  40.9789447  68.3197004
  95.7010183  40.0830540  67.9829302  96.4321042  40.9860111  68.9535290
  97.5674745  41.4126787  70.3650131  97.3092523  42.3343858  70.3634462
  97.0359785  41.0157222  71.0550595 102.5120934  54.5177574  63.1440217
 102.6857811  53.9523997  62.3914069 103.0049825  55.3178469  62.9619707
  88.3297894  46.5292243  71.2103775  87.7851362  47.3052051  71.3424050
  89.2077243  46.8763048  71.0522897  95.1185510  39.8603827  63.5884574
  95.2401421  38.9320474  63.7875461  94.8287553  39.8742513  62.6762889
  97.9876701  37.5458738  66.7251294  98.0098397  37.6098071  65.7703273
  98.4044760  36.7063246  66.9191800 103.4996106  53.8344339  60.2437115
 104.1947011  54.4551031  60.4624430 103.8419256  52.9839690  60.5189493
  89.1163915  45.6562140  74.1033932  88.3745651  45.8044775  74.6898563
  88.7956660  45.9170405  73.2400682 105.3987529  51.2844044  61.7724446
 105.9238853  51.6231317  61.0473766 105.3109882  50.3491060  61.5887580
  97.0607578  55.1978118  73.9014322  97.3694704  54.9527265  74.7737022
  97.8583060  55.4024756  73.4133193  97.0828190  57.3516028  66.1319699
  96.6433180  56.8592406  66.8252556  97.8336307  56.8088995  65.8911774
  89.5620529  53.5427568  66.1344327  90.3878549  53.2431340  65.7542971
  89.2114581  52.7735191  66.5834116  94.5302062  52.8954037  68.2042001
  93.9082072  52.2324742  67.9044228  95.2006929  52.9215169  67.5215648
  87.7629134  51.4613895  67.0933261  86.9261042  51.0336069  66.9117262
  87.7352780  51.6546338  68.0304052  94.6026590  41.3735825  77.7974507
  94.6514745  42.2497948  77.4152276  95.1449104  40.8313218  77.2246150
 105.0881435  51.9176948  77.0775644 104.2976979  51.9001087  76.5380143
 104.8514790  52.4565242  77.8324680 105.2079310  48.7669414  74.3908372
 105.2577315  48.6019422  75.3323895 105.0993234  47.8996673  74.0006253
  94.0915569  51.4457960  61.6800461  94.2403690  52.1293424  61.0267134
  94.8982013  51.4263050  62.1949917 102.4983073  44.7500342  75.7067679
 103.3992936  44.6106807  75.4151677 102.5731047  44.9154797  76.6465856
  96.8325878  42.1267197  74.5520865  95.9629188  42.4200763  74.2803454
  97.0685359  42.7107642  75.2728129 106.7097507  51.1866356  74.6350394
 106.4182316  51.5496336  75.4713855 106.0969639  50.4733364  74.4563726
 104.9584696  46.3098970  73.1030452 105.4338817  46.5026617  72.2949303
 104.0350261  46.3658156  72.8573835  91.8468202  47.4723138  62.6861530
  91.6014244  46.5685468  62.8841740  92.0164117  47.4740288  61.7441008
  99.5364912  38.3446814  72.0686286 100.0546856  39.0807841  71.7432774
  99.1820045  38.6510807  72.9033045  91.1163850  43.2051495  60.1847691
  90.4233095  43.2795850  59.5287727  90.8715602  42.4411839  60.7069208
  99.7877506  34.7647097  67.5887182 100.0679260  34.0970286  68.2147609
 100.5728113  34.9576192  67.0761846  97.5910975  53.9406090  59.1512209
  97.0184942  54.5596278  58.6982680  98.1643768  54.4905452  59.6852130
 103.6586365  43.1864731  71.3358757 104.6103787  43.2862828  71.3570981
 103.4889815  42.3942999  71.8456842 101.6800744  40.2720314  71.5218158
 101.0850676  40.5525326  70.8264647 101.3950441  40.7614215  72.2934899
 100.8108234  54.2243241  60.2820791 101.7438908  54.1588802  60.4853666
 100.7231447  55.0599507  59.8235323 103.4396251  53.5409111  57.2424738
 103.3609883  53.2068975  58.1360496 104.2605918  54.0330879  57.2416211
 106.1374442  46.4070850  70.4501057 106.1050762  45.4686851  70.6360741
 106.7475066  46.4854887  69.7166882  97.9757773  45.2766903  56.4928261
  98.9216878  45.1473111  56.5616679  97.5972018  44.5381565  56.9697689
 106.2868931  43.1981894  70.4959340 105.7707979  42.4140350  70.3089269
 107.1708879  42.8700610  70.6605860 103.9479658  36.9422909  66.4555153
 103.7504479  36.6337997  67.3398485 104.5579363  37.6684548  66.5853083
  97.8596466  49.3284649  77.9528918  98.7799475  49.5063248  78.1468965
  97.8246049  48.3840695  77.8008617  96.1600690  43.2016880  56.4283146
  95.2532146  42.9049992  56.5045860  96.4376671  42.9046698  55.5617432
  87.0778631  44.5223243  66.8782193  86.7581415  43.6688551  66.5856567
  86.5312059  44.7371821  67.6340160  90.8558538  47.2385684  70.5951699
  91.0744548  48.1702792  70.6139733  91.2684312  46.8793658  71.3806503
  97.7762756  37.7453769  62.5827388  96.9663484  37.4000854  62.9582634
  98.4647173  37.4361313  63.1714999  99.7053304  36.8231816  64.2051684
 100.2584343  37.2427270  64.8641707  99.9423391  35.8967564  64.2474640
  95.7286404  42.8118890  79.9854448  95.6283130  43.7613247  79.9166539
  95.5107946  42.4837129  79.1130518  94.9299475  40.0603815  56.5695125
  95.7918639  40.3858713  56.8290943  95.1149819  39.2735311  56.0568191
  86.9466891  48.1426154  68.8475314  86.2530362  47.7280107  68.3345269
  87.6939882  48.1846691  68.2508733 103.0832111  38.9332341  63.7130348
 102.5030780  39.5917145  63.3308401 102.8168044  38.1109686  63.3017766
 101.5335678  38.3337399  65.9151669 102.0335456  38.4453934  65.1065988
 102.1771286  38.0298452  66.5552477  95.5917674  46.2416029  78.8019510
  95.1084755  47.0416389  79.0083399  95.6778613  46.2523973  77.8486954
  88.8603633  48.0744408  66.7241329  88.8374321  48.1732096  65.7723212
  89.1704270  48.9209559  67.0458495  91.5191011  50.1320563  70.8387944
  92.4734265  50.1004506  70.7717875  91.3203535  49.6711187  71.6538169
  92.1090393  48.7021679  73.4058741  92.9283282  49.1965758  73.4293578
  92.3827201  47.7853647  73.3776309 101.8656989  41.0932432  62.7686697
 100.9782844  41.3782082  62.5506891 102.2810979  40.9326195  61.9213974
 105.2171526  41.1178953  66.4841036 105.9931916  41.6075405  66.7565653
 104.4919660  41.5437007  66.9412905 107.6544084  41.8306572  67.5414977
 108.2488575  41.5902308  66.8308285 107.7270668  41.1113702  68.1688513
  89.8741240  55.6740183  67.8558141  89.7395708  54.9140584  67.2896139
  89.4573302  56.3981083  67.3886930 101.0100203  50.8577106  56.8634717
 101.7136053  51.0627109  57.4792372 100.2862852  51.4253868  57.1283800
 101.8398013  46.6086968  62.9836987 101.7833215  47.0655519  62.1444619
 102.3926356  45.8477652  62.8059830 105.6502819  42.3976699  63.8087106
 105.3939753  41.9973335  64.6395314 105.0255687  43.1120493  63.6837246
  93.0310366  56.5709500  68.0676584  92.9142750  57.5154932  67.9655274
  92.2102812  56.2683061  68.4562383 102.9186900  51.2959636  58.9133177
 103.7532504  50.8640834  58.7310652 102.7571243  51.1241649  59.8410071
 102.5732792  47.7991749  60.2789516 102.5181596  47.6336020  59.3377960
 101.9478848  48.5067782  60.4351706  87.3625307  43.0359813  74.1050938
  88.0084171  42.5258767  74.5938163  87.1542459  43.7728495  74.6794364
  99.8878700  50.1040661  79.6043079 100.7569859  50.2781313  79.2429714
  99.4085451  50.9235078  79.4818808  95.8828918  37.2999858  59.8574834
  95.8707588  38.2441698  60.0143105  96.7752340  37.1170003  59.5634296
  94.0564880  57.2237762  71.2832512  94.9592127  57.2561372  71.5999007
  93.8302250  56.2938213  71.2978848  95.8118482  55.9768748  67.9442591
  94.8614113  55.9770610  67.8306963  96.1150968  55.2301483  67.4278626
  99.6981037  33.8942634  64.1120771  98.9313433  33.3401121  64.2577454
 100.1091742  33.9664503  64.9734923  91.7022798  40.1827430  78.2025952
  92.5654260  39.8264235  78.4129277  91.1288209  39.8441325  78.8901357
 104.2147697  63.6192191  64.9346769 103.6512563  63.5282128  64.1663057
 104.1000092  62.7992096  65.4149262 101.7612129  65.1143383  67.7730990
 102.5533421  64.7734207  67.3577289 102.0008779  65.2238358  68.6933143
 103.7202883  64.3752296  60.6448368 104.4933759  63.8281283  60.5061244
 104.0728282  65.2396545  60.8562830 105.5587926  65.7028678  73.8515268
 105.2677792  66.6074309  73.7361934 106.1944910  65.7445206  74.5659337
 106.4844133  63.0805527  70.4416627 107.0807705  62.8561549  69.7273590
 106.5419104  62.3390272  71.0442075 106.0569161  60.5344962  58.2766818
 106.3094682  60.0126483  57.5150281 105.1193720  60.3711108  58.3793502
 105.7765450  62.4373068  60.4791193 105.6601708  61.7617971  61.1472278
 105.8867710  61.9505442  59.6623346 107.7602478  56.9273115  59.1799231
 107.9276880  57.7953351  59.5469702 107.5699647  57.0900397  58.2560520
 103.9690292  61.8403891  66.8801766 103.0440789  61.7080105  67.0879458
 104.2174706  62.6198110  67.3771708 107.7391699  59.3830772  60.1645898
 107.6191324  59.8287823  61.0031378 107.0444287  59.7316090  59.6059436
 101.3299103  61.4837164  67.7145555 101.4591485  61.7371643  68.6284967
 100.6496555  62.0764872  67.3950210 105.4998591  72.1534414  63.8136029
 105.4222620  73.1042239  63.8924510 104.8960234  71.8080287  64.4710955
 106.2462193  62.1347733  76.0315363 106.9876877  62.6732777  75.7550187
 105.5399178  62.7614022  76.1886915 107.5974309  64.5752472  65.6489898
 108.0612654  64.8540175  64.8594521 107.3331107  63.6735917  65.4662989
 104.4898390  64.1223954  68.5869662 105.0599747  64.5511222  67.9487146
 105.0806502  63.8406538  69.2853847 106.5343195  60.6975624  62.4579464
 107.2367238  61.1496668  62.9253390 106.2023823  60.0559443  63.0859357
 104.9823557  59.2887381  76.8330673 104.3522217  59.9703662  77.0666070
 104.8759644  59.1770463  75.8883811 100.2768529  58.9559177  67.7596597
  99.4867583  59.2116706  67.2836708 100.7679776  59.7707515  67.8648638
 102.2283274  59.3203756  64.7180074 101.4314438  59.4322451  65.2363570
 102.0008867  59.6590409  63.8520964 108.0588942  65.8448460  72.6662588
 108.1233374  66.3068867  73.5020760 107.3499866  65.2145825  72.7944898
  98.5606232  59.2089668  70.1911588  98.8114270  60.0936678  70.4569164
  99.0965780  59.0294269  69.4186680 107.7736960  67.5116567  62.5341569
 107.6382634  68.3568103  62.9626417 108.3146772  67.7135845  61.7707503
 104.2604299  53.5908147  79.1955924 103.8671245  53.0374346  79.8703568
 105.0770440  53.9018725  79.5862442 101.2266357  65.0292005  63.1069494
 101.7390878  65.8235255  63.2575059 101.8789070  64.3318296  63.0403095
 103.0361242  68.1457761  65.1892247 103.2127870  69.0675726  65.0013231
 103.8318075  67.8316181  65.6186627 107.1772260  55.0066026  76.7876181
 107.9181974  55.6073179  76.7080643 107.4090183  54.2643664  76.2294223
 102.3213598  60.1922393  75.0654410 102.2067113  59.2907651  75.3661509
 101.4658116  60.4386090  74.7139227 104.1592557  69.6635935  71.1902589
 104.7099982  69.5352999  70.4179583 103.3204033  69.9630824  70.8397482
  99.1915274  63.3580659  63.8829064 100.0290496  63.7677668  63.6662772
  99.3693541  62.4180102  63.8529258 106.4468849  53.4890514  68.0355877
 107.3121846  53.2933323  67.6761767 106.5146358  53.2600866  68.9625234
 104.0531169  55.7192722  65.4072244 104.6274920  55.4967903  64.6745437
 104.6402151  55.7881416  66.1600845 104.3800756  57.7497183  59.4268129
 103.5438068  58.0871869  59.7477404 104.2405525  57.6146163  58.4895266
 106.3553836  52.5933971  64.1347313 105.7018249  52.2782988  63.5103928
 106.3134310  51.9709711  64.8607136 107.4665041  62.8753266  56.0500606
 106.5592103  62.6442519  56.2491755 107.9636073  62.0790885  56.2374587
  99.2141445  60.6971375  64.5539798  99.0165845  60.1040735  63.8290864
  98.6588109  60.3923585  65.2715737 107.1938169  60.5894481  66.6734391
 107.2486778  59.6368318  66.5976868 106.3829371  60.7453920  67.1575689
 105.1330528  59.2071541  64.4324770 104.3198394  59.5065712  64.8389962
 105.6289523  58.8127230  65.1499252 107.2839106  69.2029298  66.3659035
 107.2415285  69.4290144  65.4367567 108.2001805  68.9692673  66.5144836
 104.6244603  56.7789897  70.0486005 105.2643983  56.6378656  69.3508968
 103.7922134  56.4924410  69.6724607 105.4004907  66.0792327  66.1620997
 106.1945506  65.5842647  65.9603572 104.6896600  65.5510190  65.7988703
 101.7087671  60.2235409  62.2380750 100.7785259  60.1619864  62.4550712
 101.8045143  59.7011361  61.4417391 101.6273220  56.7490221  64.8258992
 101.8880037  57.6635555  64.7168152 102.4490392  56.2814664  64.9755604
 103.0998145  58.1627979  71.9957816 103.7721198  57.9545341  71.3470465
 102.2727932  57.9650065  71.5563048 107.9776183  66.6521349  69.8418834
 107.8387269  66.2840133  70.7144772 107.1890779  67.1668988  69.6702792
 103.5025642  61.4370582  72.7560253 103.3645440  60.7050820  73.3571792
 104.4130566  61.3479482  72.4744441 106.1307943  61.1490541  72.2443933
 106.8407561  60.5083733  72.2030551 106.0877251  61.4003436  73.1670114
 104.8436877  58.1355759  74.0639572 104.3074234  57.6846497  74.7161169
 104.2553585  58.2701668  73.3210037 103.1385420  74.9019808  67.9584231
 103.3782019  75.5338332  68.6363250 102.2954617  74.5507848  68.2449590
 104.2539136  57.5944410  56.6266036 103.3768602  57.4733211  56.2628283
 104.7296889  56.8030489  56.3744925  95.7741276  62.3821570  66.7207543
  96.4612316  62.0683300  66.1328559  95.6189405  63.2862935  66.4474795
 100.5775998  57.2711767  71.1492567 100.4934187  56.6637436  70.4142977
  99.7558705  57.7620785  71.1502063 107.6513282  70.7098931  70.3625735
 107.5783454  71.5153902  70.8745040 107.2090675  70.9090896  69.5373756
 107.4403062  69.9470701  63.8728557 106.6570584  70.4892381  63.9666781
 108.1395807  70.4644680  64.2722798 107.3334681  57.8982713  66.2434447
 106.9632468  57.3453753  66.9315352 107.8293773  57.2940847  65.6909447
 105.1623879  68.3580208  73.3389465 105.8633339  68.9916691  73.4918859
 104.6918994  68.6994940  72.5785104 100.7591597  67.8916563  70.2720567
 101.3445034  67.1460251  70.4048471 100.5616436  68.2020520  71.1557231
 103.6130253  70.9267811  65.2883010 102.9440628  71.4113938  64.8047050
 103.4743122  71.1737031  66.2026388  95.3509252  60.4622163  68.9925010
  95.3893352  59.9285754  69.7862128  94.8449545  59.9357369  68.3735988
 107.7535521  72.9611554  71.8865668 108.3053829  73.1243176  72.6514753
 108.0941715  73.5515992  71.2145693 102.7300014  55.3086704  72.4887553
 102.7941341  56.1701535  72.0764950 102.6667135  54.6960705  71.7559911
 102.2052287  57.3809836  76.1360587 102.8324326  56.9986914  76.7498111
 101.3480206  57.1624038  76.5016279  98.9817830  59.1886265  62.0678942
  99.2771271  58.2796944  62.0145995  98.0805865  59.1674005  61.7459944
 102.5112077  57.2642262  68.0506490 101.7898662  57.8778230  67.9113964
 103.3005332  57.8000027  67.9723136 105.3138390  54.5996689  74.3247142
 105.8372792  54.8458985  75.0873451 105.0950723  55.4316723  73.9050279
 100.7105671  56.8700363  62.1918267 100.3818377  55.9897742  62.0093373
 101.0645042  56.8148032  63.0794656 103.8247494  57.1573333  62.5593745
 104.1643567  57.6859254  61.8372353 104.2719615  57.4953739  63.3352311
 106.5190935  55.5410384  72.0096813 106.1787756  54.7418197  72.4117493
 105.8129942  55.8412095  71.4373646 107.1707407  52.6259696  70.4624136
 107.9933476  52.1520174  70.3403026 107.4145471  53.4050180  70.9622822
 105.8115642  55.6547955  60.7587037 106.5324004  56.0329207  60.2550754
 105.1880946  56.3736831  60.8622015 104.6945986  59.3178817  68.2716114
 104.5490567  59.6319120  69.1640396 104.2171189  59.9363717  67.7187013
 106.5542369  56.3081365  68.3197004 106.5403937  55.4122458  67.9829302
 107.2714797  56.3152028  68.9535290  99.1691648  61.8584161  71.2103775
  98.6245116  62.6343969  71.3424050 100.0470998  62.2054966  71.0522897
 105.9579265  55.1895745  63.5884574 106.0795176  54.2612391  63.7875461
 105.6681307  55.2034431  62.6762889  99.9557670  60.9854057  74.1033932
  99.2139406  61.1336693  74.6898563  99.6350414  61.2462323  73.2400682
 100.4014284  68.8719486  66.1344327 101.2272303  68.5723258  65.7542971
 100.0508336  68.1027109  66.5834116 105.3695817  68.2245954  68.2042001
 104.7475826  67.5616659  67.9044228 106.0400684  68.2507086  67.5215648
  98.6022889  66.7905813  67.0933261  97.7654797  66.3627987  66.9117262
  98.5746534  66.9838256  68.0304052 105.4420344  56.7027742  77.7974507
 105.4908500  57.5789865  77.4152276 105.9842858  56.1605135  77.2246150
 104.9309324  66.7749878  61.6800461 105.0797444  67.4585342  61.0267134
 105.7375767  66.7554968  62.1949917 107.6719633  57.4559115  74.5520865
 106.8022942  57.7492681  74.2803454 107.9079113  58.0399560  75.2728129
 102.6861957  62.8015055  62.6861530 102.4407999  61.8977385  62.8841740
 102.8557871  62.8032206  61.7441008 101.9557604  58.5343413  60.1847691
 101.2626849  58.6087768  59.5287727 101.7109356  57.7703757  60.7069208
 106.9994445  58.5308797  56.4283146 106.0925900  58.2341910  56.5045860
 107.2770426  58.2338615  55.5617432  97.9172385  59.8515161  66.8782193
  97.5975170  58.9980469  66.5856567  97.3705813  60.0663739  67.6340160
 101.6952293  62.5677602  70.5951699 101.9138303  63.4994709  70.6139733
 102.1078067  62.2085576  71.3806503 106.5680158  58.1410807  79.9854448
 106.4676885  59.0905164  79.9166539 106.3501700  57.8129046  79.1130518
 105.7693229  55.3895733  56.5695125 106.6312393  55.7150631  56.8290943
 105.9543574  54.6027228  56.0568191  97.7860645  63.4718072  68.8475314
  97.0924117  63.0572025  68.3345269  98.5333636  63.5138609  68.2508733
 106.4311428  61.5707946  78.8019510 105.9478510  62.3708306  79.0083399
 106.5172367  61.5815891  77.8486954  99.6997388  63.4036326  66.7241329
  99.6768076  63.5024013  65.7723212 100.0098024  64.2501477  67.0458495
 102.3584766  65.4612481  70.8387944 103.3128019  65.4296423  70.7717875
 102.1597289  65.0003105  71.6538169 102.9484148  64.0313597  73.4058741
 103.7677037  64.5257676  73.4293578 103.2220955  63.1145565  73.3776309
 100.7134994  71.0032100  67.8558141 100.5789462  70.2432501  67.2896139
 100.2967057  71.7273000  67.3886930 103.8704120  71.9001418  68.0676584
 103.7536504  72.8446850  67.9655274 103.0496567  71.5974979  68.4562383
  98.2019062  58.3651731  74.1050938  98.8477926  57.8550685  74.5938163
  97.9936213  59.1020413  74.6794364 106.7222672  52.6291776  59.8574834
 106.7101342  53.5733615  60.0143105 107.6146094  52.4461921  59.5634296
 104.8958634  72.5529679  71.2832512 105.7985881  72.5853290  71.5999007
 104.6696004  71.6230130  71.2978848 106.6512236  71.3060666  67.9442591
 105.7007867  71.3062528  67.8306963 106.9544723  70.5593401  67.4278626
 102.5416553  55.5119348  78.2025952 103.4048015  55.1556153  78.4129277
 101.9681964  55.1733243  78.8901357 106.6135030  77.7113488  66.7207543
 107.3006070  77.3975218  66.1328559 106.4583159  78.6154852  66.4474795
 106.1903007  75.7914081  68.9925010 106.2287106  75.2577672  69.7862128
 105.6843299  75.2649287  68.3735988  70.6204158   5.9206178  54.6829538
  70.8600756   6.5524702  55.3608556  69.7773355   5.5694218  54.9694897
  82.5360190   9.9670478  51.6592076  81.9725055   9.8760415  50.8908364
  82.4212585   9.1470383  52.1394568  80.0824622  11.4621670  54.4976296
  80.8745914  11.1212495  54.0822596  80.3221272  11.5716645  55.4178450
  88.1159748  13.6341446  46.9706541  87.4647728  14.2195527  46.5840554
  88.9104111  14.1647641  47.0301578  82.0415376  10.7230583  47.3693675
  82.8146252  10.1759570  47.2306551  82.3940774  11.5874833  47.5808136
  83.8800418  12.0506966  60.5760574  83.5890284  12.9552596  60.4607241
  84.5157402  12.0923493  61.2904644  84.8056625   9.4283814  57.1661934
  85.4020197   9.2039836  56.4518897  84.8631596   8.6868560  57.7687382
  89.5935014  11.3231878  47.5075525  88.9580846  11.3966505  48.2196430
  89.2632420  11.9125477  46.8294604  84.0977942   8.7851355  47.2036500
  83.9814200   8.1096259  47.8717584  84.2080202   8.2983729  46.3868653
  88.8390303  11.7368381  57.5710368  88.5391026  12.6393420  57.4626175
  88.4941363  11.4700564  58.4231521  82.2902785   8.1882178  53.6047072
  81.3653281   8.0558392  53.8124764  82.5387198   8.9676397  54.1017015
  79.6511596   7.8315451  54.4390862  79.7803977   8.0849930  55.3530273
  78.9709047   8.4243159  54.1195517  83.8211083  18.5012701  50.5381336
  83.7435113  19.4520526  50.6169816  83.2172727  18.1558574  51.1956262
  84.5674685   8.4826020  62.7560670  85.3089369   9.0211064  62.4795493
  83.8611671   9.1092309  62.9132221  90.0430025  10.6255161  61.3532831
  90.4513381  10.1837571  60.6087463  89.3207286  10.0507788  61.6067024
  90.3658839  11.1856351  55.1085120  89.7367702  11.3502065  54.4061188
  89.9784501  11.5997961  55.8796084  94.2448071  12.1210789  52.4629484
  93.5599109  12.5009690  51.9126517  94.3291921  12.7306116  53.1961432
  85.9186801  10.9230759  52.3735205  86.3825147  11.2018462  51.5839828
  85.6543599  10.0214204  52.1908296  82.8110882  10.4702241  55.3114968
  83.3812239  10.8989509  54.6732453  83.4018994  10.1884826  56.0099154
  92.6144831  12.6442704  57.2347185  93.4362275  12.2422891  56.9529866
  92.6107234  12.5410938  58.1863300  86.3801434  12.1926747  59.3907895
  86.4445867  12.6547154  60.2266067  85.6712358  11.5624112  59.5190205
  76.8818724   5.5567955  56.9156895  77.1326763   6.4414965  57.1814471
  77.4178273   5.3772556  56.1431986  86.0949452  13.8594854  49.2586875
  85.9595127  14.7046390  49.6871723  86.6359264  14.0614132  48.4952809
  79.5478849  11.3770292  49.8314801  80.0603370  12.1713543  49.9820365
  80.2001562  10.6796583  49.7648402  81.3573734  14.4936049  51.9137554
  81.5340362  15.4154013  51.7258538  82.1530568  14.1794468  52.3431933
  87.7217928  14.4818421  63.3887218  87.2781782  13.6954799  63.0708122
  88.3835142  14.6697571  62.7231108  82.4805049  16.0114222  57.9147896
  83.0312475  15.8831286  57.1424890  81.6416525  16.3109111  57.5642789
  89.8199166  14.7621221  61.4168619  89.8017642  15.5830102  60.9248888
  90.7419086  14.6375296  61.6418760  86.2772220  12.2765350  62.2592127
  86.8100557  11.5153638  62.0291435  85.7486302  11.9839002  63.0016282
  77.5127766   9.7058947  50.6074371  78.3502988  10.1155955  50.3908079
  77.6906034   8.7658389  50.5774565  87.6424933  11.4051343  49.7710939
  87.1146295  10.6704102  49.4584177  87.1412436  12.1826019  49.5250908
  85.7877533   9.2231553  42.7745912  84.8804595   8.9920806  42.9737061
  86.2848565   8.4269172  42.9619894  88.6945612  17.9329060  45.6942598
  88.0207311  18.2360757  46.3027556  89.0811434  18.7358141  45.3448055
  86.9665767   9.3244148  47.2969902  86.0576986   9.0403181  47.3942372
  86.9960851   9.7443226  46.4373209  92.1985034  12.9350737  51.0661070
  91.7447361  12.0941647  51.1226260  91.5679001  13.5712136  51.4035850
  90.6417973  14.7727234  52.0010888  90.9340948  15.3332291  51.2823254
  91.1516594  15.0655795  52.7564047  77.5353937   7.0449662  51.2785105
  77.3378337   6.4519023  50.5536171  76.9800601   6.7401872  51.9961043
  86.6641855  10.8652892  44.6357981  86.2261285  10.1488750  44.1763618
  87.4052295  11.0929006  44.0743072  85.6051599  15.5507585  53.0904341
  85.5627777  15.7768431  52.1612873  86.5214298  15.3170960  53.2390142
  83.7217399  12.4270614  52.8866304  84.5157998  11.9320934  52.6848879
  83.0109092  11.8988477  52.5234010  88.5412244  14.8088710  57.2378672
  88.5949266  15.3779646  58.0056387  87.6727025  14.9790595  56.8732709
  90.7315007  11.4017059  63.8119337  90.5800514  11.1727611  62.8949421
  90.7219687  12.3587660  63.8250682  87.5000344   8.9748972  58.7965603
  88.4292404   9.1260131  58.6234571  87.0791374   9.0632993  57.9414250
  86.2988675  12.9999636  56.5664141  86.1599761  12.6318421  57.4390079
  85.5103272  13.5147276  56.3948099  86.8936827  18.1008733  47.9089678
  87.0688583  17.6296776  48.7235300  86.2069615  18.7274499  48.1370938
  87.8493891  12.3781239  53.9552979  87.5143723  12.3382009  54.8510629
  87.3497836  11.7125955  53.4823389  81.8238135   7.7848869  59.4805560
  81.6857932   7.0529108  60.0817099  82.7343058   7.6957769  59.1989748
  92.4407214  14.4336182  61.8895819  92.3819760  13.7495402  61.2226402
  92.8426732  15.1755172  61.4376445  81.4597913  21.2498095  54.6829538
  81.6994511  21.8816620  55.3608556  80.6167109  20.8986135  54.9694897
  92.4424621  12.3975765  60.1209799  91.5551400  12.0601687  60.2436197
  93.0123172  11.6658797  60.3578564  74.0953768   8.7299857  53.4452850
  74.7824808   8.4161587  52.8573865  73.9401897   9.6341222  53.1720101
  85.9725775  17.0577218  57.0871042  85.8995946  17.8632189  57.5990346
  85.5303168  17.2569184  56.2619063  85.7615554  16.2948988  50.5973863
  84.9783076  16.8370668  50.6912088  86.4608299  16.8122968  50.9968104
  88.4324458  16.9564052  59.2429200  89.1452430  17.5911517  59.1705102
  87.9414487  17.0527918  58.4269202  90.1541985  10.8615305  50.8146492
  89.2198264  10.9816767  50.6451196  90.3318653   9.9587771  50.5506502
  83.4836372  14.7058495  60.0634771  84.1845831  15.3394978  60.2164165
  83.0131487  15.0473227  59.3030410  91.6090767  13.0476445  48.3482678
  91.8850611  12.9333040  49.2576552  90.7395266  12.6493930  48.3094851
  88.2444831  17.2962796  51.9915492  88.4267226  16.4784452  52.4543244
  89.0677817  17.5130488  51.5540382  88.5786997  16.2230981  49.2530540
  89.1074763  15.7123436  48.6400702  88.8415217  15.9073511  50.1176073
  79.0804090  14.2394850  56.9965874  79.6657526  13.4938538  57.1293778
  78.8828928  14.5498807  57.8802538  81.9342745  17.2746098  52.0128316
  81.2653120  17.7592225  51.5292356  81.7955615  17.5215318  52.9271695
  73.6721744   6.8100451  55.7170317  73.7105844   6.2764041  56.5107435
  73.1662037   6.2835656  55.0981294  86.0748013  19.3089841  58.6110975
  86.6266322  19.4721463  59.3760060  86.4154207  19.8994279  57.9390999
  90.9258888  14.1351099  64.4659629  91.4698792  14.7481057  63.9714584
  90.3445733  14.6930677  64.9826642  89.2116401  17.2571817  55.5974657
  89.0867540  16.4561557  55.0885602  89.8695492  17.7518010  55.1088627
  91.2751309  15.0580837  57.2254207  90.3281645  14.9386188  57.1532534
  91.6234082  14.1703335  57.3080468  88.2797742  14.8533553  53.4258559
  88.1322705  13.9250261  53.6066129  89.1051236  14.8753644  52.9415634
  91.8831864  15.6762112  54.5123432  92.8078412  15.4704973  54.3747883
  91.7147168  15.4278513  55.4212773  91.6727180  16.1947779  49.8685523
  91.8464058  15.6294202  49.1159376  92.1656072  16.9948674  49.6865013
  77.4904140   8.2062448  57.9349082  76.9457608   8.9822256  58.0669356
  78.3683490   8.5533253  57.7768204  92.6602353  15.5114544  46.9682422
  93.3553258  16.1321236  47.1869736  93.0025503  14.6609895  47.2434799
  78.2770162   7.3332345  60.8279239  77.5351898   7.4814980  61.4143869
  77.9562906   7.5940610  59.9645988  94.5593776  12.9614249  48.4969752
  95.0845100  13.3001522  47.7719072  94.4716129  12.0261265  48.3132887
  86.2213825  16.8748323  60.6259629  86.5300951  16.6297470  61.4982329
  87.0189307  17.0794961  60.1378499  86.2434437  19.0286233  52.8565006
  85.8039427  18.5362611  53.5497862  86.9942554  18.4859200  52.6157081
  78.7226776  15.2197773  52.8589634  79.5484796  14.9201545  52.4788277
  78.3720828  14.4505396  53.3079422  83.6908309  14.5724242  54.9287307
  83.0688318  13.9094947  54.6289535  84.3613176  14.5985373  54.2460955
  76.9235381  13.1384100  53.8178567  76.0867289  12.7106274  53.6362568
  76.8959026  13.3316543  54.7549358  94.2487682  13.5947153  63.8020950
  93.4583226  13.5771292  63.2625450  94.0121037  14.1335447  64.5569987
  83.2521816  13.1228165  48.4045768  83.4009936  13.8063629  47.7512440
  84.0588259  13.1033255  48.9195223  95.8703754  12.8636561  61.3595700
  95.5788562  13.2266541  62.1959161  95.2575885  12.1503569  61.1809032
  81.0074449   9.1493343  49.4106837  80.7620491   8.2455673  49.6087047
  81.1770363   9.1510493  48.4686315  86.7517221  15.6176295  45.8757515
  86.1791189  16.2366483  45.4227987  87.3250015  16.1675657  46.4097437
  89.9714481  15.9013446  47.0066097  90.9045154  15.8359007  47.2098973
  89.8837694  16.7369712  46.5480630  92.6002498  15.2179316  43.9670045
  92.5216129  14.8839179  44.8605803  93.4212165  15.7101084  43.9661517
  87.0202712  11.0054854  64.6774225  87.9405722  11.1833453  64.8714271
  86.9852296  10.0610900  64.5253924  76.2384877   6.1993448  53.6027499
  75.9187662   5.3458756  53.3101873  75.6918306   6.4142026  54.3585467
  80.0164785   8.9155889  57.3197006  80.2350795   9.8472997  57.3385040
  80.4290559   8.5563863  58.1051810  76.1073137   9.8196359  55.5720621
  75.4136609   9.4050312  55.0590575  76.8546128   9.8616896  54.9754040
  84.7523920   7.9186234  65.5264816  84.2691002   8.7186594  65.7328705
  84.8384859   7.9294178  64.5732260  78.0209880   9.7514613  53.4486636
  77.9980568   9.8502300  52.4968519  78.3310516  10.5979764  53.7703802
  80.6797258  11.8090768  57.5633250  81.6340511  11.7774711  57.4963182
  80.4809781  11.3481392  58.3783476  81.2696640  10.3791884  60.1304048
  82.0889529  10.8735963  60.1538885  81.5433448   9.4623852  60.1021615
  79.0347487  17.3510388  54.5803448  78.9001955  16.5910789  54.0141446
  78.6179549  18.0751288  54.1132237  90.1706450  12.5347311  43.5880023
  90.8742300  12.7397314  44.2037679  89.4469098  13.1024073  43.8529107
  82.1916613  18.2479705  54.7921891  82.0748997  19.1925137  54.6900581
  81.3709059  17.9453266  55.1807690  92.0793147  12.9729840  45.6378483
  92.9138751  12.5411039  45.4555958  91.9177490  12.8011854  46.5655378
  89.0484946  11.7810866  66.3288385  89.9176106  11.9551518  65.9675020
  88.5691698  12.6005282  66.2064115  83.2171127  18.9007967  58.0077819
  84.1198373  18.9331577  58.3244314  82.9908497  17.9708418  58.0224155
  84.9724729  17.6538953  54.6687898  84.0220360  17.6540815  54.5552270
  85.2757215  16.9071688  54.1523932 100.7077422  23.4899492  55.7333660
 101.3455832  23.3706239  55.0297000 100.5898265  24.4380336  55.7921612
  97.5167128  23.4426920  55.6695185  97.1785640  23.3267984  54.7815720
  98.3856897  23.0418085  55.6496191  93.3753944  25.2962396  51.6592076
  92.8118809  25.2052333  50.8908364  93.2606339  24.4762301  52.1394568
  97.9986911  24.5961771  61.6281390  97.9875552  24.2014570  60.7561894
  98.1607551  23.8627844  62.2215162  90.9218376  26.7913588  54.4976296
  91.7139668  26.4504412  54.0822596  91.1615026  26.9008563  55.4178450
  98.9553503  28.9633364  46.9706541  98.3041483  29.5487444  46.5840554
  99.7497866  29.4939559  47.0301578  92.8809130  26.0522501  47.3693675
  93.6540006  25.5051488  47.2306551  93.2334529  26.9166750  47.5808136
  94.7194173  27.3798883  60.5760574  94.4284039  28.2844514  60.4607241
  95.3551157  27.4215411  61.2904644  95.6450379  24.7575732  57.1661934
  96.2413952  24.5331754  56.4518897  95.7025351  24.0160477  57.7687382
  95.2175408  22.2115167  45.0012125  95.4700929  21.6896688  44.2395588
  94.2799967  22.0481313  45.1038809 100.2618691  21.2150945  52.8086868
 101.0481780  20.7970369  52.4577285 100.5257395  22.1197038  52.9768517
 100.4328768  26.6523796  47.5075525  99.7974601  26.7258422  48.2196430
 100.1026174  27.2417395  46.8294604 105.6627118  21.1526179  53.7119847
 106.3952290  20.5825395  53.9457676 104.9066473  20.7647779  54.1526352
  94.9371697  24.1143273  47.2036500  94.8207955  23.4388176  47.8717584
  95.0473956  23.6275647  46.3868653  97.2803238  23.5753420  50.9083189
  96.9161445  23.0484041  51.6196111  98.1370353  23.1851889  50.7349675
 103.1852538  14.8647753  58.1714455 102.8535863  15.7343164  57.9475670
 102.5898152  14.5484037  58.8508486  96.9208724  18.6043320  45.9044538
  97.0883127  19.4723556  46.2715009  96.7305894  18.7670602  44.9805827
  99.6784058  27.0660299  57.5710368  99.3784781  27.9685338  57.4626175
  99.3335117  26.7992482  58.4231521  93.1296539  23.5174096  53.6047072
  92.2047036  23.3850310  53.8124764  93.3780952  24.2968315  54.1017015
 103.0781201  19.5842839  55.2507805 102.1698079  19.5158247  54.9566566
 103.0268797  20.0614784  56.0789631  96.8997945  21.0600977  46.8891204
  96.7797571  21.5058028  47.7276685  96.2050534  21.4086295  46.3304743
  90.4905350  23.1607369  54.4390862  90.6197731  23.4141848  55.3530273
  89.8102801  23.7535077  54.1195517  94.6604837  33.8304619  50.5381336
  94.5828867  34.7812444  50.6169816  94.0566481  33.4850492  51.1956262
  97.1522067  21.0032484  63.1942703  96.3755401  21.5626405  63.1845567
  97.7912630  21.4889267  63.7157573 104.9442848  17.7859277  57.0285679
 104.3017228  18.0791810  56.3825474 104.4397776  17.6712198  57.8338876
 102.5983012  21.5322450  47.7171539 103.5100868  21.7649837  47.5419236
 102.0892659  22.1159495  47.1546617  95.4068440  23.8117938  62.7560670
  96.1483124  24.3502982  62.4795493  94.7005425  24.4384227  62.9132221
 100.8823779  25.9547078  61.3532831 101.2907135  25.5129489  60.6087463
 100.1601041  25.3799706  61.6067024  97.2354849  20.8919685  58.7266388
  98.0816044  21.3159099  58.8701037  97.1753487  20.2353309  59.4204951
 101.2052594  26.5148269  55.1085120 100.5761456  26.6793983  54.4061188
 100.8178256  26.9289878  55.8796084 105.0841826  27.4502707  52.4629484
 104.3992864  27.8301608  51.9126517 105.1685675  28.0598033  53.1961432
 100.3854295  18.5524053  60.3847562 100.1415226  19.3066114  59.8481837
 100.6614225  18.9309401  61.2194809 102.3392757  25.0962666  59.0624827
 102.5509653  25.7394426  58.3859208 102.2922506  24.2624982  58.5946757
  99.9418986  17.7080486  55.9661399  99.0803465  18.0061740  56.2578137
  99.9681421  17.9250885  55.0342432  96.7580556  26.2522677  52.3735205
  97.2218901  26.5310380  51.5839828  96.4937354  25.3506122  52.1908296
  93.6504637  25.7994159  55.3114968  94.2205994  26.2281427  54.6732453
  94.2412749  25.5176743  56.0099154  95.6949442  22.3745829  49.1824770
  96.3973485  22.8266873  49.6498697  95.3630070  21.7329648  49.8104663
  94.1429803  20.9657586  63.5575980  93.5128464  21.6473867  63.7911376
  94.0365891  20.8540668  62.6129118  89.4374776  20.6329382  54.4841904
  88.6473830  20.8886911  54.0082014  89.9286023  21.4477720  54.5893944
 103.4538585  27.9734621  57.2347185 104.2756029  27.5714809  56.9529866
 103.4500988  27.8702855  58.1863300  91.3889521  20.9973961  51.4425380
  90.5920684  21.1092656  51.9608876  91.1615113  21.3360614  50.5766271
  97.2195189  27.5218665  59.3907895  97.2839621  27.9839072  60.2266067
  96.5106113  26.8916029  59.5190205  87.7212479  20.8859873  56.9156895
  87.9720517  21.7706882  57.1814471  88.2572027  20.7064474  56.1431986
  96.9343206  29.1886772  49.2586875  96.7988881  30.0338308  49.6871723
  97.4753019  29.3906050  48.4952809  93.4210546  15.2678352  65.9201231
  93.0277492  14.7144550  66.5948875  94.2376686  15.5788930  66.3107748
  90.3872604  26.7062210  49.8314801  90.8997124  27.5005460  49.9820365
  91.0395317  26.0088501  49.7648402  92.1967488  29.8227966  51.9137554
  92.3734117  30.7445931  51.7258538  92.9924322  29.5086386  52.3431933
  96.3378507  16.6836231  63.5121487  97.0788220  17.2843384  63.4325950
  96.5696430  15.9413869  62.9539530  91.4819845  21.8692598  61.7899717
  91.3673360  20.9677855  62.0906816  90.6264363  22.1156295  61.4384533
  98.5611683  29.8110339  63.3887218  98.1175537  29.0246717  63.0708122
  99.2228896  29.9989489  62.7231108  93.3198804  31.3406140  57.9147896
  93.8706229  31.2123203  57.1424890  92.4810280  31.6401029  57.5642789
 100.6592921  30.0913138  61.4168619 100.6411396  30.9122020  60.9248888
 101.5812841  29.9667214  61.6418760  97.1165975  27.6057268  62.2592127
  97.6494312  26.8445556  62.0291435  96.5880056  27.3130920  63.0016282
  88.3521521  25.0350864  50.6074371  89.1896743  25.4447873  50.3908079
  88.5299788  24.0950307  50.5774565 100.2485953  22.7025945  46.2958204
  99.7332576  23.4730550  46.5346591  99.9763261  22.0291081  46.9191265
  97.8333064  17.5475646  51.3543442  96.9774660  17.1582496  51.1749081
  98.2460015  17.6267607  50.4943228  99.3632210  15.0821989  55.7535002
  98.8597006  15.0452124  54.9402807  99.6562817  15.9914732  55.8131659
  95.6075096  15.1660719  54.7601184  96.4728093  14.9703527  54.4007073
  95.6752605  14.9371071  55.6870541 105.2220227  25.4558300  48.2311377
 104.4449670  25.1169459  47.7866540 105.9011708  25.4610923  47.5566343
 100.0372256  20.5753037  48.1217985  99.7322391  20.8899186  48.9728128
 100.9902698  20.6534457  48.1645318  98.4818688  26.7343260  49.7710939
  97.9540049  25.9996020  49.4584177  97.9806190  27.5117937  49.5250908
 103.4611534  24.9292281  54.8877985 102.8035208  25.6191542  54.9758114
 104.2651933  25.3188713  55.2311972  93.2137415  17.3962927  52.1317551
  93.7881167  17.1738108  51.3990744  93.8008398  17.4651621  52.8846152
 102.2716993  23.2836654  52.9381927 102.7848874  23.9166645  53.4403637
 102.9218216  22.6837849  52.5725287  93.5407002  19.4267388  46.1513436
  92.7044315  19.7642074  46.4722711  93.4011772  19.2916368  45.2140573
  95.5160083  14.2704176  50.8592620  94.8624495  13.9553193  50.2349235
  95.4740557  13.6479916  51.5852443  96.6271288  24.5523471  42.7745912
  95.7198350  24.3212724  42.9737061  97.1242320  23.7561090  42.9619894
  99.5339367  33.2620978  45.6942598  98.8601066  33.5652675  46.3027556
  99.9205189  34.0650058  45.3448055  98.7497823  20.7586109  55.1840268
  97.8320385  20.9801056  55.0261956  99.1657967  20.8332420  54.3251975
  99.5332871  22.1577525  50.3142948 100.2804690  22.6698922  50.0050070
  99.8024461  21.8361578  51.1747342  97.8059521  24.6536066  47.2969902
  96.8970741  24.3695098  47.3942372  97.8354605  25.0735144  46.4373209
 103.0378789  28.2642655  51.0661070 102.5841116  27.4233565  51.1226260
 102.4072755  28.9004053  51.4035850 101.9811708  19.1934641  52.2961737
 101.2434465  18.6812027  52.6271980 102.2338482  18.7535023  51.4845014
 101.4811728  30.1019152  52.0010888 101.7734702  30.6624209  51.2823254
 101.9910349  30.3947713  52.7564047  88.3747692  22.3741580  51.2785105
  88.1772092  21.7810940  50.5536171  87.8194356  22.0693790  51.9961043
  96.3544415  22.2664686  53.3979698  96.4093025  21.3138523  53.3222174
  95.5435617  22.4224125  53.8820996  97.5035609  26.1944809  44.6357981
  97.0655039  25.4780668  44.1763618  98.2446050  26.4220924  44.0743072
  94.2936775  20.8841746  51.1570077  93.4804641  21.1835916  51.5635269
  94.7895769  20.4897435  51.8744559  96.4445353  30.8799503  53.0904341
  96.4021532  31.1060349  52.1612873  97.3608052  30.6462877  53.2390142
  99.8910987  21.3483570  59.9884970 100.2460375  21.5755044  60.8479436
 100.5383118  21.6801947  59.3662226 105.6208724  24.4702006  50.6934299
 105.4826622  24.6603602  49.7655489 105.2644943  25.2321389  51.1502351
  93.7850850  18.4560101  56.7731311  94.4250229  18.3148861  56.0754275
  92.9528381  18.1694615  56.3969913 105.6478103  26.5378533  55.7045571
 106.0814610  26.4453822  56.5528625 106.3609684  26.5136034  55.0665587
  94.5611154  27.7562532  52.8866304  95.3551752  27.2612852  52.6848879
  93.8502846  27.2280395  52.5234010  99.3805998  30.1380627  57.2378672
  99.4343021  30.7071564  58.0056387  98.5120780  30.3082512  56.8732709
  90.8693917  21.9005614  48.9626057  89.9391505  21.8390069  49.1796019
  90.9651389  21.3781566  48.1662698  90.7879466  18.4260426  51.5504298
  91.0486284  19.3405760  51.4413459  91.6096639  17.9584869  51.7000911
  92.2604392  19.8398184  58.7203123  92.9327445  19.6315546  58.0715772
  91.4334178  19.6420270  58.2808355 106.5093653  26.5802234  58.2378456
 106.7029543  27.4848044  58.4837731 106.4094271  26.1209653  59.0717041
  98.1629964  16.4660125  60.7368784  97.5157879  17.1650074  60.6433260
  98.9330979  16.8996268  61.1045032 101.5708762  26.7308977  63.8119337
 101.4194268  26.5019528  62.8949421 101.5613441  27.6879578  63.8250682
  98.3394098  24.3040889  58.7965603  99.2686158  24.4552049  58.6234571
  97.9185128  24.3924910  57.9414250  97.1382430  28.3291554  56.5664141
  96.9993516  27.9610338  57.4390079  96.3497026  28.8439193  56.3948099
  97.7330582  33.4300650  47.9089678  97.9082338  32.9588693  48.7235300
  97.0463370  34.0566416  48.1370938  98.6887645  27.7073157  53.9552979
  98.3537478  27.6673926  54.8510629  98.1891591  27.0417872  53.4823389
  92.6631889  23.1140787  59.4805560  92.5251687  22.3821025  60.0817099
  93.5736813  23.0249687  59.1989748 101.6246837  25.0529191  44.2290038
 101.0076007  24.3276019  44.1323091 101.1563325  25.8138551  43.8857113
  95.2914190  22.8260746  58.9689240  96.0013808  22.1853938  58.9275858
  95.2483498  23.0773641  59.8915420 103.2800968  29.7628099  61.8895819
 103.2213515  29.0787319  61.2226402 103.6820487  30.5047089  61.4376445
  94.0043124  19.8125964  60.7884879  93.4680481  19.3616702  61.4406475
  93.4159832  19.9471873  60.0455343  92.2991667  36.5790013  54.6829538
  92.5388265  37.2108537  55.3608556  91.4560864  36.2278053  54.9694897
  93.4145383  19.2714615  43.3511343  92.5374849  19.1503416  42.9873589
  93.8903136  18.4800693  43.0990231 103.2818376  27.7267683  60.1209799
 102.3945154  27.3893605  60.2436197 103.8516927  26.9950714  60.3578564
  84.9347523  24.0591775  53.4452850  85.6218563  23.7453505  52.8573865
  84.7795651  24.9633140  53.1720101  89.7382245  18.9481971  57.8737874
  89.6540434  18.3407641  57.1388284  88.9164951  19.4390990  57.8747370
  96.8119529  32.3869136  57.0871042  96.7389701  33.1924107  57.5990346
  96.3696922  32.5861101  56.2619063  96.6009309  31.6240906  50.5973863
  95.8176831  32.1662586  50.6912088  97.3002054  32.1414885  50.9968104
  99.9105959  17.4335535  53.2408069 100.4074658  16.6805497  52.9209139
  99.1392940  17.4699852  52.6751278 107.7635716  23.1375901  54.8826360
 107.7525592  24.0200616  54.5120293 106.8953096  22.7847451  54.6880897
  99.2718213  32.2855970  59.2429200  99.9846185  32.9203434  59.1705102
  98.7808241  32.3819836  58.4269202 100.9935739  26.1907222  50.8146492
 100.0592018  26.3108685  50.6451196 101.1712408  25.2879689  50.5506502
  96.4940928  19.5752918  52.9679753  96.1238715  19.0223958  53.6560659
  96.9900020  18.9711051  52.4154753 104.3808291  22.0324541  51.3496526
 104.8468743  22.8652533  51.2756829 104.8315791  21.5669523  52.0541785
  94.3230126  30.0350413  60.0634771  95.0239586  30.6686896  60.2164165
  93.8525241  30.3765145  59.3030410 102.4484522  28.3768363  48.3482678
 102.7244366  28.2624957  49.2576552 101.5789021  27.9785848  48.3094851
 102.3524954  14.4005128  55.3887428 101.4388033  14.6309355  55.5569634
 102.7818055  14.4843573  56.2401460 102.1231412  22.5895020  57.8887322
 101.4702862  22.8370928  57.2339774 102.5011792  21.7759159  57.5549799
  99.0838586  32.6254714  51.9915492  99.2660980  31.8076370  52.4543244
  99.9071572  32.8422406  51.5540382  99.4180751  31.5522899  49.2530540
  99.9468518  31.0415353  48.6400702  99.6808971  31.2365429  50.1176073
  98.1718985  23.3314832  64.3753359  97.4959622  23.2308961  65.0455734
  98.9946619  23.1754045  64.8389356  89.9197844  29.5686768  56.9965874
  90.5051281  28.8230456  57.1293778  89.7222683  29.8790725  57.8802538
  92.7736499  32.6038015  52.0128316  92.1046875  33.0884143  51.5292356
  92.6349369  32.8507236  52.9271695  84.5115499  22.1392368  55.7170317
  84.5499598  21.6055959  56.5107435  84.0055792  21.6127574  55.0981294
  96.9141768  34.6381759  58.6110975  97.4660076  34.8013380  59.3760060
  97.2547961  35.2286197  57.9390999  91.8906261  16.9856909  59.2132859
  91.9547588  17.8471740  58.8010257  91.8273381  16.3730910  58.4805218
  91.3658534  19.0580041  62.8605894  91.9930573  18.6757119  63.4743418
  90.5086453  18.8394243  63.2261586 101.7652642  29.4643016  64.4659629
 102.3092546  30.0772975  63.9714584 101.1839487  30.0222595  64.9826642
  88.1424076  20.8656470  48.7924248  88.4377518  19.9567149  48.7391302
  87.2412112  20.8444210  48.4705251 100.0510155  32.5863734  55.5974657
  99.9261295  31.7853474  55.0885602 100.7089246  33.0809928  55.1088627
  91.6718323  18.9412467  54.7751797  90.9504909  19.5548435  54.6359270
  92.4611579  19.4770232  54.6968443 102.1145064  30.3872755  57.2254207
 101.1675399  30.2678106  57.1532534 102.4627837  29.4995253  57.3080468
  94.4744637  16.2766893  61.0492449  94.9979039  16.5229190  61.8118758
  94.2556970  17.1086928  60.6295586  89.8711918  18.5470568  48.9163574
  89.5424624  17.6667947  48.7338679  90.2251289  18.4918237  49.8039963
  99.1191497  30.1825471  53.4258559  98.9716459  29.2542178  53.6066129
  99.9444990  30.2045561  52.9415634  92.9853741  18.8343538  49.2839051
  93.3249814  19.3629459  48.5617660  93.4325862  19.1723944  50.0597618
 102.7225619  31.0054030  54.5123432 103.6472166  30.7996891  54.3747883
 102.5540922  30.7570431  55.4212773  95.6797182  17.2180589  58.7342119
  95.3394002  16.4188402  59.1362799  94.9736188  17.5182299  58.1618952
  96.3313654  14.3029901  57.1869442  97.1539723  13.8290379  57.0648333
  96.5751717  15.0820385  57.6868129  94.9721888  17.3318159  47.4832344
  95.6930251  17.7099412  46.9796061  94.3487192  18.0507036  47.5867322
  99.1153011  18.0363308  48.4190676  99.3316626  18.9187946  48.1179504
  98.6347078  17.6449522  47.6896318  93.8552233  20.9949022  54.9961421
  93.7096813  21.3089325  55.8885702  93.3777436  21.6133922  54.4432320
  95.7148616  17.9851570  55.0442310  95.7010184  17.0892663  54.7074608
  96.4321044  17.9922233  55.6780597  97.5674746  18.4188910  57.0895438
  97.3092524  19.3405980  57.0879768  97.0359787  18.0219344  57.7795902
 102.5120935  31.5239697  49.8685523 102.6857813  30.9586119  49.1159376
 103.0049826  32.3240592  49.6865013  88.3297895  23.5354366  57.9349082
  87.7851363  24.3114174  58.0669356  89.2077245  23.8825171  57.7768204
  95.1185511  16.8665950  50.3129881  95.2401423  15.9382596  50.5120768
  94.8287554  16.8804636  49.4008196  97.9876702  14.5520860  53.4496600
  98.0098399  14.6160193  52.4948580  98.4044761  13.7125369  53.6437107
 103.4996107  30.8406461  46.9682422 104.1947012  31.4613154  47.1869736
 103.8419258  29.9901813  47.2434799  89.1163917  22.6624262  60.8279239
  88.3745653  22.8106898  61.4143869  88.7956661  22.9232528  59.9645988
 105.3987531  28.2906167  48.4969752 105.9238855  28.6293440  47.7719072
 105.3109883  27.3553182  48.3132887  97.0607579  32.2040241  60.6259629
  97.3694706  31.9589387  61.4982329  97.8583061  32.4086879  60.1378499
  97.0828191  34.3578150  52.8565006  96.6433182  33.8654529  53.5497862
  97.8336308  33.8151118  52.6157081  89.5620530  30.5489691  52.8589634
  90.3878550  30.2493463  52.4788277  89.2114582  29.7797313  53.3079422
  94.5302063  29.9016159  54.9287307  93.9082073  29.2386864  54.6289535
  95.2006930  29.9277291  54.2460955  87.7629135  28.4676017  53.8178567
  86.9261044  28.0398192  53.6362568  87.7352781  28.6608461  54.7549358
  94.6026591  18.3797947  64.5219813  94.6514746  19.2560070  64.1397583
  95.1449105  17.8375340  63.9491456 105.0881437  28.9239071  63.8020950
 104.2976980  28.9063209  63.2625450 104.8514791  29.4627364  64.5569987
 105.2079312  25.7731537  61.1153679 105.2577317  25.6081544  62.0569202
 105.0993235  24.9058796  60.7251560  94.0915570  28.4520083  48.4045768
  94.2403691  29.1355547  47.7512440  94.8982014  28.4325173  48.9195223
 102.4983074  21.7562465  62.4312986 103.3992937  21.6168930  62.1396983
 102.5731049  21.9216920  63.3711163  96.8325879  19.1329320  61.2766172
  95.9629189  19.4262886  61.0048760  97.0685360  19.7169765  61.9973436
 106.7097509  28.1928478  61.3595700 106.4182317  28.5558459  62.1959161
 106.0969640  27.4795487  61.1809032 104.9584697  23.3161093  59.8275758
 105.4338818  23.5088739  59.0194610 104.0350262  23.3720279  59.5819142
  91.8468203  24.4785260  49.4106837  91.6014245  23.5747590  49.6087047
  92.0164118  24.4802411  48.4686315  99.5364913  15.3508937  58.7931592
 100.0546857  16.0869964  58.4678081  99.1820046  15.6572930  59.6278351
  91.1163851  20.2113618  46.9092998  90.4233096  20.2857973  46.2533034
  90.8715603  19.4473961  47.4314515  97.5910976  30.9468213  45.8757515
  97.0184943  31.5658400  45.4227987  98.1643770  31.4967575  46.4097437
 103.6586366  20.1926853  58.0604064 104.6103789  20.2924951  58.0816288
 103.4889816  19.4005122  58.5702148 101.6800745  17.2782436  58.2463465
 101.0850677  17.5587449  57.5509954 101.3950442  17.7676337  59.0180206
 100.8108236  31.2305363  47.0066097 101.7438909  31.1650925  47.2098973
 100.7231449  32.0661630  46.5480630 103.4396252  30.5471234  43.9670045
 103.3609884  30.2131097  44.8605803 104.2605919  31.0393001  43.9661517
 106.1374444  23.4132973  57.1746364 106.1050764  22.4748974  57.3606047
 106.7475067  23.4917010  56.4412188  97.9757774  22.2829026  43.2173568
  98.9216879  22.1535234  43.2861986  97.5972019  21.5443688  43.6942996
 106.2868932  20.2044016  57.2204647 105.7707981  19.4202473  57.0334576
 107.1708881  19.8762733  57.3851166  97.8596467  26.3346772  64.6774225
  98.7799476  26.5125371  64.8714271  97.8246050  25.3902817  64.5253924
  96.1600692  20.2079002  43.1528453  95.2532147  19.9112115  43.2291166
  96.4376673  19.9108820  42.2862739  87.0778632  21.5285366  53.6027499
  86.7581416  20.6750674  53.3101873  86.5312060  21.7433944  54.3585467
  90.8558540  24.2447807  57.3197006  91.0744549  25.1764914  57.3385040
  91.2684313  23.8855781  58.1051810  97.7762757  14.7515892  49.3072694
  96.9663486  14.4062977  49.6827940  98.4647174  14.4423436  49.8960306
  95.7286405  19.8181012  66.7099755  95.6283132  20.7675369  66.6411846
  95.5107947  19.4899251  65.8375825  94.9299476  17.0665937  43.2940432
  95.7918640  17.3920836  43.5536249  95.1149820  16.2797433  42.7813498
  86.9466892  25.1488277  55.5720621  86.2530363  24.7342230  55.0590575
  87.6939883  25.1908814  54.9754040 103.0832113  15.9394464  50.4375655
 102.5030782  16.5979268  50.0553707 102.8168045  15.1171808  50.0263073
 101.5335679  15.3399522  52.6396975 102.0335457  15.4516056  51.8311294
 102.1771287  15.0360574  53.2797784  95.5917675  23.2478151  65.5264816
  95.1084757  24.0478511  65.7328705  95.6778614  23.2586096  64.5732260
  88.8603634  25.0806531  53.4486636  88.8374323  25.1794218  52.4968519
  89.1704271  25.9271682  53.7703802  91.5191012  27.1382686  57.5633250
  92.4734266  27.1066628  57.4963182  91.3203536  26.6773310  58.3783476
  92.1090394  25.7083802  60.1304048  92.9283283  26.2027881  60.1538885
  92.3827202  24.7915770  60.1021615 101.8656991  18.0994554  49.4932003
 100.9782846  18.3844205  49.2752198 102.2810980  17.9388318  48.6459280
 105.2171527  18.1241075  53.2086343 105.9931917  18.6137528  53.4810959
 104.4919661  18.5499129  53.6658212 107.6544085  18.8368694  54.2660283
 108.2488576  18.5964430  53.5553591 107.7270669  18.1175825  54.8933819
  89.8741241  32.6802305  54.5803448  89.7395709  31.9202706  54.0141446
  89.4573303  33.4043205  54.1132237 101.0100204  27.8639229  43.5880023
 101.7136054  28.0689231  44.2037679 100.2862853  28.4315991  43.8529107
 101.8398014  23.6149090  49.7082293 101.7833216  24.0717642  48.8689926
 102.3926357  22.8539775  49.5305136 105.6502820  19.4038822  50.5332413
 105.3939755  19.0035458  51.3640621 105.0255688  20.1182616  50.4082552
  93.0310367  33.5771622  54.7921891  92.9142751  34.5217055  54.6900581
  92.2102813  33.2745184  55.1807690 102.9186902  28.3021758  45.6378483
 103.7532505  27.8702957  45.4555958 102.7571244  28.1303772  46.5655378
 102.5732794  24.8053871  47.0034823 102.5181598  24.6398143  46.0623267
 101.9478849  25.5129904  47.1597012  87.3625309  20.0421936  60.8296245
  88.0084172  19.5320890  61.3183470  87.1542460  20.7790617  61.4039670
  99.8878701  27.1102783  66.3288385 100.7569861  27.2843436  65.9675020
  99.4085452  27.9297200  66.2064115  95.8828919  14.3061980  46.5820141
  95.8707589  15.2503820  46.7388412  96.7752341  14.1232126  46.2879602
  94.0564881  34.2299884  58.0077819  94.9592128  34.2623495  58.3244314
  93.8302251  33.3000335  58.0224155  95.8118483  32.9830871  54.6687898
  94.8614114  32.9832732  54.5552270  96.1150969  32.2363605  54.1523932
  91.7022800  17.1889553  64.9271259  92.5654261  16.8326358  65.1374584
  91.1288210  16.8503448  65.6146663 104.2147699  40.6254314  51.6592076
 103.6512564  40.5344251  50.8908364 104.1000094  39.8054218  52.1394568
 101.7612131  42.1205505  54.4976296 102.5533422  41.7796330  54.0822596
 102.0008781  42.2300480  55.4178450 103.7202884  41.3814419  47.3693675
 104.4933760  40.8343406  47.2306551 104.0728283  42.2458668  47.5808136
 105.5587927  42.7090801  60.5760574 105.2677793  43.6136432  60.4607241
 106.1944911  42.7507328  61.2904644 106.4844134  40.0867649  57.1661934
 107.0807706  39.8623672  56.4518897 106.5419105  39.3452395  57.7687382
 106.0569162  37.5407085  45.0012125 106.3094683  37.0188606  44.2395588
 105.1193721  37.3773230  45.1038809 105.7765451  39.4435191  47.2036500
 105.6601709  38.7680094  47.8717584 105.8867711  38.9567565  46.3868653
 107.7602479  33.9335237  45.9044538 107.9276881  34.8015474  46.2715009
 107.5699648  34.0962519  44.9805827 103.9690294  38.8466013  53.6047072
 103.0440790  38.7142227  53.8124764 104.2174707  39.6260232  54.1017015
 107.7391700  36.3892895  46.8891204 107.6191325  36.8349946  47.7276685
 107.0444288  36.7378213  46.3304743 101.3299105  38.4899287  54.4390862
 101.4591486  38.7433766  55.3530273 100.6496556  39.0826995  54.1195517
 105.4998592  49.1596537  50.5381336 105.4222622  50.1104362  50.6169816
 104.8960236  48.8142409  51.1956262 106.2462194  39.1409856  62.7560670
 106.9876878  39.6794899  62.4795493 105.5399179  39.7676144  62.9132221
 107.5974310  41.5814595  52.3735205 108.0612656  41.8602298  51.5839828
 107.3331108  40.6798039  52.1908296 104.4898391  41.1286076  55.3114968
 105.0599748  41.5573345  54.6732453 105.0806503  40.8468661  56.0099154
 106.5343196  37.7037747  49.1824770 107.2367240  38.1558791  49.6498697
 106.2023825  37.0621566  49.8104663 104.9823558  36.2949504  63.5575980
 104.3522218  36.9765785  63.7911376 104.8759646  36.1832585  62.6129118
 100.2768530  35.9621300  54.4841904  99.4867584  36.2178828  54.0082014
 100.7679778  36.7769638  54.5893944 102.2283276  36.3265879  51.4425380
 101.4314439  36.4384573  51.9608876 102.0008868  36.6652531  50.5766271
 108.0588943  42.8510582  59.3907895 108.1233376  43.3130989  60.2266067
 107.3499867  42.2207947  59.5190205  98.5606233  36.2151790  56.9156895
  98.8114272  37.0998800  57.1814471  99.0965782  36.0356392  56.1431986
 107.7736961  44.5178690  49.2586875 107.6382636  45.3630225  49.6871723
 108.3146773  44.7197967  48.4952809 104.2604301  30.5970270  65.9201231
 103.8671246  30.0436468  66.5948875 105.0770441  30.9080848  66.3107748
 101.2266358  42.0354128  49.8314801 101.7390879  42.8297378  49.9820365
 101.8789071  41.3380418  49.7648402 103.0361243  45.1519884  51.9137554
 103.2127871  46.0737849  51.7258538 103.8318076  44.8378303  52.3431933
 107.1772261  32.0128149  63.5121487 107.9181975  32.6135302  63.4325950
 107.4090184  31.2705786  62.9539530 102.3213600  37.1984516  61.7899717
 102.2067115  36.2969773  62.0906816 101.4658117  37.4448213  61.4384533
 104.1592558  46.6698058  57.9147896 104.7099984  46.5415121  57.1424890
 103.3204034  46.9692947  57.5642789  99.1915275  40.3642782  50.6074371
 100.0290497  40.7739790  50.3908079  99.3693543  39.4242224  50.5774565
 106.4468851  30.4952636  54.7601184 107.3121847  30.2995445  54.4007073
 106.5146360  30.2662988  55.6870541 104.0531170  32.7254844  52.1317551
 104.6274922  32.5030026  51.3990744 104.6402152  32.7943539  52.8846152
 104.3800757  34.7559305  46.1513436 103.5438069  35.0933992  46.4722711
 104.2405527  34.6208285  45.2140573 106.3553837  29.5996093  50.8592620
 105.7018250  29.2845110  50.2349235 106.3134312  28.9771834  51.5852443
 107.4665042  39.8815388  42.7745912 106.5592104  39.6504642  42.9737061
 107.9636074  39.0853008  42.9619894  99.2141446  37.7033497  51.2785105
  99.0165846  37.1102858  50.5536171  98.6588110  37.3985708  51.9961043
 107.1938170  37.5956604  53.3979698 107.2486780  36.6430440  53.3222174
 106.3829372  37.7516043  53.8820996 105.1330530  36.2133664  51.1570077
 104.3198395  36.5127834  51.5635269 105.6289524  35.8189352  51.8744559
 107.2839108  46.2091421  53.0904341 107.2415286  46.4352267  52.1612873
 108.2001807  45.9754795  53.2390142 104.6244605  33.7852019  56.7731311
 105.2643984  33.6440778  56.0754275 103.7922135  33.4986532  56.3969913
 105.4004908  43.0854450  52.8866304 106.1945507  42.5904770  52.6848879
 104.6896601  42.5572313  52.5234010 101.7087672  37.2297531  48.9626057
 100.7785260  37.1681987  49.1796019 101.8045144  36.7073484  48.1662698
 101.6273221  33.7552344  51.5504298 101.8880038  34.6697677  51.4413459
 102.4490393  33.2876787  51.7000911 103.0998146  35.1690101  58.7203123
 103.7721200  34.9607463  58.0715772 102.2727933  34.9712187  58.2808355
 107.9776184  43.6583472  56.5664141 107.8387270  43.2902256  57.4390079
 107.1890781  44.1731111  56.3948099 103.5025644  38.4432704  59.4805560
 103.3645441  37.7112943  60.0817099 104.4130567  38.3541604  59.1989748
 106.1307944  38.1552664  58.9689240 106.8407563  37.5145856  58.9275858
 106.0877252  38.4065558  59.8915420 104.8436878  35.1417881  60.7884879
 104.3074235  34.6908620  61.4406475 104.2553587  35.2763790  60.0455343
 103.1385422  51.9081931  54.6829538 103.3782020  52.5400455  55.3608556
 102.2954618  51.5569971  54.9694897 104.2539137  34.6006533  43.3511343
 103.3768603  34.4795334  42.9873589 104.7296890  33.8092611  43.0990231
  95.7741277  39.3883693  53.4452850  96.4612317  39.0745423  52.8573865
  95.6189406  40.2925057  53.1720101 100.5775999  34.2773889  57.8737874
 100.4934188  33.6699559  57.1388284  99.7558706  34.7682907  57.8747370
 107.6513284  47.7161053  57.0871042 107.5783455  48.5216025  57.5990346
 107.2090677  47.9153019  56.2619063 107.4403063  46.9532823  50.5973863
 106.6570585  47.4954503  50.6912088 108.1395808  47.4706803  50.9968104
 107.3334682  34.9044836  52.9679753 106.9632470  34.3515876  53.6560659
 107.8293774  34.3002969  52.4154753 105.1623881  45.3642331  60.0634771
 105.8633340  45.9978814  60.2164165 104.6918996  45.7057062  59.3030410
 100.7591599  44.8978686  56.9965874 101.3445035  44.1522374  57.1293778
 100.5616437  45.2082642  57.8802538 103.6130254  47.9329933  52.0128316
 102.9440629  48.4176061  51.5292356 103.4743124  48.1799154  52.9271695
  95.3509253  37.4684286  55.7170317  95.3893353  36.9347877  56.5107435
  94.8449546  36.9419491  55.0981294 107.7535522  49.9673677  58.6110975
 108.3053830  50.1305298  59.3760060 108.0941716  50.5578114  57.9390999
 102.7300016  32.3148826  59.2132859 102.7941342  33.1763657  58.8010257
 102.6667136  31.7022828  58.4805218 102.2052288  34.3871959  62.8605894
 102.8324327  34.0049036  63.4743418 101.3480207  34.1686161  63.2261586
  98.9817831  36.1948388  48.7924248  99.2771272  35.2859067  48.7391302
  98.0805867  36.1736128  48.4705251 102.5112078  34.2704385  54.7751797
 101.7898664  34.8840352  54.6359270 103.3005334  34.8062149  54.6968443
 105.3138391  31.6058811  61.0492449 105.8372793  31.8521108  61.8118758
 105.0950725  32.4378846  60.6295586 100.7105673  33.8762486  48.9163574
 100.3818379  32.9959865  48.7338679 101.0645043  33.8210154  49.8039963
 103.8247496  34.1635456  49.2839051 104.1643568  34.6921377  48.5617660
 104.2719616  34.5015862  50.0597618 106.5190937  32.5472506  58.7342119
 106.1787757  31.7480319  59.1362799 105.8129943  32.8474217  58.1618952
 107.1707408  29.6321819  57.1869442 107.9933478  29.1582297  57.0648333
 107.4145472  30.4112302  57.6868129 105.8115643  32.6610077  47.4832344
 106.5324005  33.0391330  46.9796061 105.1880947  33.3798954  47.5867322
 104.6945987  36.3240939  54.9961421 104.5490568  36.6381242  55.8885702
 104.2171191  36.9425840  54.4432320 106.5542370  33.3143487  55.0442310
 106.5403939  32.4184581  54.7074608 107.2714798  33.3214151  55.6780597
  99.1691649  38.8646284  57.9349082  98.6245117  39.6406092  58.0669356
 100.0470999  39.2117088  57.7768204 105.9579266  32.1957868  50.3129881
 106.0795177  31.2674514  50.5120768 105.6681308  32.2096554  49.4008196
  99.9557671  37.9916180  60.8279239  99.2139407  38.1398815  61.4143869
  99.6350415  38.2524446  59.9645988 100.4014285  45.8781609  52.8589634
 101.2272305  45.5785381  52.4788277 100.0508337  45.1089231  53.3079422
 105.3695818  45.2308077  54.9287307 104.7475827  44.5678782  54.6289535
 106.0400685  45.2569209  54.2460955  98.6022890  43.7967935  53.8178567
  97.7654798  43.3690110  53.6362568  98.5746535  43.9900379  54.7549358
 105.4420345  33.7089865  64.5219813 105.4908501  34.5851988  64.1397583
 105.9842860  33.1667258  63.9491456 104.9309325  43.7812000  48.4045768
 105.0797445  44.4647465  47.7512440 105.7375768  43.7617090  48.9195223
 107.6719634  34.4621237  61.2766172 106.8022943  34.7554803  61.0048760
 107.9079114  35.0461682  61.9973436 102.6861958  39.8077178  49.4106837
 102.4408000  38.9039508  49.6087047 102.8557872  39.8094328  48.4686315
 101.9557605  35.5405536  46.9092998 101.2626850  35.6149890  46.2533034
 101.7109357  34.7765879  47.4314515 106.9994446  35.5370920  43.1528453
 106.0925901  35.2404033  43.2291166 107.2770427  35.2400738  42.2862739
  97.9172386  36.8577283  53.6027499  97.5975171  36.0042591  53.3101873
  97.3705815  37.0725861  54.3585467 101.6952294  39.5739724  57.3197006
 101.9138304  40.5056832  57.3385040 102.1078068  39.2147699  58.1051810
 106.5680159  35.1472930  66.7099755 106.4676886  36.0967287  66.6411846
 106.3501701  34.8191169  65.8375825 105.7693231  32.3957855  43.2940432
 106.6312395  32.7212753  43.5536249 105.9543575  31.6089351  42.7813498
  97.7860646  40.4780195  55.5720621  97.0924118  40.0634148  55.0590575
  98.5333637  40.5200731  54.9754040 106.4311429  38.5770069  65.5264816
 105.9478511  39.3770429  65.7328705 106.5172368  38.5878014  64.5732260
  99.6997389  40.4098449  53.4486636  99.6768077  40.5086136  52.4968519
 100.0098025  41.2563599  53.7703802 102.3584767  42.4674604  57.5633250
 103.3128020  42.4358546  57.4963182 102.1597290  42.0065227  58.3783476
 102.9484149  41.0375720  60.1304048 103.7677038  41.5319798  60.1538885
 103.2220957  40.1207688  60.1021615 100.7134996  48.0094223  54.5803448
 100.5789464  47.2494624  54.0141446 100.2967058  48.7335123  54.1132237
 103.8704122  48.9063540  54.7921891 103.7536506  49.8508973  54.6900581
 103.0496568  48.6037102  55.1807690  98.2019063  35.3713854  60.8296245
  98.8477927  34.8612807  61.3183470  97.9936214  36.1082535  61.4039670
 106.7222674  29.6353898  46.5820141 106.7101344  30.5795738  46.7388412
 107.6146096  29.4524044  46.2879602 104.8958636  49.5591802  58.0077819
 105.7985882  49.5915412  58.3244314 104.6696006  48.6292253  58.0224155
 106.6512238  48.3122789  54.6687898 105.7007869  48.3124650  54.5552270
 106.9544724  47.5655523  54.1523932 102.5416554  32.5181471  64.9271259
 103.4048016  32.1618275  65.1374584 101.9681965  32.1795365  65.6146663
 106.6135032  54.7175610  53.4452850 107.3006072  54.4037340  52.8573865
 106.4583160  55.6216975  53.1720101 106.1903008  52.7976204  55.7170317
 106.2287107  52.2639794  56.5107435 105.6843301  52.2711409  55.0981294
  92.2991668  13.5852136  41.4074844  92.5388267  14.2170660  42.0853863
  91.4560865  13.2340176  41.6940204 104.2147700  17.6316436  38.3837382
 103.6512565  17.5406373  37.6153670 104.1000095  16.8116341  38.8639875
 101.7612132  19.1267628  41.2221603 102.5533424  18.7858453  40.8067902
 102.0008782  19.2362603  42.1423756 103.7202886  18.3876541  34.0938982
 104.4933762  17.8405528  33.9551857 104.0728285  19.2520791  34.3053443
 105.5587928  19.7152923  47.3005881 105.2677794  20.6198554  47.1852547
 106.1944913  19.7569451  48.0149951 106.4844135  17.0929772  43.8907241
 107.0807707  16.8685794  43.1764204 106.5419107  16.3514517  44.4932688
 105.7765452  16.4497313  33.9281807 105.6601710  15.7742217  34.5962891
 105.8867712  15.9629687  33.1113960 103.9690295  15.8528136  40.3292379
 103.0440791  15.7204350  40.5370071 104.2174708  16.6322355  40.8262321
 101.3299106  15.4961409  41.1636168 101.4591487  15.7495888  42.0775580
 100.6496557  16.0889117  40.8440823 105.4998593  26.1658659  37.2626642
 105.4222623  27.1166484  37.3415123 104.8960237  25.8204532  37.9201569
 106.2462195  16.1471978  49.4805976 106.9876880  16.6857022  49.2040800
 105.5399181  16.7738267  49.6377528 107.5974311  18.5876717  39.0980512
 108.0612657  18.8664420  38.3085134 107.3331110  17.6860162  38.9153602
 104.4898393  18.1348199  42.0360275 105.0599750  18.5635467  41.3977759
 105.0806504  17.8530784  42.7344461 108.0588944  19.8572705  46.1153202
 108.1233377  20.3193112  46.9511374 107.3499868  19.2270070  46.2435512
  98.5606234  13.2213913  43.6402201  98.8114273  14.1060923  43.9059777
  99.0965783  13.0418514  42.8677293 107.7736962  21.5240812  35.9832182
 107.6382637  22.3692348  36.4117030 108.3146775  21.7260090  35.2198116
 101.2266360  19.0416250  36.5560107 101.7390880  19.8359501  36.7065672
 101.8789072  18.3442541  36.4893709 103.0361244  22.1582007  38.6382860
 103.2127873  23.0799971  38.4503844 103.8318078  21.8440426  39.0677240
 104.1592560  23.6760180  44.6393203 104.7099985  23.5477244  43.8670197
 103.3204036  23.9755069  44.2888095  99.1915276  17.3704905  37.3319678
 100.0290498  17.7801913  37.1153385  99.3693544  16.4304347  37.3019872
  99.2141447  14.7095620  38.0030411  99.0165847  14.1164981  37.2781478
  98.6588111  14.4047830  38.7206350 107.2839109  23.2153543  39.8149648
 107.2415288  23.4414389  38.8858180 108.2001808  22.9816918  39.9635449
 105.4004910  20.0916572  39.6111611 106.1945508  19.5966892  39.4094186
 104.6896602  19.5634435  39.2479316 107.9776186  20.6645594  43.2909448
 107.8387271  20.2964379  44.1635386 107.1890782  21.1793234  43.1193405
 103.5025645  15.4494827  46.2050867 103.3645443  14.7175066  46.8062406
 104.4130568  15.3603727  45.9235054 103.1385423  28.9144053  41.4074844
 103.3782021  29.5462577  42.0853863 102.2954619  28.5632093  41.6940204
  95.7741279  16.3945815  40.1698157  96.4612318  16.0807545  39.5819172
  95.6189407  17.2987180  39.8965408 107.6513285  24.7223176  43.8116348
 107.5783456  25.5278147  44.3235653 107.2090678  24.9215142  42.9864370
 107.4403064  23.9594946  37.3219170 106.6570586  24.5016626  37.4157394
 108.1395810  24.4768925  37.7213411 105.1623882  22.3704453  46.7880078
 105.8633341  23.0040936  46.9409472 104.6918997  22.7119185  46.0275717
 100.7591600  21.9040808  43.7211181 101.3445037  21.1584496  43.8539085
 100.5616438  22.2144765  44.6047844 103.6130255  24.9392056  38.7373623
 102.9440630  25.4238183  38.2537663 103.4743125  25.1861276  39.6517001
  95.3509255  14.4746409  42.4415624  95.3893354  13.9409999  43.2352742
  94.8449547  13.9481614  41.8226601 107.7535524  26.9735799  45.3356281
 108.3053832  27.1367421  46.1005366 108.0941717  27.5640237  44.6636306
  99.1691651  15.8708406  44.6594389  98.6245119  16.6468214  44.7914663
 100.0471000  16.2179211  44.5013510  99.9557672  14.9978303  47.5524546
  99.2139408  15.1460938  48.1389176  99.6350417  15.2586568  46.6891295
 100.4014286  22.8843731  39.5834940 101.2272306  22.5847503  39.2033584
 100.0508338  22.1151354  40.0324729 105.3695819  22.2370200  41.6532614
 104.7475829  21.5740905  41.3534842 106.0400686  22.2631331  40.9706262
  98.6022891  20.8030058  40.5423874  97.7654799  20.3752232  40.3607875
  98.5746537  20.9962501  41.4794665 104.9309326  20.7874123  35.1291074
 105.0797447  21.4709587  34.4757747 105.7375770  20.7679213  35.6440530
 102.6861959  16.8139301  36.1352143 102.4408001  15.9101631  36.3332353
 102.8557874  16.8156451  35.1931621  97.9172388  13.8639406  40.3272806
  97.5975172  13.0104714  40.0347180  97.3705816  14.0787984  41.0830773
 101.6952295  16.5801847  44.0442312 101.9138305  17.5118955  44.0630346
 102.1078069  16.2209821  44.8297116  97.7860648  17.4842317  42.2965928
  97.0924119  17.0696270  41.7835882  98.5333639  17.5262854  41.6999346
 106.4311431  15.5832191  52.2510123 105.9478512  16.3832552  52.4574012
 106.5172370  15.5940136  51.2977567  99.6997390  17.4160571  40.1731942
  99.6768078  17.5148258  39.2213825 100.0098027  18.2625722  40.4949109
 102.3584768  19.4736726  44.2878557 103.3128022  19.4420669  44.2208488
 102.1597292  19.0127350  45.1028783 102.9484150  18.0437842  46.8549354
 103.7677039  18.5381921  46.8784192 103.2220958  17.1269810  46.8266922
 100.7134997  25.0156346  41.3048755 100.5789465  24.2556747  40.7386753
 100.2967059  25.7397246  40.8377544 103.8704123  25.9125663  41.5167197
 103.7536507  26.8571095  41.4145888 103.0496569  25.6099224  41.9052997
 104.8958637  26.5653925  44.7323126 105.7985884  26.5977535  45.0489621
 104.6696007  25.6354376  44.7469462 106.6512239  25.3184911  41.3933204
 105.7007870  25.3186773  41.2797577 106.9544725  24.5717646  40.8769239
 106.6135033  31.7237733  40.1698157 107.3006073  31.4099463  39.5819172
 106.4583162  32.6279097  39.8965408 106.1903009  29.8038326  42.4415624
 106.2287109  29.2701917  43.2352742 105.6843302  29.2773532  41.8226601
  12.8189326  48.5912899  98.7961369  12.1451025  48.8944596  99.4046327
  13.2055148  49.3941979  98.4466826  16.7246211  45.8763155  97.0688815
  16.6459843  45.5423018  97.9624573  17.5455878  46.3684923  97.0680288
  14.2950163  43.1931150  96.6898794  14.9986013  43.3981153  97.3056449
  13.5712812  43.7607912  96.9547877  17.4997658  55.9546235 104.7610846
  16.9362523  55.8636172 103.9927134  17.3850053  55.1346139 105.2413339
  23.0797216  59.6217203 100.0725311  22.4285196  60.2071283  99.6859325
  23.8741579  60.1523398 100.1320349  17.0052844  56.7106340 100.4712445
  17.7783720  56.1635327 100.3325321  17.3578242  57.5750589 100.6826907
  19.3419121  52.8699006  98.1030895  19.5944642  52.3480527  97.3414358
  18.4043680  52.7065151  98.2057579  24.3862404  51.8734784 105.9105639
  25.1725493  51.4554207 105.5596056  24.6501109  52.7780877 106.0787287
  24.5572482  57.3107635 100.6094295  23.9218315  57.3842261 101.3215200
  24.2269888  57.9001233  99.9313375  29.7870831  51.8110018 106.8138617
  30.5196003  51.2409234 107.0476447  29.0310187  51.4231618 107.2545123
  19.0615410  54.7727112 100.3055270  18.9451668  54.0972015 100.9736355
  19.1717670  54.2859486  99.4887423  21.4046951  54.2337259 104.0101960
  21.0405158  53.7067880 104.7214881  22.2614067  53.8435728 103.8368445
  21.0452438  49.2627159  99.0063308  21.2126840  50.1307395  99.3733779
  20.8549607  49.4254440  98.0824597  21.0241659  51.7184816  99.9909975
  20.9041284  52.1641867 100.8295455  20.3294247  52.0670134  99.4323513
  18.7848551  64.4888458 103.6400106  18.7072581  65.4396283 103.7188587
  18.1810195  64.1434330 104.2975032  26.7226725  52.1906289 100.8190309
  27.6344581  52.4233676 100.6438006  26.2136372  52.7743334 100.2565388
  25.3296307  57.1732108 108.2103890  24.7005170  57.3377822 107.5079958
  24.9421969  57.5873717 108.9814854  29.2085539  58.1086546 105.5648254
  28.5236577  58.4885447 105.0145287  29.2929389  58.7181872 106.2980202
  20.8824269  56.9106516 105.4753975  21.3462615  57.1894219 104.6858598
  20.6181067  56.0089961 105.2927066  19.8193155  53.0329668 102.2843541
  20.5217199  53.4850712 102.7517467  19.4873784  52.3913487 102.9123434
  27.5782299  58.6318460 110.3365955  28.3999743  58.2298647 110.0548637
  27.5744702  58.5286694 111.2882071  35.6688292  54.9757209 106.6850926
  34.9152000  54.4064607 106.5294931  35.8035833  54.9419873 107.6321561
  21.0586920  59.8470611 102.3605646  20.9232595  60.6922147 102.7890494
  21.5996732  60.0489889 101.5971580  14.5116317  57.3646049 102.9333571
  15.0240838  58.1589299 103.0839136  15.1639030  56.6672339 102.8667172
  16.3211202  60.4811805 105.0156324  16.4977830  61.4029770 104.8277308
  17.1168036  60.1670224 105.4450704  24.3729666  53.3609784  99.3976974
  23.8576290  54.1314389  99.6365362  24.1006975  52.6874920 100.0210036
  29.3463940  56.1142139 101.3330148  28.5693383  55.7753298 100.8885310
  30.0255421  56.1194762 100.6585113  24.1615969  51.2336876 101.2236756
  23.8566105  51.5483025 102.0746899  25.1146412  51.3118296 101.2664089
  22.6062401  57.3927099 102.8729710  22.0783763  56.6579859 102.5602947
  22.1049904  58.1701776 102.6269678  27.5855247  55.5876120 107.9896756
  26.9278922  56.2775381 108.0776884  28.3895646  55.9772552 108.3330742
  26.3960706  53.9420493 106.0400698  26.9092588  54.5750484 106.5422407
  27.0461930  53.3421688 105.6744058  17.6650716  50.0851227  99.2532206
  16.8288028  50.4225913  99.5741481  17.5255486  49.9500206  98.3159343
  20.7515001  55.2107310  95.8764683  19.8442063  54.9796563  96.0755832
  21.2486033  54.4144929  96.0638664  23.6583080  63.9204817  98.7961369
  22.9844779  64.2236514  99.4046327  24.0448902  64.7233897  98.4466826
  23.6576585  52.8161364 103.4161718  24.4048404  53.3282761 103.1068840
  23.9268174  52.4945416 104.2766112  21.9303235  55.3119904 100.3988673
  21.0214454  55.0278937 100.4961142  21.9598319  55.7318983  99.5391980
  27.1622502  58.9226494 104.1679840  26.7084829  58.0817404 104.2245031
  26.5316469  59.5587892 104.5054620  26.1055422  49.8518480 105.3980508
  25.3678179  49.3395866 105.7290750  26.3582195  49.4118862 104.5863785
  25.6055441  60.7602991 105.1029658  25.8978416  61.3208048 104.3842024
  26.1154062  61.0531552 105.8582817  21.6279323  56.8528648  97.7376751
  21.1898753  56.1364507  97.2782389  22.3689764  57.0804763  97.1761843
  20.5689067  61.5383342 106.1923112  20.5265245  61.7644188 105.2631644
  21.4851766  61.3046716 106.3408913  29.7452437  55.1285845 103.7953070
  29.6070336  55.3187441 102.8674259  29.3888656  55.8905228 104.2521121
  29.7721817  57.1962372 108.8064341  30.2058324  57.1037661 109.6547395
  30.4853398  57.1719873 108.1684357  18.6854867  58.4146371 105.9885074
  19.4795466  57.9196691 105.7867649  17.9746560  57.8864234 105.6252780
  23.5049712  60.7964466 110.3397442  23.5586734  61.3655403 111.1075158
  22.6364493  60.9666351 109.9751479  14.9937631  52.5589452 102.0644827
  14.0635219  52.4973908 102.2814789  15.0895103  52.0365405 101.2681468
  21.8574295  64.0884489 101.0108448  22.0326051  63.6172532 101.8254071
  21.1707083  64.7150255 101.2389709  22.8131359  58.3656995 107.0571749
  22.4781191  58.3257765 107.9529399  22.3135304  57.7001711 106.5842159
  25.7490550  55.7113030  97.3308809  25.1319721  54.9859858  97.2341862
  25.2807039  56.4722390  96.9875883  17.5389096  49.9298454  96.4530113
  16.6618562  49.8087255  96.0892360  18.0146849  49.1384532  96.2009002
  20.7253022  62.2824744 103.6992634  19.9420544  62.8246425 103.7930858
  21.4245767  62.7998724 104.0986875  31.8879430  53.7959739 107.9845131
  31.8769306  54.6784455 107.6139064  31.0196809  53.4431290 107.7899668
  25.1179453  56.8491061 103.9165262  24.1835732  56.9692524 103.7469967
  25.2956121  55.9463528 103.6525272  28.5052004  52.6908380 104.4515297
  28.9712457  53.5236372 104.3775599  28.9559505  52.2253362 105.1560555
  26.5728235  59.0352202 101.4501449  26.8488079  58.9208796 102.3595323
  25.7032734  58.6369687 101.4113622  23.2082299  63.2838553 105.0934262
  23.3904694  62.4660208 105.5562015  24.0315285  63.5006245 104.6559152
  23.5424465  62.2106738 102.3549311  24.0712231  61.6999192 101.7419473
  23.8052685  61.8949268 103.2194844  16.8980213  63.2621854 105.1147087
  16.2290588  63.7467982 104.6311127  16.7593083  63.5091075 106.0290465
  24.1753869  63.2447573 108.6993427  24.0505008  62.4437313 108.1904373
  24.8332960  63.7393767 108.2107397  26.2388777  61.0456593 110.3272977
  25.2919113  60.9261945 110.2551304  26.5871550  60.1579092 110.4099239
  23.2435210  60.8409310 106.5277329  23.0960173  59.9126017 106.7084900
  24.0688704  60.8629400 106.0434405  26.8469332  61.6637868 107.6142202
  27.7715880  61.4580730 107.4766653  26.6784636  61.4154270 108.5231544
  19.0965602  47.9901998 100.5851114  19.8173964  48.3683251 100.0814831
  18.4730906  48.7090875 100.6886092  23.2396725  48.6947147 101.5209447
  23.4560339  49.5771785 101.2198275  22.7590792  48.3033361 100.7915089
  26.6364649  62.1823536 102.9704294  26.8101526  61.6169958 102.2178146
  27.1293540  62.9824431 102.7883784  32.4904040  54.9459959 104.5894593
  32.9335186  54.1967284 104.1913717  31.6130550  54.9370095 104.2068325
  27.6239821  61.4990300 100.0701192  28.3190726  62.1196993 100.2888507
  27.9662971  60.6485652 100.3453570  29.5231244  58.9490006 101.5988523
  30.0482568  59.2877279 100.8737843  29.4353597  58.0137021 101.4151657
  21.2071905  65.0161989 105.9583776  20.7676895  64.5238368 106.6516633
  21.9580022  64.4734957 105.7175851  18.6545777  60.5599998 108.0306078
  18.0325786  59.8970703 107.7308305  19.3250644  60.5861130 107.3479725
  18.2159284  59.1103922 101.5064538  18.3647404  59.7939386 100.8531211
  19.0225727  59.0909012 102.0213994  32.0336904  56.4165197 106.9817041
  32.8683796  56.8555001 107.1454601  32.1696033  55.9403850 106.1625287
  15.9711917  55.1369099 102.5125607  15.7257959  54.2331429 102.7105817
  16.1407831  55.1386250 101.5705085  15.2407564  50.8697457 100.0111768
  14.5476809  50.9441812  99.3551804  14.9959316  50.1057800 100.5333285
  21.7154689  61.6052052  98.9776286  21.1428657  62.2242239  98.5246757
  22.2887483  62.1551414  99.5116207  24.9351949  61.8889202 100.1084868
  25.8682622  61.8234764 100.3117743  24.8475162  62.7245469  99.6499400
  27.5639966  61.2055072  97.0688815  27.4853597  60.8714936  97.9624573
  28.3849633  61.6976840  97.0680288  22.1001488  52.9412865  96.3192338
  23.0460593  52.8119073  96.3880756  21.7215733  52.2027527  96.7961766
  36.0794707  55.1332819 109.4171171  36.8098095  54.8718107 109.9778874
  35.4701652  54.3961541 109.4573239  34.1610004  53.2740681 110.0145622
  33.4343168  53.1396646 109.4062114  33.7457291  53.5817510 110.8202340
  20.2844405  50.8662841  96.2547223  19.3775861  50.5695954  96.3309937
  20.5620386  50.5692659  95.3881509  19.0543190  47.7249776  96.3959202
  19.9162354  48.0504675  96.6555020  19.2393534  46.9381272  95.8832268
  27.2075826  46.5978303 103.5394425  26.6274495  47.2563107 103.1572478
  26.9411759  45.7755647 103.1281843  25.9900704  48.7578393 102.5950774
  25.1026559  49.0428044 102.3770968  26.4054693  48.5972157 101.7478051
  29.3415240  48.7824914 106.3105113  30.1175630  49.2721367 106.5829730
  28.6163375  49.2082968 106.7676982  31.7787799  49.4952533 107.3679054
  32.3732290  49.2548269 106.6572362  31.8514383  48.7759664 107.9952590
  25.1343918  58.5223068  96.6898794  25.8379768  58.7273070  97.3056449
  24.4106566  59.0899830  96.9547877  25.9641728  54.2732929 102.8101064
  25.9076929  54.7301481 101.9708696  26.5170070  53.5123614 102.6323907
  29.7746534  50.0622661 103.6351183  29.5183468  49.6619297 104.4659391
  29.1499402  50.7766455 103.5101323  34.0858872  52.8018734 106.1422475
  33.5258430  52.8711924 106.9154037  33.4802375  52.6259719 105.4221971
  27.0430615  58.9605597  98.7397254  27.8776219  58.5286796  98.5574729
  26.8814958  58.7887611  99.6674148  26.6976507  55.4637710 100.1053593
  26.6425311  55.2981982  99.1642037  26.0722563  56.1713743 100.2615783
  20.0072633  44.9645819  99.6838911  19.9951303  45.9087659  99.8407182
  20.8996055  44.7815965  99.3898373  19.9362197  63.6414710 107.7706668
  18.9857828  63.6416571 107.6571040  20.2394683  62.8947444 107.2542703
  35.6714890  69.4775248 108.8352431  36.3093300  69.3581996 108.1315771
  35.5535733  70.4256092 108.8940383  32.4804596  69.4302676 108.7713955
  32.1423108  69.3143741 107.8834490  33.3494365  69.0293841 108.7514961
  28.3391412  71.2838153 104.7610846  27.7756277  71.1928090 103.9927134
  28.2243807  70.4638057 105.2413339  32.9624379  70.5837528 114.7300161
  32.9513020  70.1890326 113.8580664  33.1245019  69.8503601 115.3233932
  25.8855844  72.7789344 107.5995067  26.6777136  72.4380169 107.1841366
  26.1252494  72.8884319 108.5197220  33.9190971  74.9509120 100.0725311
  33.2678951  75.5363201  99.6859325  34.7135334  75.4815315 100.1320349
  27.8446598  72.0398258 100.4712445  28.6177474  71.4927245 100.3325321
  28.1971997  72.9042507 100.6826907  30.6087847  70.7451488 110.2680704
  31.2051420  70.5207511 109.5537667  30.6662819  70.0036234 110.8706152
  30.1812876  68.1990924  98.1030895  30.4338397  67.6772445  97.3414358
  29.2437435  68.0357069  98.2057579  35.2256159  67.2026702 105.9105639
  36.0119248  66.7846125 105.5596056  35.4894863  68.1072794 106.0787287
  35.3966236  72.6399552 100.6094295  34.7612069  72.7134179 101.3215200
  35.0663642  73.2293151  99.9313375  40.6264586  67.1401935 106.8138617
  41.3589758  66.5701152 107.0476447  39.8703942  66.7523536 107.2545123
  29.9009165  70.1019030 100.3055270  29.7845423  69.4263933 100.9736355
  30.0111424  69.6151404  99.4887423  32.2440706  69.5629177 104.0101960
  31.8798913  69.0359798 104.7214881  33.1007821  69.1727646 103.8368445
  38.1490006  60.8523509 111.2733226  37.8173331  61.7218920 111.0494441
  37.5535620  60.5359793 111.9527256  31.8846193  64.5919076  99.0063308
  32.0520595  65.4599313  99.3733779  31.6943362  64.7546358  98.0824597
  34.6421526  73.0536055 110.6729138  34.3422249  73.9561094 110.5644946
  34.2972585  72.7868239 111.5250291  28.0934007  69.5049852 106.7065843
  27.1684504  69.3726066 106.9143535  28.3418420  70.2844071 107.2035785
  38.0418669  65.5718596 108.3526576  37.1335547  65.5034004 108.0585337
  37.9906265  66.0490540 109.1808401  31.8635413  67.0476734  99.9909975
  31.7435039  67.4933785 100.8295455  31.1688002  67.3962052  99.4323513
  25.4542818  69.1483126 107.5409632  25.5835199  69.4017605 108.4549044
  24.7740270  69.7410834 107.2214287  29.6242305  79.8180376 103.6400106
  29.5466335  80.7688201 103.7188587  29.0203949  79.4726248 104.2975032
  39.9080316  63.7735034 110.1304450  39.2654696  64.0667567 109.4844244
  39.4035244  63.6587954 110.9357646  37.5620480  67.5198207 100.8190309
  38.4738336  67.7525594 100.6438006  37.0530127  68.1035251 100.2565388
  35.8461247  71.9422835 114.4551601  36.2544603  71.5005245 113.7106234
  35.1238509  71.3675462 114.7085794  32.1992317  66.8795442 111.8285158
  33.0453512  67.3034855 111.9719807  32.1390955  66.2229066 112.5223722
  36.1690062  72.5024026 108.2103890  35.5398924  72.6669740 107.5079958
  35.7815724  72.9165635 108.9814854  40.0479294  73.4378463 105.5648254
  39.3630332  73.8177365 105.0145287  40.1323143  74.0473790 106.2980202
  35.3491763  64.5399810 113.4866332  35.1052694  65.2941871 112.9500608
  35.6251693  64.9185158 114.3213579  37.3030225  71.0838422 112.1643598
  37.5147121  71.7270182 111.4877979  37.2559974  70.2500739 111.6965528
  34.9056454  63.6956243 109.0680170  34.0440933  63.9937497 109.3596907
  34.9318889  63.9126642 108.1361202  31.7218024  72.2398434 105.4753975
  32.1856369  72.5186137 104.6858598  31.4574822  71.3381878 105.2927066
  28.6142105  71.7869915 108.4133739  29.1843462  72.2157184 107.7751223
  29.2050217  71.5052500 109.1117924  30.6586910  68.3621586 102.2843541
  31.3610953  68.8142630 102.7517467  30.3267538  67.7205405 102.9123434
  24.4012244  66.6205139 107.5860674  23.6111298  66.8762667 107.1100785
  24.8923491  67.4353477 107.6912715  38.4176053  73.9610378 110.3365955
  39.2393497  73.5590565 110.0548637  38.4138456  73.8578612 111.2882071
  26.3526989  66.9849718 104.5444151  25.5558152  67.0968412 105.0627647
  26.1252581  67.3236370 103.6785041  46.5082046  70.3049126 106.6850926
  45.7545755  69.7356524 106.5294931  46.6429588  70.2711791 107.6321561
  31.8980674  75.1762529 102.3605646  31.7626349  76.0214064 102.7890494
  32.4390487  75.3781806 101.5971580  25.3510072  72.6937967 102.9333571
  25.8634592  73.4881217 103.0839136  26.0032785  71.9964257 102.8667172
  27.1604956  75.8103723 105.0156324  27.3371585  76.7321688 104.8277308
  27.9561790  75.4962142 105.4450704  35.6230389  76.0788895 114.5187389
  35.6048864  76.8997776 114.0267658  36.5450309  75.9542970 114.7437530
  35.2473138  58.6993090 110.8904539  34.9037407  59.5894732 110.8143650
  35.6152101  58.5094748 110.0274124  23.3158989  71.0226621 103.7093141
  24.1534211  71.4323629 103.4926849  23.4937256  70.0826063 103.6793335
  35.2123421  68.6901702  99.3976974  34.6970044  69.4606306  99.6365362
  34.9400729  68.0166838 100.0210036  32.7970532  63.5351402 104.4562213
  31.9412128  63.1458253 104.2767851  33.2097483  63.6143363 103.5961998
  34.3269678  61.0697746 108.8553773  33.8234474  61.0327881 108.0421578
  34.6200285  61.9790488 108.9150429  30.5712564  61.1536475 107.8619954
  31.4365561  60.9579284 107.5025844  30.6390073  60.9246827 108.7889311
  40.1857695  71.4434056 101.3330148  39.4087138  71.1045216 100.8885310
  40.8649176  71.4486679 100.6585113  35.0009724  66.5628794 101.2236756
  34.6959859  66.8774943 102.0746899  35.9540166  66.6410214 101.2664089
  33.4456156  72.7219017 102.8729710  32.9177517  71.9871777 102.5602947
  32.9443658  73.4993693 102.6269678  38.4249002  70.9168038 107.9896756
  37.7672676  71.6067299 108.0776884  39.2289401  71.3064469 108.3330742
  28.1774883  63.3838683 105.2336321  28.7518635  63.1613865 104.5009514
  28.7645866  63.4527378 105.9864922  37.2354461  69.2712410 106.0400698
  37.7486342  69.9042402 106.5422407  37.8855684  68.6713606 105.6744058
  28.5044470  65.4143144  99.2532206  27.6681783  65.7517831  99.5741481
  28.3649240  65.2792124  98.3159343  30.4797551  60.2579932 103.9611390
  29.8261963  59.9428949 103.3368005  30.4378025  59.6355673 104.6871213
  31.5908756  70.5399227  95.8764683  30.6835818  70.3088481  96.0755832
  32.0879788  69.7436847  96.0638664  34.4976835  79.2496734  98.7961369
  33.8238534  79.5528431  99.4046327  34.8842657  80.0525815  98.4466826
  33.7135291  66.7461866 108.2859038  32.7957853  66.9676813 108.1280726
  34.1295435  66.8208176 107.4270745  34.4970339  68.1453281 103.4161718
  35.2442158  68.6574679 103.1068840  34.7661929  67.8237334 104.2766112
  32.7696989  70.6411822 100.3988673  31.8608209  70.3570855 100.4961142
  32.7992073  71.0610901  99.5391980  38.0016257  74.2518412 104.1679840
  37.5478584  73.4109322 104.2245031  37.3710223  74.8879810 104.5054620
  36.9449176  65.1810398 105.3980508  36.2071933  64.6687784 105.7290750
  37.1975950  64.7410779 104.5863785  36.4449196  76.0894908 105.1029658
  36.7372170  76.6499965 104.3842024  36.9547817  76.3823469 105.8582817
  37.0460804  57.9586650 105.9922277  37.3519680  57.0984013 105.7048192
  37.7713408  58.5504270 105.7921271  23.3385160  68.3617336 104.3803875
  23.1409560  67.7686697 103.6554941  22.7831824  68.0569546 105.0979814
  31.3181883  68.2540443 106.4998468  31.3730493  67.3014279 106.4240945
  30.5073085  68.4099882 106.9839766  32.4673077  72.1820566  97.7376751
  32.0292507  71.4656425  97.2782389  33.2083518  72.4096681  97.1761843
  29.2574243  66.8717502 104.2588847  28.4442109  67.1711673 104.6654039
  29.7533237  66.4773191 104.9763329  31.4082821  76.8675259 106.1923112
  31.3659000  77.0936106 105.2631644  32.3245520  76.6338634 106.3408913
  34.8548455  67.3359327 113.0903741  35.2097843  67.5630800 113.9498207
  35.5020586  67.6677704 112.4680996  40.5846192  70.4577763 103.7953070
  40.4464091  70.6479359 102.8674259  40.2282411  71.2197146 104.2521121
  28.7488318  64.4435858 109.8750082  29.3887697  64.3024617 109.1773045
  27.9165849  64.1570371 109.4988684  40.6115572  72.5254290 108.8064341
  41.0452078  72.4329579 109.6547395  41.3247152  72.5011790 108.1684357
  29.5248622  73.7438288 105.9885074  30.3189220  73.2488609 105.7867649
  28.8140314  73.2156152 105.6252780  34.3443466  76.1256384 110.3397442
  34.3980489  76.6947320 111.1075158  33.4758248  76.2958269 109.9751479
  25.8331385  67.8881370 102.0644827  24.9028974  67.8265826 102.2814789
  25.9288857  67.3657323 101.2681468  25.7516934  64.4136183 104.6523069
  26.0123752  65.3281516 104.5432229  26.5734107  63.9460626 104.8019681
  27.2241860  65.8273940 111.8221893  27.8964913  65.6191302 111.1734542
  26.3971646  65.6296026 111.3827125  41.4731121  72.5677991 111.3397227
  41.6667011  73.4723801 111.5856502  41.3731739  72.1085410 112.1735812
  33.1267432  62.4535881 113.8387554  32.4795347  63.1525831 113.7452030
  33.8968447  62.8872025 114.2063802  33.3031566  70.2916646 111.8984374
  34.2323626  70.4427806 111.7253341  32.8822596  70.3800667 111.0433020
  32.1019898  74.3167310 109.6682911  31.9630984  73.9486095 110.5408850
  31.3134494  74.8314950 109.4966869  32.6968050  79.4176407 101.0108448
  32.8719806  78.9464450 101.8254071  32.0100838  80.0442173 101.2389709
  33.6525113  73.6948913 107.0571749  33.3174946  73.6549683 107.9529399
  33.1529059  73.0293629 106.5842159  36.5884305  71.0404947  97.3308809
  35.9713475  70.3151776  97.2341862  36.1200793  71.8014308  96.9875883
  30.2551658  68.8136502 112.0708010  30.9651276  68.1729695 112.0294628
  30.2120966  69.0649397 112.9934191  28.9680592  65.8001720 113.8903649
  28.4317949  65.3492459 114.5425246  28.3797300  65.9347629 113.1474114
  28.3782851  65.2590372  96.4530113  27.5012317  65.1379173  96.0892360
  28.8540604  64.4676450  96.2009002  38.2455844  73.7143440 113.2228569
  37.3582622  73.3769362 113.3454968  38.8154395  72.9826471 113.4597334
  24.7019713  64.9357728 110.9756644  24.6177902  64.3283398 110.2407054
  23.8802419  65.4266746 110.9766140  31.5646777  77.6116662 103.6992634
  30.7814299  78.1538342 103.7930858  32.2639522  78.1290642 104.0986875
  34.8743427  63.4211292 106.3426839  35.3712126  62.6681254 106.0227909
  34.1030408  63.4575608 105.7770048  42.7273184  69.1251657 107.9845131
  42.7163060  70.0076373 107.6139064  41.8590564  68.7723208 107.7899668
  35.9573207  72.1782979 103.9165262  35.0229486  72.2984441 103.7469967
  36.1349876  71.2755446 103.6525272  31.4578396  65.5628675 106.0698524
  31.0876183  65.0099715 106.7579429  31.9537488  64.9586808 105.5173524
  39.3445759  68.0200298 104.4515297  39.8106211  68.8528290 104.3775599
  39.7953259  67.5545280 105.1560555  37.4121990  74.3644119 101.4501449
  37.6881834  74.2500714 102.3595323  36.5426489  73.9661604 101.4113622
  37.3162422  60.3880885 108.4906198  36.4025501  60.6185112 108.6588405
  37.7455523  60.4719329 109.3420230  37.0868880  68.5770777 110.9906092
  36.4340330  68.8246684 110.3358545  37.4649260  67.7634915 110.6568569
  34.0476054  78.6130470 105.0934262  34.2298449  77.7952126 105.5562015
  34.8709040  78.8298162 104.6559152  34.3818219  77.5398655 102.3549311
  34.9105986  77.0291110 101.7419473  34.6446439  77.2241186 103.2194844
  27.7373967  78.5913772 105.1147087  27.0684343  79.0759900 104.6311127
  27.5986837  78.8382992 106.0290465  26.8543729  62.9732665 112.3151630
  26.9185056  63.8347496 111.9029027  26.7910849  62.3606667 111.5823988
  23.1061545  66.8532227 101.8943019  23.4014986  65.9442905 101.8410072
  22.2049580  66.8319966 101.5724021  35.0147623  78.5739491 108.6993427
  34.8898763  77.7729231 108.1904373  35.6726714  79.0685684 108.2107397
  26.6355792  64.9288224 107.8770567  25.9142377  65.5424191 107.7378041
  27.4249047  65.4645988 107.7987213  37.0782532  76.3748511 110.3272977
  36.1312867  76.2553862 110.2551304  37.4265305  75.4871009 110.4099239
  29.4382105  62.2642650 114.1511219  29.9616507  62.5104947 114.9137528
  29.2194438  63.0962685 113.7314356  24.8349386  64.5346325 102.0182344
  24.5062092  63.6543704 101.8357450  25.1888757  64.4793993 102.9058733
  34.0828965  76.1701227 106.5277329  33.9353927  75.2417935 106.7084900
  34.9082458  76.1921318 106.0434405  27.9491209  64.8219294 102.3857822
  28.2887282  65.3505216 101.6636430  28.3963330  65.1599701 103.1616388
  37.6863087  76.9929786 107.6142202  38.6109634  76.7872647 107.4766653
  37.5178390  76.7446187 108.5231544  30.6434650  63.2056345 111.8360890
  30.3031470  62.4064158 112.2381570  29.9373656  63.5058056 111.2637723
  31.2951122  60.2905658 110.2888213  32.1177191  59.8166136 110.1667103
  31.5389185  61.0696141 110.7886899  29.9359356  63.3193916 100.5851114
  30.6567719  63.6975169 100.0814831  29.3124661  64.0382793 100.6886092
  34.0790479  64.0239065 101.5209447  34.2954094  64.9063703 101.2198275
  33.5984546  63.6325278 100.7915089  28.8189701  66.9824778 108.0980191
  28.6734281  67.2965081 108.9904473  28.3414904  67.6009679 107.5451090
  30.6786084  63.9727326 108.1461081  30.6647652  63.0768420 107.8093379
  31.3958512  63.9797990 108.7799367  32.5312214  64.4064666 110.1914208
  32.2729992  65.3281737 110.1898539  31.9997255  64.0095101 110.8814672
  37.4758403  77.5115454 102.9704294  37.6495281  76.9461876 102.2178146
  37.9687294  78.3116348 102.7883784  30.0822979  62.8541707 103.4148651
  30.2038891  61.9258353 103.6139538  29.7925022  62.8680392 102.5026966
  32.9514170  60.5396617 106.5515371  32.9735867  60.6035950 105.5967350
  33.3682229  59.7001126 106.7455877  43.3297794  70.2751877 104.5894593
  43.7728940  69.5259202 104.1913717  42.4524304  70.2662013 104.2068325
  38.4633575  76.8282218 100.0701192  39.1584480  77.4488911 100.2888507
  38.8056726  75.9777569 100.3453570  40.3624999  74.2781923 101.5988523
  40.8876323  74.6169196 100.8737843  40.2747351  73.3428939 101.4151657
  32.0465659  80.3453907 105.9583776  31.6070650  79.8530285 106.6516633
  32.7973776  79.8026874 105.7175851  29.4939532  75.8891916 108.0306078
  28.8719541  75.2262621 107.7308305  30.1644398  75.9153048 107.3479725
  40.1716780  71.7607294 114.2172449  40.2214785  71.5957301 115.1587972
  40.0630703  70.8934553 113.8270330  29.0553038  74.4395839 101.5064538
  29.2041159  75.1231304 100.8531211  29.8619482  74.4200929 102.0213994
  37.4620542  67.7438222 115.5331756  38.3630405  67.6044686 115.2415754
  37.5368517  67.9092676 116.4729933  31.7963347  65.1205076 114.3784942
  30.9266657  65.4138642 114.1067531  32.0322828  65.7045521 115.0992206
  42.8730659  71.7457115 106.9817041  43.7077550  72.1846919 107.1454601
  43.0089788  71.2695768 106.1625287  39.9222165  69.3036850 112.9294529
  40.3976286  69.4964496 112.1213380  38.9987730  69.3596035 112.6837912
  26.8105671  70.4661017 102.5125607  26.5651713  69.5623347 102.7105817
  26.9801586  70.4678167 101.5705085  34.5002381  61.3384693 111.8950363
  35.0184325  62.0745720 111.5696851  34.1457514  61.6448687 112.7297122
  26.0801319  66.1989374 100.0111768  25.3870564  66.2733729  99.3551804
  25.8353071  65.4349718 100.5333285  34.7514975  57.7584976 107.4151259
  35.0316729  57.0908165 108.0411686  35.5365582  57.9514071 106.9025923
  32.5548444  76.9343970  98.9776286  31.9822411  77.5534157  98.5246757
  33.1281238  77.4843331  99.5116207  38.6223834  66.1802610 111.1622834
  39.5741257  66.2800707 111.1835058  38.4527284  65.3880878 111.6720919
  36.6438213  63.2658193 111.3482235  36.0488145  63.5463206 110.6528724
  36.3587910  63.7552094 112.1198976  35.7745704  77.2181120 100.1084868
  36.7076377  77.1526681 100.3117743  35.6868917  78.0537387  99.6499400
  38.4033720  76.5346990  97.0688815  38.3247352  76.2006854  97.9624573
  39.2243387  77.0268758  97.0680288  41.1011912  69.4008729 110.2765134
  41.0688232  68.4624730 110.4624818  41.7112535  69.4792766 109.5430959
  32.9395242  68.2704782  96.3192338  33.8854347  68.1410991  96.3880756
  32.5609487  67.5319444  96.7961766  41.2506400  66.1919773 110.3223417
  40.7345449  65.4078229 110.1353346  42.1346349  65.8638489 110.4869937
  38.9117127  59.9360788 106.2819230  38.7141948  59.6275877 107.1662562
  39.5216833  60.6622427 106.4117160  46.9188461  70.4624736 109.4171171
  47.6491850  70.2010024 109.9778874  46.3095407  69.7253458 109.4573239
  45.0003759  68.6032599 110.0145622  44.2736922  68.4688564 109.4062114
  44.5851045  68.9109427 110.8202340  31.1238160  66.1954759  96.2547223
  30.2169615  65.8987872  96.3309937  31.4014141  65.8984577  95.3881509
  22.0416100  67.5161122 106.7046270  21.7218884  66.6626430 106.4120644
  21.4949528  67.7309700 107.4604237  32.7400225  60.7391649 102.4091465
  31.9300954  60.3938733 102.7846711  33.4284642  60.4299192 102.9979076
  34.6690774  59.8169695 104.0315761  35.2221812  60.2365149 104.6905784
  34.9060860  58.8905443 104.0738717  29.8936944  63.0541694  96.3959202
  30.7556108  63.3796592  96.6555020  30.0787288  62.2673190  95.8832268
  38.0469581  61.9270220 103.5394425  37.4668250  62.5855024 103.1572478
  37.7805513  61.1047565 103.1281843  36.4973147  61.3275278 105.7415746
  36.9972925  61.4391813 104.9330065  37.1408755  61.0236331 106.3816554
  23.8241103  71.0682287 106.5505406  23.8011791  71.1669975 105.5987289
  24.1341739  71.9147438 106.8722572  36.8294459  64.0870311 102.5950774
  35.9420314  64.3719961 102.3770968  37.2448448  63.9264074 101.7478051
  40.1808995  64.1116832 106.3105113  40.9569385  64.6013284 106.5829730
  39.4557129  64.5374886 106.7676982  42.6181553  64.8244451 107.3679054
  43.2126044  64.5840187 106.6572362  42.6908137  64.1051582 107.9952590
  35.9737672  73.8514986  96.6898794  36.6773522  74.0564988  97.3056449
  35.2500321  74.4191747  96.9547877  36.8035482  69.6024847 102.8101064
  36.7470684  70.0593398 101.9708696  37.3563825  68.8415531 102.6323907
  40.6140288  65.3914579 103.6351183  40.3577223  64.9911214 104.4659391
  39.9893156  66.1058373 103.5101323  44.9252626  68.1310652 106.1422475
  44.3652184  68.2003841 106.9154037  44.3196130  67.9551637 105.4221971
  37.8824370  74.2897515  98.7397254  38.7169974  73.8578713  98.5574729
  37.7208713  74.1179528  99.6674148  37.5370262  70.7929628 100.1053593
  37.4819066  70.6273899  99.1642037  36.9116317  71.5005661 100.2615783
  30.8466387  60.2937737  99.6838911  30.8345057  61.2379577  99.8407182
  31.7389809  60.1107882  99.3898373  30.7755951  78.9706627 107.7706668
  29.8251582  78.9708489 107.6571040  31.0788437  78.2239362 107.2542703
  34.6618507  56.8880514 103.9384848  33.8950902  56.3339000 104.0841531
  35.0729212  56.9602382 104.7999000  39.1785167  86.6130070 104.7610846
  38.6150032  86.5220007 103.9927134  39.0637562  85.7929975 105.2413339
  44.7584725  90.2801038 100.0725311  44.1072705  90.8655118  99.6859325
  45.5529088  90.8107233 100.1320349  38.6840353  87.3690175 100.4712445
  39.4571229  86.8219162 100.3325321  39.0365751  88.2334425 100.6826907
  41.0206630  83.5282841  98.1030895  41.2732151  83.0064363  97.3414358
  40.0831189  83.3648987  98.2057579  46.0649913  82.5318620 105.9105639
  46.8513002  82.1138043 105.5596056  46.3288617  83.4364712 106.0787287
  46.2359991  87.9691470 100.6094295  45.6005824  88.0426097 101.3215200
  45.9057397  88.5585069  99.9313375  40.7402919  85.4310947 100.3055270
  40.6239177  84.7555851 100.9736355  40.8505179  84.9443321  99.4887423
  43.0834460  84.8921094 104.0101960  42.7192667  84.3651715 104.7214881
  43.9401576  84.5019563 103.8368445  42.7239947  79.9210994  99.0063308
  42.8914349  80.7891230  99.3733779  42.5337116  80.0838276  98.0824597
  38.9327762  84.8341770 106.7065843  38.0078258  84.7017984 106.9143535
  39.1812175  85.6135989 107.2035785  42.7029168  82.3768652  99.9909975
  42.5828793  82.8225702 100.8295455  42.0081756  82.7253969  99.4323513
  36.2936573  84.4775043 107.5409632  36.4228954  84.7309522 108.4549044
  35.6134024  85.0702751 107.2214287  48.4014234  82.8490125 100.8190309
  49.3132090  83.0817512 100.6438006  47.8923881  83.4327169 100.2565388
  45.7450209  79.0248161 109.0680170  44.8834688  79.3229414 109.3596907
  45.7712643  79.2418560 108.1361202  42.5611778  87.5690351 105.4753975
  43.0250124  87.8478054 104.6858598  42.2968576  86.6673796 105.2927066
  41.4980664  83.6913504 102.2843541  42.2004708  84.1434547 102.7517467
  41.1661293  83.0497323 102.9123434  35.2405998  81.9497056 107.5860674
  34.4505052  82.2054585 107.1100785  35.7317246  82.7645394 107.6912715
  37.1920744  82.3141636 104.5444151  36.3951907  82.4260330 105.0627647
  36.9646336  82.6528288 103.6785041  42.7374429  90.5054446 102.3605646
  42.6020104  91.3505982 102.7890494  43.2784241  90.7073724 101.5971580
  36.1903826  88.0229884 102.9333571  36.7028347  88.8173135 103.0839136
  36.8426539  87.3256175 102.8667172  37.9998711  91.1395641 105.0156324
  38.1765339  92.0613605 104.8277308  38.7955545  90.8254060 105.4450704
  46.0866892  74.0285008 110.8904539  45.7431162  74.9186650 110.8143650
  46.4545855  73.8386666 110.0274124  34.1552743  86.3518539 103.7093141
  34.9927965  86.7615547 103.4926849  34.3331011  85.4117981 103.6793335
  46.0517175  84.0193619  99.3976974  45.5363799  84.7898224  99.6365362
  45.7794484  83.3458755 100.0210036  43.6364286  78.8643320 104.4562213
  42.7805883  78.4750170 104.2767851  44.0491238  78.9435281 103.5961998
  45.1663433  76.3989663 108.8553773  44.6628228  76.3619798 108.0421578
  45.4594040  77.3082406 108.9150429  41.4106319  76.4828393 107.8619954
  42.2759316  76.2871202 107.5025844  41.4783828  76.2538745 108.7889311
  51.0251449  86.7725974 101.3330148  50.2480892  86.4337133 100.8885310
  51.7042930  86.7778597 100.6585113  45.8403478  81.8920711 101.2236756
  45.5353614  82.2066861 102.0746899  46.7933920  81.9702131 101.2664089
  44.2849910  88.0510935 102.8729710  43.7571272  87.3163694 102.5602947
  43.7837413  88.8285611 102.6269678  39.0168638  78.7130601 105.2336321
  39.5912390  78.4905782 104.5009514  39.6039620  78.7819295 105.9864922
  39.3438225  80.7435062  99.2532206  38.5075537  81.0809749  99.5741481
  39.2042995  80.6084042  98.3159343  41.3191306  75.5871850 103.9611390
  40.6655718  75.2720867 103.3368005  41.2771780  74.9647590 104.6871213
  42.4302510  85.8691145  95.8764683  41.5229572  85.6380398  96.0755832
  42.9273542  85.0728764  96.0638664  45.3370589  94.5788652  98.7961369
  44.6632288  94.8820349  99.4046327  45.7236411  95.3817732  98.4466826
  44.5529046  82.0753783 108.2859038  43.6351607  82.2968730 108.1280726
  44.9689190  82.1500094 107.4270745  45.3364094  83.4745199 103.4161718
  46.0835913  83.9866596 103.1068840  45.6055683  83.1529252 104.2766112
  43.6090744  85.9703740 100.3988673  42.7001963  85.6862773 100.4961142
  43.6385828  86.3902818  99.5391980  47.7842931  80.5102315 105.3980508
  47.0465688  79.9979702 105.7290750  48.0369704  80.0702697 104.5863785
  47.8854558  73.2878567 105.9922277  48.1913435  72.4275931 105.7048192
  48.6107163  73.8796188 105.7921271  34.1778914  83.6909254 104.3803875
  33.9803314  83.0978615 103.6554941  33.6225578  83.3861464 105.0979814
  42.1575638  83.5832360 106.4998468  42.2124248  82.6306197 106.4240945
  41.3466840  83.7391800 106.9839766  43.3066832  87.5112483  97.7376751
  42.8686262  86.7948342  97.2782389  44.0477272  87.7388598  97.1761843
  40.0967998  82.2009420 104.2588847  39.2835863  82.5003591 104.6654039
  40.5926992  81.8065109 104.9763329  39.5882073  79.7727776 109.8750082
  40.2281452  79.6316535 109.1773045  38.7559603  79.4862289 109.4988684
  40.3642376  89.0730206 105.9885074  41.1582975  88.5780526 105.7867649
  39.6534069  88.5448069 105.6252780  36.6725140  83.2173288 102.0644827
  35.7422728  83.1557743 102.2814789  36.7682612  82.6949241 101.2681468
  36.5910689  79.7428101 104.6523069  36.8517506  80.6573434 104.5432229
  37.4127861  79.2752543 104.8019681  47.4278059  86.3696865  97.3308809
  46.8107230  85.6443693  97.2341862  46.9594548  87.1306225  96.9875883
  39.2176605  80.5882289  96.4530113  38.3406071  80.4671090  96.0892360
  39.6934358  79.7968368  96.2009002  35.5413467  80.2649646 110.9756644
  35.4571656  79.6575315 110.2407054  34.7196174  80.7558664 110.9766140
  45.7137181  78.7503209 106.3426839  46.2105881  77.9973172 106.0227909
  44.9424163  78.7867526 105.7770048  46.7966962  87.5074896 103.9165262
  45.8623241  87.6276359 103.7469967  46.9743630  86.6047363 103.6525272
  42.2972150  80.8920592 106.0698524  41.9269938  80.3391633 106.7579429
  42.7931243  80.2878726 105.5173524  50.1839513  83.3492216 104.4515297
  50.6499966  84.1820207 104.3775599  50.6347014  82.8837197 105.1560555
  48.2515744  89.6936037 101.4501449  48.5275588  89.5792632 102.3595323
  47.3820243  89.2953522 101.4113622  48.1556176  75.7172803 108.4906198
  47.2419256  75.9477030 108.6588405  48.5849278  75.8011247 109.3420230
  37.6937484  78.3024583 112.3151630  37.7578810  79.1639414 111.9029027
  37.6304604  77.6898585 111.5823988  33.9455299  82.1824145 101.8943019
  34.2408740  81.2734823 101.8410072  33.0443335  82.1611884 101.5724021
  37.4749546  80.2580141 107.8770567  36.7536132  80.8716109 107.7378041
  38.2642802  80.7937906 107.7987213  35.6743141  79.8638242 102.0182344
  35.3455847  78.9835621 101.8357450  36.0282511  79.8085911 102.9058733
  38.7884964  80.1511212 102.3857822  39.1281036  80.6797133 101.6636430
  39.2357084  80.4891618 103.1616388  42.1344876  75.6197575 110.2888213
  42.9570946  75.1458053 110.1667103  42.3782940  76.3988059 110.7886899
  40.7753111  78.6485834 100.5851114  41.4961473  79.0267087 100.0814831
  40.1518415  79.3674711 100.6886092  44.9184234  79.3530983 101.5209447
  45.1347848  80.2355621 101.2198275  44.4378301  78.9617196 100.7915089
  39.6583455  82.3116696 108.0980191  39.5128036  82.6256999 108.9904473
  39.1808659  82.9301596 107.5451090  41.5179838  79.3019244 108.1461081
  41.5041407  78.4060337 107.8093379  42.2352266  79.3089908 108.7799367
  40.9216734  78.1833624 103.4148651  41.0432645  77.2550270 103.6139538
  40.6318776  78.1972310 102.5026966  43.7907924  75.8688535 106.5515371
  43.8129621  75.9327868 105.5967350  44.2075983  75.0293043 106.7455877
  39.8946793  89.7687757 101.5064538  40.0434913  90.4523221 100.8531211
  40.7013236  89.7492847 102.0213994  37.6499426  85.7952935 102.5125607
  37.4045468  84.8915265 102.7105817  37.8195340  85.7970085 101.5705085
  36.9195073  81.5281292 100.0111768  36.2264318  81.6025647  99.3551804
  36.6746825  80.7641636 100.5333285  45.5908730  73.0876893 107.4151259
  45.8710484  72.4200082 108.0411686  46.3759337  73.2805989 106.9025923
  43.3942198  92.2635887  98.9776286  42.8216166  92.8826074  98.5246757
  43.9674992  92.8135249  99.5116207  46.6139458  92.5473037 100.1084868
  47.5470131  92.4818599 100.3117743  46.5262671  93.3829304  99.6499400
  49.2427475  91.8638908  97.0688815  49.1641106  91.5298771  97.9624573
  50.0637142  92.3560676  97.0680288  43.7788997  83.5996700  96.3192338
  44.7248102  83.4702908  96.3880756  43.4003242  82.8611362  96.7961766
  49.7510881  75.2652706 106.2819230  49.5535703  74.9567794 107.1662562
  50.3610587  75.9914345 106.4117160  41.9631914  81.5246676  96.2547223
  41.0563369  81.2279789  96.3309937  42.2407895  81.2276495  95.3881509
  32.8809854  82.8453040 106.7046270  32.5612639  81.9918348 106.4120644
  32.3343283  83.0601618 107.4604237  43.5793980  76.0683566 102.4091465
  42.7694708  75.7230651 102.7846711  44.2678397  75.7591110 102.9979076
  45.5084528  75.1461613 104.0315761  46.0615567  75.5657066 104.6905784
  45.7454614  74.2197361 104.0738717  40.7330699  78.3833612  96.3959202
  41.5949863  78.7088510  96.6555020  40.9181043  77.5965108  95.8832268
  48.8863335  77.2562138 103.5394425  48.3062004  77.9146942 103.1572478
  48.6199268  76.4339483 103.1281843  47.3366902  76.6567196 105.7415746
  47.8366680  76.7683730 104.9330065  47.9802509  76.3528249 106.3816554
  34.6634857  86.3974205 106.5505406  34.6405545  86.4961892 105.5987289
  34.9735493  87.2439356 106.8722572  47.6688213  79.4162229 102.5950774
  46.7814068  79.7011879 102.3770968  48.0842202  79.2555992 101.7478051
  51.0202749  79.4408750 106.3105113  51.7963139  79.9305202 106.5829730
  50.2950884  79.8666804 106.7676982  46.8131427  89.1806903  96.6898794
  47.5167277  89.3856906  97.3056449  46.0894075  89.7483665  96.9547877
  47.6429237  84.9316764 102.8101064  47.5864438  85.3885316 101.9708696
  48.1957579  84.1707449 102.6323907  51.4534043  80.7206496 103.6351183
  51.1970977  80.3203132 104.4659391  50.8286911  81.4350290 103.5101323
  48.7218124  89.6189432  98.7397254  49.5563728  89.1870631  98.5574729
  48.5602467  89.4471446  99.6674148  48.3764016  86.1221546 100.1053593
  48.3212820  85.9565817  99.1642037  47.7510072  86.8297579 100.2615783
  41.6860142  75.6229655  99.6838911  41.6738812  76.5671495  99.8407182
  42.5783564  75.4399800  99.3898373  45.5012261  72.2172431 103.9384848
  44.7344657  71.6630918 104.0841531  45.9122966  72.2894300 104.7999000
  50.0570360  95.9174207  96.4530113  49.1799826  95.7963008  96.0892360
  50.5328113  95.1260285  96.2009002  52.8025669  96.8538594  96.2547223
  51.8957124  96.5571707  96.3309937  53.0801650  96.5568412  95.3881509
  51.5724453  93.7125529  96.3959202  52.4343617  94.0380428  96.6555020
  51.7574797  92.9257025  95.8832268  12.8189327  25.5975022  85.5206675
  12.1451026  25.9006718  86.1291633  13.2055149  26.4004102  85.1712132
  16.7246213  22.8825277  83.7934122  16.6459844  22.5485141  84.6869880
  17.5455879  23.3747045  83.7925594  14.2950164  20.1993273  83.4144100
  14.9986015  20.4043275  84.0301756  13.5712813  20.7670035  83.6793184
  17.4997659  32.9608358  91.4856153  16.9362524  32.8698295  90.7172441
  17.3850054  32.1408262  91.9658645  23.0797218  36.6279325  86.7970618
  22.4285197  37.2133406  86.4104631  23.8741580  37.1585520  86.8565655
  17.0052845  33.7168462  87.1957752  17.7783721  33.1697450  87.0570628
  17.3578244  34.5812712  87.4072213  19.3419123  29.8761129  84.8276202
  19.5944643  29.3542650  84.0659665  18.4043682  29.7127274  84.9302886
  24.3862405  28.8796907  92.6350945  25.1725495  28.4616330  92.2841362
  24.6501110  29.7842999  92.8032594  24.5572483  34.3169757  87.3339602
  23.9218316  34.3904384  88.0460507  24.2269889  34.9063356  86.6558681
  29.7870833  28.8172140  93.5383924  30.5196005  28.2471357  93.7721753
  29.0310188  28.4293741  93.9790429  19.0615411  31.7789235  87.0300577
  18.9451669  31.1034138  87.6981661  19.1717671  31.2921608  86.2132730
  21.4046952  31.2399382  90.7347266  21.0405160  30.7130003  91.4460188
  22.2614068  30.8497851  90.5613752  21.0452439  26.2689281  85.7308615
  21.2126842  27.1369518  86.0979086  20.8549608  26.4316563  84.8069904
  21.0241660  28.7246939  86.7155281  20.9041285  29.1703990  87.5540762
  20.3294249  29.0732256  86.1568820  18.7848552  41.4950581  90.3645413
  18.7072582  42.4458406  90.4433893  18.1810196  41.1496453  91.0220339
  26.7226726  29.1968412  87.5435616  27.6344582  29.4295799  87.3683313
  26.2136373  29.7805456  86.9810694  25.3296309  34.1794230  94.9349197
  24.7005171  34.3439945  94.2325265  24.9421971  34.5935840  95.7060161
  29.2085541  35.1148668  92.2893561  28.5236579  35.4947570  91.7390594
  29.2929390  35.7243995  93.0225509  20.8824270  33.9168639  92.1999282
  21.3462616  34.1956342  91.4103905  20.6181069  33.0152083  92.0172373
  19.8193157  30.0391791  89.0088847  20.5217200  30.4912835  89.4762774
  19.4873785  29.3975610  89.6368740  27.5782300  35.6380583  97.0611262
  28.3999744  35.2360770  96.7793943  27.5744703  35.5348817  98.0127377
  35.6688293  31.9819331  93.4096233  34.9152002  31.4126729  93.2540238
  35.8035834  31.9481996  94.3566868  21.0586921  36.8532734  89.0850952
  20.9232596  37.6984269  89.5135800  21.5996734  37.0552011  88.3216886
  14.5116319  34.3708172  89.6578878  15.0240839  35.1651422  89.8084442
  15.1639031  33.6734462  89.5912479  16.3211203  37.4873928  91.7401631
  16.4977832  38.4091893  91.5522615  17.1168037  37.1732347  92.1696010
  24.3729667  30.3671907  86.1222281  23.8576291  31.1376511  86.3610668
  24.1006976  29.6937043  86.7455342  29.3463942  33.1204261  88.0575455
  28.5693384  32.7815421  87.6130617  30.0255423  33.1256884  87.3830420
  24.1615971  28.2398999  87.9482062  23.8566106  28.5545148  88.7992205
  25.1146413  28.3180419  87.9909395  22.6062402  34.3989222  89.5975016
  22.0783764  33.6641982  89.2848254  22.1049905  35.1763898  89.3514985
  27.5855248  32.5938242  94.7142062  26.9278923  33.2837504  94.8022191
  28.3895648  32.9834674  95.0576049  26.3960707  30.9482615  92.7646004
  26.9092589  31.5812607  93.2667714  27.0461931  30.3483811  92.3989364
  17.6650717  27.0913349  85.9777513  16.8288029  27.4288036  86.2986788
  17.5255487  26.9562329  85.0404650  20.7515003  32.2169432  82.6009989
  19.8442064  31.9858686  82.8001138  21.2486035  31.4207051  82.7883971
  23.6583082  40.9266939  85.5206675  22.9844780  41.2298636  86.1291633
  24.0448904  41.7296020  85.1712132  23.6576586  29.8223486  90.1407025
  24.4048405  30.3344884  89.8314147  23.9268175  29.5007539  91.0011419
  21.9303236  32.3182027  87.1233979  21.0214455  32.0341060  87.2206449
  21.9598320  32.7381106  86.2637286  27.1622504  35.9288617  90.8925147
  26.7084831  35.0879526  90.9490337  26.5316470  36.5650015  91.2299927
  26.1055423  26.8580603  92.1225814  25.3678180  26.3457989  92.4536057
  26.3582197  26.4180984  91.3109091  25.6055443  37.7665113  91.8274965
  25.8978417  38.3270170  91.1087331  26.1154063  38.0593674  92.5828124
  21.6279324  33.8590771  84.4622058  21.1898754  33.1426630  84.0027695
  22.3689765  34.0866886  83.9007149  20.5689068  38.5445464  92.9168418
  20.5265247  38.7706311  91.9876950  21.4851767  38.3108839  93.0654219
  29.7452439  32.1347968  90.5198376  29.6070337  32.3249564  89.5919566
  29.3888657  32.8967351  90.9766428  29.7721818  34.2024495  95.5309648
  30.2058325  34.1099784  96.3792702  30.4853399  34.1781995  94.8929664
  18.6854869  35.4208493  92.7130381  19.4795467  34.9258813  92.5112956
  17.9746561  34.8926356  92.3498087  23.5049713  37.8026589  97.0642749
  23.5586735  38.3717525  97.8320464  22.6364495  37.9728474  96.6996786
  14.9937632  29.5651575  88.7890134  14.0635220  29.5036031  89.0060096
  15.0895104  29.0427528  87.9926775  21.8574297  41.0946612  87.7353755
  22.0326052  40.6234655  88.5499377  21.1707085  41.7212378  87.9635015
  22.8131360  35.3719118  93.7817056  22.4781192  35.3319888  94.6774706
  22.3135306  34.7063834  93.3087466  25.7490552  32.7175152  84.0554115
  25.1319722  31.9921981  83.9587168  25.2807040  33.4784513  83.7121190
  16.4235382  44.2435975  94.5093615  16.6631980  44.8754499  95.1872633
  15.5804578  43.8924015  94.7958974  17.5389097  26.9360577  83.1775420
  16.6618564  26.8149377  82.8137666  18.0146850  26.1446655  82.9254308
  20.9363244  40.0515097  96.9135119  20.8633415  40.8570069  97.4254423
  20.4940637  40.2507063  96.0883140  20.7253023  39.2886867  90.4237940
  19.9420545  39.8308547  90.5176165  21.4245769  39.8060847  90.8232181
  31.8879431  30.8021862  94.7090437  31.8769307  31.6846577  94.3384370
  31.0196810  30.4493413  94.5144974  23.3961927  39.9501931  99.0693277
  24.1089900  40.5849396  98.9969179  22.9051956  40.0465797  98.2533279
  25.1179454  33.8553184  90.6410569  24.1835733  33.9754646  90.4715273
  25.2956123  32.9525650  90.3770579  28.5052006  29.6970503  91.1760603
  28.9712458  30.5298495  91.1020906  28.9559506  29.2315485  91.8805862
  26.5728237  36.0414324  88.1746755  26.8488081  35.9270919  89.0840629
  25.7032735  35.6431809  88.1358928  23.2082301  40.2900675  91.8179569
  23.3904695  39.4722331  92.2807321  24.0315287  40.5068367  91.3804459
  23.5424466  39.2168860  89.0794617  24.0712233  38.7061315  88.4664779
  23.8052686  38.9011390  89.9440150  16.8980214  40.2683977  91.8392393
  16.2290589  40.7530105  91.3556433  16.7593084  40.5153197  92.7535772
  21.0385483  42.3027720  98.4375052  21.5903791  42.4659342  99.2024137
  21.3791676  42.8932158  97.7655076  24.1753870  40.2509696  95.4238734
  24.0505009  39.4499436  94.9149679  24.8332961  40.7455889  94.9352704
  26.2388778  38.0518716  97.0518284  25.2919114  37.9324067  96.9796611
  26.5871552  37.1641214  97.1344545  23.2435212  37.8471432  93.2522636
  23.0960174  36.9188140  93.4330206  24.0688705  37.8691523  92.7679711
  26.8469334  38.6699991  94.3387509  27.7715881  38.4642852  94.2011960
  26.6784637  38.4216392  95.2476850  19.0965603  24.9964121  87.3096421
  19.8173966  25.3745374  86.8060138  18.4730907  25.7152998  87.4131399
  23.2396726  25.7009270  88.2454753  23.4560340  26.5833908  87.9443581
  22.7590793  25.3095483  87.5160395  26.6364650  39.1885658  89.6949600
  26.8101527  38.6232081  88.9423453  27.1293541  39.9886553  89.5129090
  32.4904041  31.9522081  91.3139900  32.9335187  31.2029407  90.9159023
  31.6130551  31.9432218  90.9313632  27.6239822  38.5052423  86.7946499
  28.3190727  39.1259116  87.0133813  27.9662972  37.6547774  87.0698876
  29.5231245  35.9552128  88.3233829  30.0482569  36.2939401  87.5983149
  29.4353598  35.0199144  88.1396964  21.2071906  42.0224112  92.6829083
  20.7676896  41.5300490  93.3761939  21.9580023  41.4797079  92.4421158
  13.6864245  38.2135653  92.6853711  14.5122265  37.9139424  92.3052354
  13.3358297  37.4443275  93.1343499  18.6545778  37.5662121  94.7551384
  18.0325788  36.9032826  94.4553612  19.3250645  37.5923253  94.0725032
  18.2159285  36.1166044  88.2309845  18.3647406  36.8001509  87.5776517
  19.0225729  36.0971134  88.7459300  32.0336906  33.4227320  93.7062348
  32.8683797  33.8617124  93.8699908  32.1696034  32.9465973  92.8870593
  15.9711918  32.1431222  89.2370914  15.7257960  31.2393552  89.4351124
  16.1407833  32.1448372  88.2950392  15.2407566  27.8759579  86.7357075
  14.5476811  27.9503934  86.0797111  14.9959318  27.1119923  87.2578592
  21.7154691  38.6114175  85.7021592  21.1428658  39.2304362  85.2492064
  22.2887484  39.1613536  86.2361514  24.9351950  38.8951325  86.8330174
  25.8682624  38.8296886  87.0363050  24.8475163  39.7307592  86.3744707
  27.5639967  38.2117195  83.7934122  27.4853599  37.8777059  84.6869880
  28.3849634  38.7038963  83.7925594  22.1001489  29.9474987  83.0437645
  23.0460594  29.8181195  83.1126063  21.7215734  29.2089649  83.5207073
  36.0794708  32.1394941  96.1416477  36.8098097  31.8780229  96.7024181
  35.4701654  31.4023663  96.1818545  34.1610005  30.2802804  96.7390929
  33.4343169  30.1458769  96.1307420  33.7457292  30.5879632  97.5447647
  20.2844406  27.8724964  82.9792530  19.3775862  27.5758076  83.0555243
  20.5620387  27.5754782  82.1126816  19.0543191  24.7311899  83.1204509
  19.9162355  25.0566797  83.3800326  19.2393535  23.9443395  82.6077575
  27.2075827  23.6040425  90.2639732  26.6274497  24.2625229  89.8817784
  26.9411760  22.7817770  89.8527150  25.9900705  25.7640516  89.3196080
  25.1026561  26.0490166  89.1016275  26.4054695  25.6034279  88.4723357
  29.3415242  25.7887037  93.0350420  30.1175632  26.2783489  93.3075036
  28.6163376  26.2145091  93.4922289  31.7787800  26.5014656  94.0924360
  32.3732291  26.2610392  93.3817668  31.8514384  25.7821787  94.7197897
  13.9984956  40.3448267  94.4067525  13.8639424  39.5848668  93.8405523
  13.5817018  41.0689167  93.9396314  25.1343919  35.5285190  83.4144100
  25.8379769  35.7335193  84.0301756  24.4106568  36.0961952  83.6793184
  25.9641729  31.2795052  89.5346370  25.9076931  31.7363603  88.6954003
  26.5170072  30.5185736  89.3569213  29.7746535  27.0684784  90.3596490
  29.5183469  26.6681419  91.1904698  29.1499403  27.7828578  90.2346629
  34.0858873  29.8080857  92.8667781  33.5258431  29.8774046  93.6399343
  33.4802376  29.6321841  92.1467278  17.1554082  41.2417584  94.6185968
  17.0386466  42.1863016  94.5164658  16.3346528  40.9391145  95.0071767
  27.0430616  35.9667720  85.4642560  27.8776220  35.5348918  85.2820035
  26.8814959  35.7949733  86.3919455  26.6976509  32.4699833  86.8298900
  26.6425312  32.3044104  85.8887344  26.0722564  33.1775866  86.9861089
  20.0072634  21.9707942  86.4084218  19.9951304  22.9149782  86.5652489
  20.8996056  21.7878087  86.1143679  18.1808596  41.8945846  97.8341896
  19.0835843  41.9269456  98.1508391  17.9545966  40.9646297  97.8488232
  19.9362198  40.6476832  94.4951975  18.9857829  40.6478694  94.3816347
  20.2394684  39.9009567  93.9788009  35.6714891  46.4837371  95.5597737
  36.3093301  46.3644118  94.8561077  35.5535734  47.4318215  95.6185689
  32.4804598  46.4364799  95.4959262  32.1423109  46.3205864  94.6079797
  33.3494366  46.0355964  95.4760268  28.3391413  48.2900275  91.4856153
  27.7756279  48.1990212  90.7172441  28.2243808  47.4700180  91.9658645
  32.9624381  47.5899651 101.4545467  32.9513021  47.1952449 100.5825971
  33.1245020  46.8565723 102.0479239  25.8855845  49.7851467  94.3240373
  26.6777137  49.4442292  93.9086673  26.1252496  49.8946442  95.2442527
  33.9190972  51.9571243  86.7970618  33.2678952  52.5425323  86.4104631
  34.7135335  52.4877438  86.8565655  27.8446599  49.0460380  87.1957752
  28.6177475  48.4989367  87.0570628  28.1971998  49.9104629  87.4072213
  29.6831642  50.3736762 100.4024651  29.3921508  51.2782393 100.2871318
  30.3188626  50.4153290 101.1168721  30.6087849  47.7513611  96.9926011
  31.2051421  47.5269633  96.2782974  30.6662820  47.0098356  97.5951459
  30.1812877  45.2053046  84.8276202  30.4338398  44.6834568  84.0659665
  29.2437436  45.0419192  84.9302886  35.2256160  44.2088825  92.6350945
  36.0119249  43.7908248  92.2841362  35.4894864  45.1134917  92.8032594
  35.3966237  49.6461675  87.3339602  34.7612070  49.7196301  88.0460507
  35.0663644  50.2355274  86.6558681  40.6264587  44.1464058  93.5383924
  41.3589759  43.5763275  93.7721753  39.8703943  43.7585658  93.9790429
  29.9009166  47.1081152  87.0300577  29.7845424  46.4326056  87.6981661
  30.0111426  46.6213526  86.2132730  32.2440707  46.5691299  90.7347266
  31.8798914  46.0421920  91.4460188  33.1007823  46.1789768  90.5613752
  38.1490007  37.8585632  97.9978532  37.8173332  38.7281043  97.7739747
  37.5535621  37.5421916  98.6772563  31.8846194  41.5981199  85.7308615
  32.0520596  42.4661435  86.0979086  31.6943363  41.7608481  84.8069904
  34.6421527  50.0598178  97.3974445  34.3422250  50.9623217  97.2890252
  34.2972586  49.7930361  98.2495598  28.0934008  46.5111975  93.4311149
  27.1684505  46.3788189  93.6388841  28.3418422  47.2906194  93.9281092
  38.0418671  42.5780718  95.0771882  37.1335548  42.5096127  94.7830643
  37.9906267  43.0552663  95.9053708  31.8635415  44.0538856  86.7155281
  31.7435040  44.4995907  87.5540762  31.1688003  44.4024174  86.1568820
  25.4542819  46.1545248  94.2654939  25.5835201  46.4079727  95.1794350
  24.7740271  46.7472956  93.9459594  29.6242307  56.8242498  90.3645413
  29.5466336  57.7750323  90.4433893  29.0203950  56.4788371  91.0220339
  32.1159537  43.9970364 103.0206780  31.3392871  44.5564284 103.0109644
  32.7550100  44.4827147 103.5421650  39.9080317  40.7797156  96.8549756
  39.2654697  41.0729690  96.2089551  39.4035246  40.6650077  97.6602953
  37.5620481  44.5260330  87.5435616  38.4738337  44.7587716  87.3683313
  37.0530128  45.1097374  86.9810694  30.3705909  46.8055817 102.5824747
  31.1120593  47.3440861 102.3059570  29.6642894  47.4322106 102.7396298
  35.8461248  48.9484958 101.1796908  36.2544604  48.5067368 100.4351540
  35.1238510  48.3737585 101.4331101  32.1992319  43.8857564  98.5530465
  33.0453514  44.3096978  98.6965114  32.1390956  43.2291189  99.2469028
  36.1690063  49.5086148  94.9349197  35.5398926  49.6731862  94.2325265
  35.7815725  49.9227758  95.7060161  40.0479295  50.4440586  92.2893561
  39.3630333  50.8239487  91.7390594  40.1323144  51.0535913  93.0225509
  35.3491764  41.5461933 100.2111639  35.1052696  42.3003993  99.6745914
  35.6251694  41.9247280 101.0458886  37.3030227  48.0900545  98.8888904
  37.5147122  48.7332305  98.2123285  37.2559975  47.2562862  98.4210834
  34.9056456  40.7018366  95.7925476  34.0440935  40.9999619  96.0842214
  34.9318890  40.9188765  94.8606509  31.7218025  49.2460556  92.1999282
  32.1856371  49.5248259  91.4103905  31.4574823  48.3444001  92.0172373
  28.6142106  48.7932038  95.1379045  29.1843463  49.2219306  94.4996530
  29.2050218  48.5114622  95.8363231  30.6586911  45.3683709  89.0088847
  31.3610954  45.8204752  89.4762774  30.3267540  44.7267527  89.6368740
  29.1067273  43.9595465 103.3840057  28.4765933  44.6411746 103.6175453
  29.0003360  43.8478547 102.4393195  24.4012245  43.6267261  94.3105981
  23.6111299  43.8824790  93.8346091  24.8923492  44.4415599  94.4158021
  38.4176055  50.9672500  97.0611262  39.2393498  50.5652688  96.7793943
  38.4138457  50.8640735  98.0127377  26.3526990  43.9911840  91.2689457
  25.5558154  44.1030535  91.7872953  26.1252583  44.3298493  90.4030348
  32.1832658  50.5156544  99.2171972  32.2477091  50.9776951 100.0530144
  31.4743582  49.8853909  99.3454282  22.6849948  43.8797752  96.7420972
  22.9357986  44.7644762  97.0078548  23.2209496  43.7002353  95.9696063
  46.5082048  47.3111249  93.4096233  45.7545756  46.7418647  93.2540238
  46.6429589  47.2773913  94.3566868  31.8980676  52.1824651  89.0850952
  31.7626350  53.0276187  89.5135800  32.4390488  52.3843929  88.3216886
  25.3510073  49.7000089  89.6578878  25.8634594  50.4943339  89.8084442
  26.0032786  49.0026380  89.5912479  27.1604958  52.8165846  91.7401631
  27.3371586  53.7383810  91.5522615  27.9561791  52.5024265  92.1696010
  26.4457314  44.8630477 101.6163794  26.3310829  43.9615735 101.9170893
  25.5901832  45.1094174 101.2648610  33.5249152  52.8048218 103.2151295
  33.0813006  52.0184596 102.8972199  34.1866366  52.9927368 102.5495185
  28.2836273  54.3344019  97.7411973  28.8343698  54.2061083  96.9688967
  27.4447749  54.6338908  97.3906866  35.6230390  53.0851018 101.2432696
  35.6048865  53.9059899 100.7512965  36.5450310  52.9605093 101.4682837
  32.0803444  50.5995147 102.0856204  32.6131781  49.8383435 101.8555512
  31.5517525  50.3068799 102.8280359  35.2473139  35.7055213  97.6149846
  34.9037409  36.5956855  97.5388956  35.6152102  35.5156871  96.7519431
  23.3158990  48.0288744  90.4338448  24.1534212  48.4385752  90.2172156
  23.4937258  47.0888186  90.4038642  35.2123422  45.6963824  86.1222281
  34.6970045  46.4668429  86.3610668  34.9400730  45.0228960  86.7455342
  32.7970533  40.5413525  91.1807519  31.9412129  40.1520375  91.0013158
  33.2097485  40.6205486  90.3207305  34.3269680  38.0759868  95.5799079
  33.8234475  38.0390003  94.7666884  34.6200286  38.9852611  95.6395736
  30.5712565  38.1598598  94.5865261  31.4365562  37.9641407  94.2271150
  30.6390074  37.9308950  95.5134618  40.1857696  48.4496179  88.0575455
  39.4087139  48.1107338  87.6130617  40.8649177  48.4548802  87.3830420
  35.0009725  43.5690916  87.9482062  34.6959861  43.8837065  88.7992205
  35.9540167  43.6472336  87.9909395  33.4456157  49.7281140  89.5975016
  32.9177519  48.9933899  89.2848254  32.9443660  50.5055816  89.3514985
  38.4249003  47.9230160  94.7142062  37.7672677  48.6129421  94.8022191
  39.2289402  48.3126592  95.0576049  28.1774885  40.3900806  91.9581628
  28.7518636  40.1675987  91.2254821  28.7645867  40.4589500  92.7110229
  37.2354462  46.2774533  92.7646004  37.7486344  46.9104525  93.2667714
  37.8855686  45.6775728  92.3989364  28.5044472  42.4205267  85.9777513
  27.6681784  42.7579953  86.2986788  28.3649241  42.2854247  85.0404650
  30.4797552  37.2642055  90.6856697  29.8261965  36.9491072  90.0613312
  30.4378026  36.6417795  91.4116520  31.5908757  47.5461350  82.6009989
  30.6835819  47.3150603  82.8001138  32.0879789  46.7498969  82.7883971
  34.4976836  56.2558857  85.5206675  33.8238535  56.5590554  86.1291633
  34.8842658  57.0587937  85.1712132  33.7135293  43.7523988  95.0104345
  32.7957854  43.9738935  94.8526033  34.1295436  43.8270299  94.1516052
  34.4970340  45.1515404  90.1407025  35.2442159  45.6636801  89.8314147
  34.7661930  44.8299457  91.0011419  32.7696991  47.6473945  87.1233979
  31.8608210  47.3632978  87.2206449  32.7992074  48.0673023  86.2637286
  38.0016258  51.2580534  90.8925147  37.5478585  50.4171444  90.9490337
  37.3710225  51.8941933  91.2299927  36.9449178  42.1872520  92.1225814
  36.2071934  41.6749906  92.4536057  37.1975951  41.7472902  91.3109091
  36.4449197  53.0957031  91.8274965  36.7372172  53.6562088  91.1087331
  36.9547818  53.3885592  92.5828124  37.0460805  34.9648772  92.7167584
  37.3519682  34.1046136  92.4293499  37.7713410  35.5566392  92.5166577
  23.3385161  45.3679459  91.1049182  23.1409561  44.7748820  90.3800248
  22.7831825  45.0631669  91.8225120  31.3181885  45.2602565  93.2243775
  31.3730494  44.3076402  93.1486251  30.5073087  45.4162004  93.7085073
  32.4673078  49.1882688  84.4622058  32.0292508  48.4718547  84.0027695
  33.2083519  49.4158803  83.9007149  29.2574245  43.8779625  90.9834154
  28.4442110  44.1773796  91.3899346  29.7533239  43.4835314  91.7008636
  31.4082822  53.8737382  92.9168418  31.3659001  54.0998228  91.9876950
  32.3245521  53.6400757  93.0654219  34.8548456  44.3421450  99.8149047
  35.2097844  44.5692923 100.6743513  35.5020587  44.6739826  99.1926303
  40.5846193  47.4639885  90.5198376  40.4464092  47.6541481  89.5919566
  40.2282412  48.2259268  90.9766428  28.7488319  41.4497981  96.5995388
  29.3887699  41.3086740  95.9018352  27.9165850  41.1632494  96.2233990
  40.6115573  49.5316412  95.5309648  41.0452079  49.4391702  96.3792702
  41.3247153  49.5073913  94.8929664  29.5248623  50.7500411  92.7130381
  30.3189222  50.2550731  92.5112956  28.8140316  50.2218274  92.3498087
  34.3443468  53.1318507  97.0642749  34.3980490  53.7009443  97.8320464
  33.4758249  53.3020392  96.6996786  25.8331387  44.8943493  88.7890134
  24.9028975  44.8327948  89.0060096  25.9288859  44.3719446  87.9926775
  25.7516936  41.4198306  91.3768375  26.0123753  42.3343639  91.2677536
  26.5734108  40.9522748  91.5264988  27.2241861  42.8336063  98.5467200
  27.8964914  42.6253425  97.8979849  26.3971648  42.6358149  98.1072432
  41.4731122  49.5740113  98.0642533  41.6667012  50.4785924  98.3101808
  41.3731740  49.1147532  98.8981118  33.1267433  39.4598004 100.5632861
  32.4795348  40.1587953 100.4697337  33.8968448  39.8934148 100.9309109
  36.5346231  49.7246856 103.6383414  36.3831737  49.4957408 102.7213498
  36.5250910  50.6817457 103.6514759  33.3031567  47.2978769  98.6229680
  34.2323627  47.4489928  98.4498648  32.8822597  47.3862789  97.7678327
  32.1019899  51.3229433  96.3928218  31.9630985  50.9548217  97.2654156
  31.3134495  51.8377072  96.2212176  32.6968051  56.4238529  87.7353755
  32.8719807  55.9526573  88.5499377  32.0100839  57.0504296  87.9635015
  33.6525114  50.7011036  93.7817056  33.3174947  50.6611806  94.6774706
  33.1529060  50.0355752  93.3087466  27.6269358  46.1078666  99.3069637
  27.4889156  45.3758905  99.9081176  28.5374282  46.0187566  99.0253825
  30.2551659  45.8198625  98.7953317  30.9651278  45.1791817  98.7539935
  30.2120967  46.0711520  99.7179497  38.2438438  52.7565978 101.7159896
  38.1850984  52.0725199 101.0490479  38.6457956  53.4984968 101.2640522
  28.9680593  42.8063843 100.6148956  28.4317950  42.3554581 101.2670552
  28.3797301  42.9409752  99.8719420  27.2629136  59.5727892  94.5093615
  27.5025735  60.2046416  95.1872633  26.4198333  59.2215932  94.7958974
  28.3782852  42.2652494  83.1775420  27.5012318  42.1441295  82.8137666
  28.8540605  41.4738573  82.9254308  38.2455845  50.7205562  99.9473876
  37.3582624  50.3831484 100.0700274  38.8154396  49.9888594 100.1842641
  19.8984992  47.0529654  93.2716927  20.5856032  46.7391384  92.6837942
  19.7433121  47.9571019  92.9984178  24.7019714  41.9419851  97.7001951
  24.6177903  41.3345520  96.9652361  23.8802421  42.4328869  97.7011447
  31.7756998  55.3807015  96.9135119  31.7027170  56.1861986  97.4254423
  31.3334391  55.5798981  96.0883140  31.5646778  54.6178785  90.4237940
  30.7814300  55.1600465  90.5176165  32.2639523  55.1352764  90.8232181
  34.8743428  40.4273414  93.0672146  35.3712128  39.6743377  92.7473216
  34.1030410  40.4637731  92.5015355  42.7273185  46.1313780  94.7090437
  42.7163062  47.0138495  94.3384370  41.8590565  45.7785331  94.5144974
  34.2355682  55.2793849  99.0693277  34.9483654  55.9141314  98.9969179
  33.7445710  55.3757715  98.2533279  35.9573209  49.1845101  90.6410569
  35.0229487  49.3046564  90.4715273  36.1349877  48.2817568  90.3770579
  31.4578397  42.5690797  92.7943830  31.0876184  42.0161838  93.4824736
  31.9537489  41.9648931  92.2418830  39.3445760  45.0262421  91.1760603
  39.8106212  45.8590412  91.1020906  39.7953261  44.5607402  91.8805862
  29.2867595  53.0288292  99.8898848  29.9877055  53.6624775 100.0428242
  28.8162710  53.3703024  99.1294487  37.4121991  51.3706242  88.1746755
  37.6881835  51.2562837  89.0840629  36.5426490  50.9723727  88.1358928
  37.3162423  37.3943008  95.2151505  36.4025503  37.6247235  95.3833711
  37.7455524  37.4781452  96.0665537  37.0868881  45.5832900  97.7151399
  36.4340332  45.8308807  97.0603851  37.4649261  44.7697038  97.3813876
  34.0476055  55.6192593  91.8179569  34.2298450  54.8014249  92.2807321
  34.8709041  55.8360285  91.3804459  34.3818221  54.5460778  89.0794617
  34.9105987  54.0353233  88.4664779  34.6446440  54.2303308  89.9440150
  33.1356454  46.3252711 104.2017436  32.4597091  46.2246840 104.8719811
  33.9584088  46.1691924 104.6653433  24.8835313  52.5624647  96.8229951
  25.4688750  51.8168335  96.9557855  24.6860152  52.8728604  97.7066615
  27.7373969  55.5975895  91.8392393  27.0684344  56.0822022  91.3556433
  27.5986838  55.8445115  92.7535772  19.4752968  45.1330247  95.5434394
  19.5137068  44.5993838  96.3371512  18.9693261  44.6065453  94.9245371
  31.8779237  57.6319638  98.4375052  32.4297545  57.7951260  99.2024137
  32.2185431  58.2224076  97.7655076  26.8543730  39.9794788  99.0396936
  26.9185057  40.8409619  98.6274334  26.7910851  39.3668790  98.3069295
  36.7290112  52.4580896 104.2923706  37.2730016  53.0710854 103.7978661
  36.1476956  53.0160474 104.8090719  23.1061546  43.8594350  88.6188325
  23.4014987  42.9505028  88.5655379  22.2049582  43.8382089  88.2969328
  35.0147625  55.5801614  95.4238734  34.8898764  54.7791354  94.9149679
  35.6726716  56.0747807  94.9352704  26.6355793  41.9350346  94.6015874
  25.9142379  42.5486314  94.4623347  27.4249049  42.4708111  94.5232520
  37.0782533  53.3810634  97.0518284  36.1312868  53.2615985  96.9796611
  37.4265306  52.4933132  97.1344545  29.4382106  39.2704773 100.8756526
  29.9616508  39.5167069 101.6382835  29.2194440  40.1024807 100.4559663
  24.8349387  41.5408447  88.7427651  24.5062093  40.6605826  88.5602756
  25.1888758  41.4856116  89.6304040  34.0828966  53.1763350  93.2522636
  33.9353929  52.2480057  93.4330206  34.9082460  53.1983441  92.7679711
  27.9491210  41.8281417  89.1103128  28.2887283  42.3567338  88.3881737
  28.3963331  42.1661823  89.8861695  37.6863088  53.9991909  94.3387509
  38.6109636  53.7934770  94.2011960  37.5178391  53.7508310  95.2476850
  30.6434651  40.2118468  98.5606196  30.3031472  39.4126281  98.9626876
  29.9373658  40.5120179  97.9883029  31.2951123  37.2967780  97.0133519
  32.1177192  36.8228258  96.8912410  31.5389187  38.0758264  97.5132206
  29.9359358  40.3256039  87.3096421  30.6567720  40.7037291  86.8060138
  29.3124662  41.0444915  87.4131399  34.0790481  41.0301188  88.2454753
  34.2954095  41.9125825  87.9443581  33.5984548  40.6387401  87.5160395
  28.8189702  43.9886901  94.8225498  28.6734283  44.3027204  95.7149779
  28.3414906  44.6071801  94.2696397  30.6786085  40.9789449  94.8706387
  30.6647654  40.0830542  94.5338685  31.3958513  40.9860113  95.5044674
  32.5312216  41.4126789  96.9159515  32.2729993  42.3343860  96.9143845
  31.9997256  41.0157224  97.6059979  37.4758404  54.5177576  89.6949600
  37.6495282  53.9523999  88.9423453  37.9687295  55.3178471  89.5129090
  23.2935364  46.5292245  97.7613159  22.7488832  47.3052053  97.8933433
  24.1714714  46.8763050  97.6032281  30.0822981  39.8603829  90.1393958
  30.2038892  38.9320475  90.3384845  29.7925023  39.8742515  89.2272273
  32.9514171  37.5458740  93.2760677  32.9735868  37.6098073  92.3212657
  33.3682230  36.7063248  93.4701184  43.3297795  47.2813999  91.3139900
  43.7728941  46.5321324  90.9159023  42.4524306  47.2724135  90.9313632
  24.0801386  45.6562142 100.6543316  23.3383122  45.8044777 101.2407946
  23.7594130  45.9170407  99.7910065  40.3625000  51.2844046  88.3233829
  40.8876324  51.6231319  87.5983149  40.2747352  50.3491061  88.1396964
  32.0245049  55.1978120 100.4523706  32.3332175  54.9527267 101.3246406
  32.8220531  55.4024758  99.9642576  32.0465661  57.3516029  92.6829083
  31.6070651  56.8592408  93.3761939  32.7973778  56.8088997  92.4421158
  24.5258000  53.5427570  92.6853711  25.3516020  53.2431342  92.3052354
  24.1752052  52.7735193  93.1343499  29.4939533  52.8954038  94.7551384
  28.8719542  52.2324743  94.4553612  30.1644400  52.9215170  94.0725032
  22.7266605  51.4613897  93.6442644  21.8898513  51.0336071  93.4626645
  22.6990250  51.6546340  94.5813435  40.0518906  51.9176950 103.6285027
  39.2614450  51.9001089 103.0889527  39.8152261  52.4565243 104.3834064
  40.1716781  48.7669416 100.9417756  40.2214786  48.6019424 101.8833279
  40.0630704  47.8996675 100.5515637  29.0553040  51.4457962  88.2309845
  29.2041160  52.1293426  87.5776517  29.8619483  51.4263052  88.7459300
  37.4620543  44.7500344 102.2577063  38.3630406  44.6106809 101.9661060
  37.5368518  44.9154799 103.1975240  31.7963349  42.1267199 101.1030249
  30.9266658  42.4200765 100.8312837  32.0322829  42.7107644 101.8237513
  41.6734978  51.1866358 101.1859777  41.3819786  51.5496338 102.0223238
  41.0607109  50.4733366 101.0073109  42.8730660  48.7519237  93.7062348
  43.7077552  49.1909041  93.8699908  43.0089789  48.2757891  92.8870593
  39.9222166  46.3098972  99.6539835  40.3976288  46.5026619  98.8458687
  38.9987731  46.3658158  99.4083219  26.8105673  47.4723139  89.2370914
  26.5651715  46.5685469  89.4351124  26.9801587  47.4740290  88.2950392
  34.5002383  38.3446816  98.6195669  35.0184326  39.0807843  98.2942158
  34.1457515  38.6510809  99.4542428  26.0801320  43.2051497  86.7357075
  25.3870565  43.2795852  86.0797111  25.8353072  42.4411841  87.2578592
  34.7514977  34.7647098  94.1396566  35.0316730  34.0970287  94.7656992
  35.5365584  34.9576194  93.6271230  32.5548445  53.9406092  85.7021592
  31.9822412  54.5596279  85.2492064  33.1281239  54.4905454  86.2361514
  38.6223835  43.1864732  97.8868141  39.5741258  43.2862830  97.9080365
  38.4527285  42.3943001  98.3966225  36.6438215  40.2720316  98.0727542
  36.0488147  40.5525328  97.3774031  36.3587911  40.7614216  98.8444283
  35.7745705  54.2243242  86.8330174  36.7076378  54.1588804  87.0363050
  35.6868918  55.0599509  86.3744707  41.1011913  46.4070852  97.0010441
  41.0688233  45.4686853  97.1870124  41.7112536  46.4854889  96.2676266
  32.9395244  45.2766905  83.0437645  33.8854348  45.1473113  83.1126063
  32.5609489  44.5381567  83.5207073  41.2506401  43.1981895  97.0468724
  40.7345450  42.4140352  96.8598653  42.1346350  42.8700612  97.2115243
  38.9117128  36.9422911  93.0064536  38.7141949  36.6337999  93.8907868
  39.5216834  37.6684550  93.1362466  46.9188463  47.4686859  96.1416477
  47.6491851  47.2072147  96.7024181  46.3095408  46.7315581  96.1818545
  45.0003760  45.6094721  96.7390929  44.2736923  45.4750686  96.1307420
  44.5851047  45.9171550  97.5447647  32.8233936  49.3284651 104.5038302
  33.7436946  49.5063250 104.6978348  32.7883519  48.3840696 104.3518001
  31.1238161  43.2016881  82.9792530  30.2169616  42.9049994  83.0555243
  31.4014142  42.9046699  82.1126816  22.0416101  44.5223245  93.4291576
  21.7218886  43.6688553  93.1365950  21.4949529  44.7371823  94.1849544
  25.8196009  47.2385686  97.1461083  26.0382019  48.1702794  97.1649117
  26.2321783  46.8793660  97.9315887  32.7400227  37.7453771  89.1336771
  31.9300955  37.4000856  89.5092017  33.4284644  37.4361315  89.7224383
  34.6690775  36.8231818  90.7561068  35.2221813  37.2427271  91.4151091
  34.9060861  35.8967566  90.7984024  29.8936945  40.0603817  83.1204509
  30.7556109  40.3858715  83.3800326  30.0787290  39.2735313  82.6077575
  21.9104361  48.1426156  95.3984698  21.2167833  47.7280109  94.8854652
  22.6577352  48.1846693  94.8018117  38.0469582  38.9332343  90.2639732
  37.4668251  39.5917147  89.8817784  37.7805515  38.1109688  89.8527150
  36.4973148  38.3337401  92.4661052  36.9972927  38.4453935  91.6575371
  37.1408756  38.0298454  93.1061861  30.5555144  46.2416030 105.3528893
  30.0722226  47.0416391 105.5592782  30.6416083  46.2523975 104.3996337
  23.8241104  48.0744410  93.2750713  23.8011792  48.1732097  92.3232596
  24.1341740  48.9209561  93.5967879  26.4828482  50.1320565  97.3897327
  27.4371735  50.1004507  97.3227259  26.2841005  49.6711189  98.2047553
  27.0727864  48.7021681  99.9568125  27.8920753  49.1965760  99.9802962
  27.3464671  47.7853649  99.9285692  36.8294460  41.0932433  89.3196080
  35.9420315  41.3782084  89.1016275  37.2448449  40.9326197  88.4723357
  40.1808996  41.1178954  93.0350420  40.9569386  41.6075407  93.3075036
  39.4557130  41.5437009  93.4922289  42.6181555  41.8306574  94.0924360
  43.2126046  41.5902310  93.3817668  42.6908138  41.1113704  94.7197897
  24.8378710  55.6740185  94.4067525  24.7033178  54.9140585  93.8405523
  24.4210773  56.3981084  93.9396314  36.8035484  46.6086969  89.5346370
  36.7470685  47.0655521  88.6954003  37.3563826  45.8477654  89.3569213
  40.6140290  42.3976701  90.3596490  40.3577224  41.9973337  91.1904698
  39.9893158  43.1120495  90.2346629  44.9252627  45.1372774  92.8667781
  44.3652185  45.2065964  93.6399343  44.3196131  44.9613759  92.1467278
  27.9947836  56.5709502  94.6185968  27.8780220  57.5154934  94.5164658
  27.1740283  56.2683063  95.0071767  37.5370263  47.7991751  86.8298900
  37.4819067  47.6336022  85.8887344  36.9116318  48.5067784  86.9861089
  34.8516170  50.1040662 106.1552462  35.7207330  50.2781315 105.7939097
  34.3722922  50.9235079 106.0328192  30.8466388  37.2999860  86.4084218
  30.8345058  38.2441700  86.5652489  31.7389810  37.1170005  86.1143679
  29.0202350  57.2237763  97.8341896  29.9229597  57.2561374  98.1508391
  28.7939720  56.2938214  97.8488232  30.7755952  55.9768750  94.4951975
  29.8251583  55.9770612  94.3816347  31.0788439  55.2301485  93.9788009
  34.6618508  33.8942636  90.6630155  33.8950904  33.3401123  90.8086837
  35.0729213  33.9664505  91.5244307  46.5108646  61.8129288  95.5597737
  47.1487056  61.6936036  94.8561077  46.3929489  62.7610132  95.6185689
  43.3198352  61.7656717  95.4959262  42.9816864  61.6497781  94.6079797
  44.1888120  61.3647882  95.4760268  39.1785168  63.6192193  91.4856153
  38.6150033  63.5282130  90.7172441  39.0637563  62.7992097  91.9658645
  43.8018135  62.9191568 101.4545467  43.7906776  62.5244367 100.5825971
  43.9638775  62.1857641 102.0479239  36.7249600  65.1143385  94.3240373
  37.5170892  64.7734209  93.9086673  36.9646250  65.2238360  95.2442527
  44.7584727  67.2863161  86.7970618  44.1072706  67.8717241  86.4104631
  45.5529089  67.8169356  86.8565655  38.6840354  64.3752298  87.1957752
  39.4571230  63.8281285  87.0570628  39.0365753  65.2396547  87.4072213
  40.5225396  65.7028680 100.4024651  40.2315262  66.6074311 100.2871318
  41.1582381  65.7445208 101.1168721  41.4481603  63.0805529  96.9926011
  42.0445175  62.8561551  96.2782974  41.5056575  62.3390274  97.5951459
  41.0206632  60.5344964  84.8276202  41.2732152  60.0126485  84.0659665
  40.0831191  60.3711109  84.9302886  46.0649914  59.5380742  92.6350945
  46.8513004  59.1200165  92.2841362  46.3288619  60.4426834  92.8032594
  46.2359992  64.9753593  87.3339602  45.6005825  65.0488219  88.0460507
  45.9057398  65.5647191  86.6558681  51.4658342  59.4755975  93.5383924
  52.1983513  58.9055192  93.7721753  50.7097697  59.0877576  93.9790429
  43.0834461  61.8983217  90.7347266  42.7192669  61.3713838  91.4460188
  43.9401577  61.5081686  90.5613752  48.9883762  53.1877550  97.9978532
  48.6567087  54.0572961  97.7739747  48.3929375  52.8713834  98.6772563
  42.7239948  56.9273117  85.7308615  42.8914351  57.7953353  86.0979086
  42.5337117  57.0900398  84.8069904  45.4815281  65.3890096  97.3974445
  45.1816005  66.2915134  97.2890252  45.1366341  65.1222279  98.2495598
  38.9327763  61.8403892  93.4311149  38.0078259  61.7080107  93.6388841
  39.1812176  62.6198112  93.9281092  48.8812425  57.9072636  95.0771882
  47.9729303  57.8388044  94.7830643  48.8300021  58.3844581  95.9053708
  42.7029169  59.3830774  86.7155281  42.5828794  59.8287825  87.5540762
  42.0081758  59.7316092  86.1568820  36.2936574  61.4837166  94.2654939
  36.4228955  61.7371645  95.1794350  35.6134025  62.0764874  93.9459594
  40.4636061  72.1534416  90.3645413  40.3860091  73.1042241  90.4433893
  39.8597705  71.8080288  91.0220339  42.9553291  59.3262281 103.0206780
  42.1786625  59.8856201 103.0109644  43.5943854  59.8119064 103.5421650
  50.7474072  56.1089074  96.8549756  50.1048452  56.4021607  96.2089551
  50.2429000  55.9941994  97.6602953  48.4014235  59.8552247  87.5435616
  49.3132091  60.0879634  87.3683313  47.8923882  60.4389292  86.9810694
  41.2099663  62.1347735 102.5824747  41.9514348  62.6732779 102.3059570
  40.5036649  62.7614023 102.7396298  46.6855003  64.2776875 101.1796908
  47.0938359  63.8359286 100.4351540  45.9632264  63.7029503 101.4331101
  43.0386073  59.2149482  98.5530465  43.8847268  59.6388896  98.6965114
  42.9784711  58.5583106  99.2469028  47.0083818  64.8378066  94.9349197
  46.3792680  65.0023780  94.2325265  46.6209480  65.2519675  95.7060161
  50.8873049  65.7732504  92.2893561  50.2024088  66.1531405  91.7390594
  50.9716899  66.3827830  93.0225509  46.1885518  56.8753850 100.2111639
  45.9446450  57.6295911  99.6745914  46.4645449  57.2539198 101.0458886
  48.1423981  63.4192463  98.8888904  48.3540876  64.0624223  98.2123285
  48.0953729  62.5854779  98.4210834  45.7450210  56.0310283  95.7925476
  44.8834689  56.3291537  96.0842214  45.7712645  56.2480682  94.8606509
  42.5611779  64.5752474  92.1999282  43.0250125  64.8540177  91.4103905
  42.2968578  63.6735918  92.0172373  39.4535861  64.1223955  95.1379045
  40.0237218  64.5511224  94.4996530  40.0443972  63.8406540  95.8363231
  41.4980666  60.6975626  89.0088847  42.2004709  61.1496670  89.4762774
  41.1661294  60.0559445  89.6368740  39.9461027  59.2887383 103.3840057
  39.3159688  59.9703664 103.6175453  39.8397115  59.1770464 102.4393195
  35.2405999  58.9559179  94.3105981  34.4505053  59.2116707  93.8346091
  35.7317247  59.7707517  94.4158021  49.2569809  66.2964418  97.0611262
  50.0787253  65.8944605  96.7793943  49.2532212  66.1932652  98.0127377
  37.1920745  59.3203758  91.2689457  36.3951908  59.4322452  91.7872953
  36.9646337  59.6590410  90.4030348  43.0226412  65.8448461  99.2171972
  43.0870845  66.3068869 100.0530144  42.3137336  65.2145826  99.3454282
  33.5243702  59.2089669  96.7420972  33.7751741  60.0936679  97.0078548
  34.0603251  59.0294271  95.9696063  57.3475802  62.6403167  93.4096233
  56.5939510  62.0710565  93.2540238  57.4823343  62.6065831  94.3566868
  42.7374430  67.5116569  89.0850952  42.6020105  68.3568105  89.5135800
  43.2784243  67.7135847  88.3216886  39.2241770  53.5908149 105.7465308
  38.8308715  53.0374347 106.4212952  40.0407910  53.9018727 106.1371825
  36.1903828  65.0292007  89.6578878  36.7028348  65.8235257  89.8084442
  36.8426540  64.3318297  89.5912479  37.9998712  68.1457763  91.7401631
  38.1765341  69.0675728  91.5522615  38.7955546  67.8316182  92.1696010
  42.1409731  55.0066028 103.3385564  42.8819444  55.6073181 103.2590027
  42.3727654  54.2643666 102.7803607  37.2851069  60.1922395 101.6163794
  37.1704584  59.2907652 101.9170893  36.4295587  60.4386092 101.2648610
  44.3642907  68.1340135 103.2151295  43.9206761  67.3476514 102.8972199
  45.0260120  68.3219286 102.5495185  39.1230028  69.6635937  97.7411973
  39.6737453  69.5353000  96.9688967  38.2841504  69.9630826  97.3906866
  46.4624145  68.4142935 101.2432696  46.4442620  69.2351816 100.7512965
  47.3844065  68.2897011 101.4682837  42.9197199  65.9287065 102.0856204
  43.4525536  65.1675353 101.8555512  42.3911280  65.6360717 102.8280359
  46.0866894  51.0347131  97.6149846  45.7431163  51.9248772  97.5388956
  46.4545856  50.8448788  96.7519431  34.1552744  63.3580661  90.4338448
  34.9927966  63.7677670  90.2172156  34.3331012  62.4180103  90.4038642
  46.0517176  61.0255742  86.1222281  45.5363800  61.7960347  86.3610668
  45.7794485  60.3520878  86.7455342  43.6364287  55.8705443  91.1807519
  42.7805884  55.4812293  91.0013158  44.0491239  55.9497403  90.3207305
  45.1663434  53.4051786  95.5799079  44.6628230  53.3681921  94.7666884
  45.4594041  54.3144529  95.6395736  41.4106320  53.4890516  94.5865261
  42.2759317  53.2933324  94.2271150  41.4783829  53.2600867  95.5134618
  51.0251451  63.7788097  88.0575455  50.2480893  63.4399256  87.6130617
  51.7042932  63.7840720  87.3830420  45.8403480  58.8982834  87.9482062
  45.5353615  59.2128983  88.7992205  46.7933922  58.9764254  87.9909395
  44.2849911  65.0573057  89.5975016  43.7571273  64.3225817  89.2848254
  43.7837414  65.8347734  89.3514985  49.2642757  63.2522078  94.7142062
  48.6066432  63.9421339  94.8022191  50.0683157  63.6418510  95.0576049
  39.0168639  55.7192724  91.9581628  39.5912391  55.4967905  91.2254821
  39.6039622  55.7881418  92.7110229  48.0748216  61.6066450  92.7646004
  48.5880098  62.2396442  93.2667714  48.7249440  61.0067646  92.3989364
  39.3438226  57.7497185  85.9777513  38.5075538  58.0871871  86.2986788
  39.2042996  57.6146164  85.0404650  41.3191307  52.5933972  90.6856697
  40.6655719  52.2782990  90.0613312  41.2771781  51.9709713  91.4116520
  45.3370591  71.5850775  85.5206675  44.6632289  71.8882471  86.1291633
  45.7236412  72.3879855  85.1712132  44.5529047  59.0815906  95.0104345
  43.6351609  59.3030853  94.8526033  44.9689191  59.1562216  94.1516052
  45.3364095  60.4807322  90.1407025  46.0835914  60.9928719  89.8314147
  45.6055684  60.1591374  91.0011419  43.6090745  62.9765862  87.1233979
  42.7001964  62.6924895  87.2206449  43.6385829  63.3964941  86.2637286
  48.8410012  66.5872452  90.8925147  48.3872340  65.7463362  90.9490337
  48.2103979  67.2233850  91.2299927  47.7842932  57.5164438  92.1225814
  47.0465689  57.0041824  92.4536057  48.0369706  57.0764820  91.3109091
  47.2842952  68.4248949  91.8274965  47.5765926  68.9854006  91.1087331
  47.7941572  68.7177510  92.5828124  47.8854559  50.2940690  92.7167584
  48.1913436  49.4338053  92.4293499  48.6107164  50.8858310  92.5166577
  34.1778915  60.6971377  91.1049182  33.9803315  60.1040737  90.3800248
  33.6225579  60.3923587  91.8225120  42.1575639  60.5894483  93.2243775
  42.2124249  59.6368319  93.1486251  41.3466841  60.7453922  93.7085073
  40.0967999  59.2071543  90.9834154  39.2835865  59.5065713  91.3899346
  40.5926993  58.8127232  91.7008636  42.2476577  69.2029300  92.9168418
  42.2052756  69.4290146  91.9876950  43.1639276  68.9692674  93.0654219
  45.6942211  59.6713367  99.8149047  46.0491598  59.8984840 100.6743513
  46.3414342  60.0031744  99.1926303  51.4239948  62.7931803  90.5198376
  51.2857846  62.9833399  89.5919566  51.0676166  63.5551186  90.9766428
  39.5882074  56.7789898  96.5995388  40.2281453  56.6378657  95.9018352
  38.7559604  56.4924412  96.2233990  51.4509327  64.8608330  95.5309648
  51.8845834  64.7683619  96.3792702  52.1640908  64.8365831  94.8929664
  40.3642378  66.0792329  92.7130381  41.1582976  65.5842649  92.5112956
  39.6534070  65.5510192  92.3498087  45.1837222  68.4610424  97.0642749
  45.2374244  69.0301361  97.8320464  44.3152004  68.6312309  96.6996786
  36.6725141  60.2235410  88.7890134  35.7422729  60.1619866  89.0060096
  36.7682613  59.7011363  87.9926775  36.5910690  56.7490223  91.3768375
  36.8517508  57.6635557  91.2677536  37.4127863  56.2814666  91.5264988
  38.0635616  58.1627980  98.5467200  38.7358669  57.9545343  97.8979849
  37.2365402  57.9650066  98.1072432  52.3124877  64.9032031  98.0642533
  52.5060767  65.8077841  98.3101808  52.2125495  64.4439450  98.8981118
  43.9661188  54.7889921 100.5632861  43.3189103  55.4879871 100.4697337
  44.7362203  55.2226065 100.9309109  47.3739986  65.0538774 103.6383414
  47.2225492  64.8249325 102.7213498  47.3644665  66.0109375 103.6514759
  44.1425322  62.6270686  98.6229680  45.0717382  62.7781846  98.4498648
  43.7216352  62.7154707  97.7678327  42.9413654  66.6521351  96.3928218
  42.8024739  66.2840135  97.2654156  42.1528250  67.1668990  96.2212176
  43.5361806  71.7530447  87.7353755  43.7113561  71.2818490  88.5499377
  42.8494594  72.3796213  87.9635015  44.4918869  66.0302953  93.7817056
  44.1568701  65.9903723  94.6774706  43.9922815  65.3647669  93.3087466
  38.4663113  61.4370583  99.3069637  38.3282911  60.7050822  99.9081176
  39.3768036  61.3479484  99.0253825  47.4278060  63.3758988  84.0554115
  46.8107231  62.6505816  83.9587168  46.9594549  64.1368348  83.7121190
  41.0945413  61.1490543  98.7953317  41.8045032  60.5083735  98.7539935
  41.0514722  61.4003438  99.7179497  49.0832192  68.0857896 101.7159896
  49.0244738  67.4017116 101.0490479  49.4851711  68.8276886 101.2640522
  39.8074347  58.1355761 100.6148956  39.2711704  57.6846499 101.2670552
  39.2191056  58.2701669  99.8719420  38.1022891  74.9019810  94.5093615
  38.3419489  75.5338334  95.1872633  37.2592087  74.5507850  94.7958974
  39.2176606  57.5944412  83.1775420  38.3406073  57.4733213  82.8137666
  39.6934359  56.8030490  82.9254308  49.0849599  66.0497480  99.9473876
  48.1976378  65.7123402 100.0700274  49.6548150  65.3180511 100.1842641
  30.7378747  62.3821572  93.2716927  31.4249786  62.0683302  92.6837942
  30.5826875  63.2862936  92.9984178  35.5413469  57.2711768  97.7001951
  35.4571657  56.6637438  96.9652361  34.7196175  57.7620787  97.7011447
  42.6150753  70.7098932  96.9135119  42.5420924  71.5153904  97.4254423
  42.1728146  70.9090898  96.0883140  42.4040532  69.9470702  90.4237940
  41.6208054  70.4892383  90.5176165  43.1033278  70.4644682  90.8232181
  45.7137183  55.7565332  93.0672146  46.2105882  55.0035294  92.7473216
  44.9424164  55.7929649  92.5015355  53.5666940  61.4605697  94.7090437
  53.5556816  62.3430413  94.3384370  52.6984319  61.1077248  94.5144974
  45.0749436  70.6085766  99.0693277  45.7877409  71.2433231  98.9969179
  44.5839465  70.7049632  98.2533279  46.7966963  64.5137019  90.6410569
  45.8623242  64.6338482  90.4715273  46.9743632  63.6109486  90.3770579
  42.2972151  57.8982715  92.7943830  41.9269939  57.3453755  93.4824736
  42.7931244  57.2940848  92.2418830  50.1839515  60.3554338  91.1760603
  50.6499967  61.1882330  91.1020906  50.6347015  59.8899320  91.8805862
  40.1261350  68.3580210  99.8898848  40.8270809  68.9916693 100.0428242
  39.6556465  68.6994941  99.1294487  48.2515746  66.6998160  88.1746755
  48.5275590  66.5854754  89.0840629  47.3820244  66.3015645  88.1358928
  48.1556177  52.7234925  95.2151505  47.2419257  52.9539152  95.3833711
  48.5849279  52.8073369  96.0665537  47.9262636  60.9124817  97.7151399
  47.2734086  61.1600725  97.0603851  48.3043016  60.0988956  97.3813876
  44.8869810  70.9484510  91.8179569  45.0692204  70.1306166  92.2807321
  45.7102796  71.1652203  91.3804459  45.2211975  69.8752696  89.0794617
  45.7499742  69.3645150  88.4664779  45.4840195  69.5595226  89.9440150
  43.9750209  61.6544628 104.2017436  43.2990846  61.5538758 104.8719811
  44.7977843  61.4983842 104.6653433  35.7229068  67.8916565  96.8229951
  36.3082505  67.1460253  96.9557855  35.5253906  68.2020522  97.7066615
  38.5767723  70.9267812  91.8392393  37.9078098  71.4113940  91.3556433
  38.4380593  71.1737033  92.7535772  30.3146723  60.4622165  95.5434394
  30.3530822  59.9285756  96.3371512  29.8087015  59.9357371  94.9245371
  42.7172992  72.9611556  98.4375052  43.2691300  73.1243177  99.2024137
  43.0579185  73.5515994  97.7655076  37.6937485  55.3086706  99.0396936
  37.7578811  56.1701537  98.6274334  37.6304605  54.6960707  98.3069295
  37.1689757  57.3809838 102.6869971  37.7961796  56.9986915 103.3007495
  36.3117676  57.1624040 103.0525663  47.5683866  67.7872813 104.2923706
  48.1123770  68.4002772 103.7978661  46.9870711  68.3452392 104.8090719
  33.9455300  59.1886267  88.6188325  34.2408741  58.2796946  88.5655379
  33.0443336  59.1674007  88.2969328  45.8541379  70.9093531  95.4238734
  45.7292518  70.1083271  94.9149679  46.5120470  71.4039725  94.9352704
  37.4749547  57.2642264  94.6015874  36.7536133  57.8778232  94.4623347
  38.2642803  57.8000029  94.5232520  47.9176287  68.7102551  97.0518284
  46.9706623  68.5907903  96.9796611  48.2659061  67.8225049  97.1344545
  40.2775861  54.5996690 100.8756526  40.8010263  54.8458987 101.6382835
  40.0588194  55.4316725 100.4559663  35.6743142  56.8700365  88.7427651
  35.3455848  55.9897744  88.5602756  36.0282513  56.8148034  89.6304040
  44.9222721  68.5055268  93.2522636  44.7747683  67.5771975  93.4330206
  45.7476214  68.5275358  92.7679711  38.7884965  57.1573335  89.1103128
  39.1281037  57.6859256  88.3881737  39.2357085  57.4953741  89.8861695
  48.5256843  69.3283826  94.3387509  49.4503390  69.1226688  94.2011960
  48.3572146  69.0800228  95.2476850  41.4828406  55.5410385  98.5606196
  41.1425226  54.7418199  98.9626876  40.7767412  55.8412096  97.9883029
  42.1344878  52.6259698  97.0133519  42.9570947  52.1520176  96.8912410
  42.3782941  53.4050182  97.5132206  40.7753112  55.6547956  87.3096421
  41.4961475  56.0329209  86.8060138  40.1518416  56.3736833  87.4131399
  44.9184235  56.3593105  88.2454753  45.1347849  57.2417743  87.9443581
  44.4378302  55.9679319  87.5160395  39.6583456  59.3178819  94.8225498
  39.5128037  59.6319122  95.7149779  39.1808660  59.9363719  94.2696397
  41.5179839  56.3081367  94.8706387  41.5041408  55.4122460  94.5338685
  42.2352267  56.3152030  95.5044674  43.3705970  56.7418707  96.9159515
  43.1123748  57.6635777  96.9143845  42.8391010  56.3449141  97.6059979
  48.3152159  69.8469494  89.6949600  48.4889036  69.2815916  88.9423453
  48.8081050  70.6470389  89.5129090  34.1329119  61.8584163  97.7613159
  33.5882587  62.6343971  97.8933433  35.0108468  62.2054967  97.6032281
  40.9216735  55.1895747  90.1393958  41.0432646  54.2612393  90.3384845
  40.6318778  55.2034433  89.2272273  43.7907926  52.8750657  93.2760677
  43.8129622  52.9389990  92.3212657  44.2075985  52.0355166  93.4701184
  54.1691550  62.6105917  91.3139900  54.6122696  61.8613242  90.9159023
  53.2918060  62.6016053  90.9313632  49.3027331  69.1636258  86.7946499
  49.9978236  69.7842951  87.0133813  49.6450481  68.3131609  87.0698876
  34.9195140  60.9854059 100.6543316  34.1776876  61.1336695 101.2407946
  34.5987885  61.2462325  99.7910065  51.2018754  66.6135964  88.3233829
  51.7270078  66.9523237  87.5983149  51.1141107  65.6782979  88.1396964
  42.8638803  70.5270037 100.4523706  43.1725930  70.2819184 101.3246406
  43.6614285  70.7316676  99.9642576  42.8859415  72.6807947  92.6829083
  42.4464405  72.1884326  93.3761939  43.6367532  72.1380915  92.4421158
  35.3651754  68.8719488  92.6853711  36.1909774  68.5723260  92.3052354
  35.0145806  68.1027110  93.1343499  40.3333287  68.2245956  94.7551384
  39.7113297  67.5616661  94.4553612  41.0038154  68.2507088  94.0725032
  33.5660359  66.7905814  93.6442644  32.7292267  66.3627989  93.4626645
  33.5384005  66.9838258  94.5813435  40.4057815  56.7027744 104.3483890
  40.4545970  57.5789867 103.9661660  40.9480329  56.1605137 103.7755533
  50.8912660  67.2468867 103.6285027  50.1008204  67.2293006 103.0889527
  50.6546015  67.7857161 104.3834064  51.0110535  64.0961334 100.9417756
  51.0608540  63.9311341 101.8833279  50.9024459  63.2288593 100.5515637
  39.8946794  66.7749879  88.2309845  40.0434915  67.4585344  87.5776517
  40.7013238  66.7554970  88.7459300  48.3014298  60.0792262 102.2577063
  49.2024161  59.9398727 101.9661060  48.3762272  60.2446717 103.1975240
  42.6357103  57.4559117 101.1030249  41.7660413  57.7492683 100.8312837
  42.8716584  58.0399562 101.8237513  52.5128732  66.5158275 101.1859777
  52.2213541  66.8788256 102.0223238  51.9000864  65.8025284 101.0073109
  53.7124415  64.0811155  93.7062348  54.5471306  64.5200959  93.8699908
  53.8483543  63.6049808  92.8870593  50.7615921  61.6390890  99.6539835
  51.2370042  61.8318536  98.8458687  49.8381486  61.6950076  99.4083219
  37.6499427  62.8015057  89.2370914  37.4045469  61.8977387  89.4351124
  37.8195342  62.8032208  88.2950392  45.3396137  53.6738733  98.6195669
  45.8578081  54.4099760  98.2942158  44.9851270  53.9802727  99.4542428
  36.9195075  58.5343415  86.7357075  36.2264320  58.6087770  86.0797111
  36.6746827  57.7703758  87.2578592  45.5908731  50.0939016  94.1396566
  45.8710485  49.4262205  94.7656992  46.3759338  50.2868112  93.6271230
  43.3942200  69.2698010  85.7021592  42.8216167  69.8888197  85.2492064
  43.9674993  69.8197372  86.2361514  49.4617590  58.5156650  97.8868141
  50.4135012  58.6154748  97.9080365  49.2921040  57.7234919  98.3966225
  47.4831969  55.6012233  98.0727542  46.8881901  55.8817246  97.3774031
  47.1981666  56.0906134  98.8444283  46.6139459  69.5535160  86.8330174
  47.5470133  69.4880722  87.0363050  46.5262672  70.3891427  86.3744707
  49.2427476  68.8701030  83.7934122  49.1641108  68.5360894  84.6869880
  50.0637143  69.3622798  83.7925594  51.9405667  61.7362770  97.0010441
  51.9081987  60.7978770  97.1870124  52.5506291  61.8146806  96.2676266
  43.7788998  60.6058823  83.0437645  44.7248103  60.4765031  83.1126063
  43.4003243  59.8673485  83.5207073  52.0900156  58.5273813  97.0468724
  51.5739204  57.7432270  96.8598653  52.9740104  58.1992530  97.2115243
  49.7510883  52.2714829  93.0064536  49.5535704  51.9629917  93.8907868
  50.3610588  52.9976468  93.1362466  57.7582217  62.7978777  96.1416477
  58.4885606  62.5364065  96.7024181  57.1489163  62.0607498  96.1818545
  55.8397514  60.9386639  96.7390929  55.1130678  60.8042604  96.1307420
  55.4244801  61.2463468  97.5447647  43.6627691  64.6576569 104.5038302
  44.5830700  64.8355168 104.6978348  43.6277274  63.7132614 104.3518001
  41.9631915  58.5308799  82.9792530  41.0563371  58.2341912  83.0555243
  42.2407896  58.2338617  82.1126816  32.8809856  59.8515162  93.4291576
  32.5612640  58.9980471  93.1365950  32.3343284  60.0663741  94.1849544
  36.6589763  62.5677603  97.1461083  36.8775773  63.4994711  97.1649117
  37.0715537  62.2085578  97.9315887  43.5793981  53.0745689  89.1336771
  42.7694709  52.7292774  89.5092017  44.2678398  52.7653233  89.7224383
  45.5084529  52.1523736  90.7561068  46.0615568  52.5719189  91.4151091
  45.7454616  51.2259484  90.7984024  41.5317629  58.1410809 106.5363832
  41.4314355  59.0905166 106.4675923  41.3139171  57.8129048 105.6639902
  32.7498116  63.4718074  95.3984698  32.0561587  63.0572027  94.8854652
  33.4971107  63.5138610  94.8018117  48.8863336  54.2624261  90.2639732
  48.3062005  54.9209065  89.8817784  48.6199269  53.4401605  89.8527150
  47.3366903  53.6629318  92.4661052  47.8366681  53.7745853  91.6575371
  47.9802511  53.3590371  93.1061861  41.3948899  61.5707948 105.3528893
  40.9115980  62.3708308 105.5592782  41.4809838  61.5815893 104.3996337
  34.6634858  63.4036328  93.2750713  34.6405546  63.5024015  92.3232596
  34.9735495  64.2501479  93.5967879  37.3222236  65.4612483  97.3897327
  38.2765490  65.4296425  97.3227259  37.1234760  65.0003107  98.2047553
  37.9121618  64.0313599  99.9568125  38.7314507  64.5257677  99.9802962
  38.1858426  63.1145567  99.9285692  47.6688214  56.4224351  89.3196080
  46.7814069  56.7074002  89.1016275  48.0842204  56.2618114  88.4723357
  51.0202751  56.4470872  93.0350420  51.7963141  56.9367325  93.3075036
  50.2950885  56.8728926  93.4922289  53.4575309  57.1598491  94.0924360
  54.0519800  56.9194227  93.3817668  53.5301893  56.4405622  94.7197897
  35.6772465  71.0032102  94.4067525  35.5426933  70.2432503  93.8405523
  35.2604527  71.7273002  93.9396314  46.8131428  66.1869026  83.4144100
  47.5167278  66.3919028  84.0301756  46.0894077  66.7545788  83.6793184
  47.6429238  61.9378887  89.5346370  47.5864440  62.3947438  88.6954003
  48.1957581  61.1769572  89.3569213  51.4534044  57.7268619  90.3596490
  51.1970978  57.3265255  91.1904698  50.8286912  58.4412413  90.2346629
  55.7646382  60.4664692  92.8667781  55.2045940  60.5357881  93.6399343
  55.1589885  60.2905677  92.1467278  38.8341591  71.9001419  94.6185968
  38.7173975  72.8446852  94.5164658  38.0134037  71.5974981  95.0071767
  48.7218125  66.6251555  85.4642560  49.5563729  66.1932753  85.2820035
  48.5602468  66.4533569  86.3919455  48.3764018  63.1283668  86.8298900
  48.3212821  62.9627940  85.8887344  47.7510073  63.8359701  86.9861089
  33.1656533  58.3651733 100.6560322  33.8115396  57.8550687 101.1447547
  32.9573684  59.1020414 101.2303747  45.6909925  65.4332580 106.1552462
  46.5601084  65.6073232 105.7939097  45.2116676  66.2526997 106.0328192
  39.8596105  72.5529681  97.8341896  40.7623352  72.5853291  98.1508391
  39.6333475  71.6230132  97.8488232  41.6149707  71.3060668  94.4951975
  40.6645338  71.3062529  94.3816347  41.9182193  70.5593402  93.9788009
  45.5012262  49.2234554  90.6630155  44.7344658  48.6693041  90.8086837
  45.9122967  49.2956423  91.5244307  37.5054024  55.5119350 104.7535336
  38.3685485  55.1556155 104.9638661  36.9319434  55.1733245 105.4410740
  57.3502400  77.1421206  95.5597737  57.9880810  77.0227953  94.8561077
  57.2323243  78.0902050  95.6185689  54.1592107  77.0948634  95.4959262
  53.8210618  76.9789699  94.6079797  55.0281875  76.6939799  95.4760268
  50.0178922  78.9484111  91.4856153  49.4543788  78.8574048  90.7172441
  49.9031317  78.1284015  91.9658645  54.6411890  78.2483486 101.4545467
  54.6300530  77.8536284 100.5825971  54.8032529  77.5149559 102.0479239
  47.5643354  80.4435302  94.3240373  48.3564646  80.1026127  93.9086673
  47.8040005  80.5530277  95.2442527  55.5978481  82.6155078  86.7970618
  54.9466461  83.2009159  86.4104631  56.3922844  83.1461273  86.8565655
  49.5234108  79.7044215  87.1957752  50.2964984  79.1573203  87.0570628
  49.8759507  80.5688465  87.4072213  51.3619151  81.0320598 100.4024651
  51.0709017  81.9366229 100.2871318  51.9976135  81.0737125 101.1168721
  52.2875358  78.4097446  96.9926011  52.8838930  78.1853469  96.2782974
  52.3450329  77.6682192  97.5951459  51.8600386  75.8636882  84.8276202
  52.1125907  75.3418403  84.0659665  50.9224945  75.7003027  84.9302886
  56.9043669  74.8672660  92.6350945  57.6906758  74.4492083  92.2841362
  57.1682373  75.7718752  92.8032594  57.0753746  80.3045510  87.3339602
  56.4399579  80.3780137  88.0460507  56.7451153  80.8939109  86.6558681
  62.3052096  74.8047893  93.5383924  63.0377268  74.2347110  93.7721753
  61.5491452  74.4169494  93.9790429  51.5796675  77.7664988  87.0300577
  51.4632933  77.0909891  87.6981661  51.6898935  77.2797361  86.2132730
  53.9228216  77.2275135  90.7347266  53.5586423  76.7005756  91.4460188
  54.7795332  76.8373604  90.5613752  59.8277516  68.5169467  97.9978532
  59.4960841  69.3864878  97.7739747  59.2323130  68.2005751  98.6772563
  53.5633703  72.2565034  85.7308615  53.7308105  73.1245271  86.0979086
  53.3730872  72.4192316  84.8069904  56.3209036  80.7182013  97.3974445
  56.0209759  81.6207052  97.2890252  55.9760095  80.4514196  98.2495598
  49.7721517  77.1695810  93.4311149  48.8472014  77.0372024  93.6388841
  50.0205931  77.9490029  93.9281092  59.7206180  73.2364553  95.0771882
  58.8123057  73.1679962  94.7830643  59.6693776  73.7136498  95.9053708
  53.5422924  74.7122692  86.7155281  53.4222549  75.1579743  87.5540762
  52.8475512  75.0608010  86.1568820  47.1330328  76.8129084  94.2654939
  47.2622710  77.0663563  95.1794350  46.4527780  77.4056792  93.9459594
  51.3029816  87.4826334  90.3645413  51.2253845  88.4334159  90.4433893
  50.6991459  87.1372206  91.0220339  53.7947045  74.6554199 103.0206780
  53.0180380  75.2148119 103.0109644  54.4337609  75.1410982 103.5421650
  61.5867826  71.4380992  96.8549756  60.9442206  71.7313525  96.2089551
  61.0822755  71.3233912  97.6602953  59.2407990  75.1844165  87.5435616
  60.1525846  75.4171552  87.3683313  58.7317637  75.7681209  86.9810694
  52.0493418  77.4639652 102.5824747  52.7908102  78.0024696 102.3059570
  51.3430403  78.0905941 102.7396298  57.5248757  79.6068793 101.1796908
  57.9332113  79.1651203 100.4351540  56.8026019  79.0321420 101.4331101
  53.8779827  74.5441400  98.5530465  54.7241023  74.9680813  98.6965114
  53.8178465  73.8875024  99.2469028  57.8477572  80.1669983  94.9349197
  57.2186435  80.3315698  94.2325265  57.4603234  80.5811593  95.7060161
  61.7266804  81.1024421  92.2893561  61.0417842  81.4823323  91.7390594
  61.8110653  81.7119748  93.0225509  57.0279273  72.2045768 100.2111639
  56.7840205  72.9587829  99.6745914  57.3039203  72.5831116 101.0458886
  58.9817736  78.7484380  98.8888904  59.1934631  79.3916140  98.2123285
  58.9347484  77.9146697  98.4210834  56.5843965  71.3602201  95.7925476
  55.7228444  71.6583455  96.0842214  56.6106399  71.5772600  94.8606509
  53.4005534  79.9044392  92.1999282  53.8643879  80.1832095  91.4103905
  53.1362332  79.0027836  92.0172373  50.2929615  79.4515873  95.1379045
  50.8630972  79.8803141  94.4996530  50.8837727  79.1698458  95.8363231
  52.3374420  76.0267544  89.0088847  53.0398463  76.4788588  89.4762774
  52.0055049  75.3851363  89.6368740  50.7854782  74.6179301 103.3840057
  50.1553442  75.2995581 103.6175453  50.6790869  74.5062382 102.4393195
  46.0799754  74.2851097  94.3105981  45.2898808  74.5408625  93.8346091
  46.5711001  75.0999434  94.4158021  60.0963564  81.6256336  97.0611262
  60.9181007  81.2236523  96.7793943  60.0925966  81.5224570  98.0127377
  48.0314499  74.6495676  91.2689457  47.2345663  74.7614370  91.7872953
  47.8040092  74.9882328  90.4030348  53.8620167  81.1740379  99.2171972
  53.9264600  81.6360786 100.0530144  53.1531091  80.5437744  99.3454282
  44.3637457  74.5381587  96.7420972  44.6145495  75.4228597  97.0078548
  44.8997005  74.3586189  95.9696063  68.1869557  77.9695084  93.4096233
  67.4333265  77.4002482  93.2540238  68.3217098  77.9357749  94.3566868
  53.5768185  82.8408487  89.0850952  53.4413859  83.6860022  89.5135800
  54.1177997  83.0427764  88.3216886  50.0635524  68.9200066 105.7465308
  49.6702470  68.3666265 106.4212952  50.8801665  69.2310645 106.1371825
  47.0297582  80.3583925  89.6578878  47.5422103  81.1527175  89.8084442
  47.6820295  79.6610215  89.5912479  48.8392467  83.4749681  91.7401631
  49.0159095  84.3967646  91.5522615  49.6349300  83.1608100  92.1696010
  52.9803485  70.3357946 103.3385564  53.7213199  70.9365099 103.2590027
  53.2121408  69.5935583 102.7803607  48.1244823  75.5214313 101.6163794
  48.0098338  74.6199570 101.9170893  47.2689341  75.7678010 101.2648610
  55.2036661  83.4632053 103.2151295  54.7600515  82.6768432 102.8972199
  55.8653875  83.6511204 102.5495185  49.9623782  84.9927855  97.7411973
  50.5131207  84.8644918  96.9688967  49.1235258  85.2922744  97.3906866
  57.3017899  83.7434853 101.2432696  57.2836374  84.5643734 100.7512965
  58.2237819  83.6188928 101.4682837  53.7590953  81.2578982 102.0856204
  54.2919290  80.4967271 101.8555512  53.2305034  80.9652634 102.8280359
  56.9260648  66.3639048  97.6149846  56.5824918  67.2540690  97.5388956
  57.2939611  66.1740706  96.7519431  44.9946499  78.6872579  90.4338448
  45.8321721  79.0969587  90.2172156  45.1724767  77.7472021  90.4038642
  56.8910931  76.3547660  86.1222281  56.3757554  77.1252264  86.3610668
  56.6188239  75.6812796  86.7455342  54.4758042  71.1997360  91.1807519
  53.6199638  70.8104211  91.0013158  54.8884994  71.2789321  90.3207305
  56.0057189  68.7343704  95.5799079  55.5021984  68.6973839  94.7666884
  56.2987795  69.6436446  95.6395736  52.2500074  68.8182433  94.5865261
  53.1153071  68.6225242  94.2271150  52.3177583  68.5892785  95.5134618
  61.8645205  79.1080014  88.0575455  61.0874648  78.7691174  87.6130617
  62.5436686  79.1132637  87.3830420  56.6797234  74.2274752  87.9482062
  56.3747370  74.5420901  88.7992205  57.6327676  74.3056172  87.9909395
  55.1243666  80.3864975  89.5975016  54.5965028  79.6517735  89.2848254
  54.6231169  81.1639651  89.3514985  60.1036512  78.5813995  94.7142062
  59.4460186  79.2713257  94.8022191  60.9076911  78.9710427  95.0576049
  49.8562394  71.0484641  91.9581628  50.4306145  70.8259823  91.2254821
  50.4433376  71.1173336  92.7110229  58.9141971  76.9358368  92.7646004
  59.4273853  77.5688360  93.2667714  59.5643195  76.3359564  92.3989364
  50.1831981  73.0789102  85.9777513  49.3469293  73.4163789  86.2986788
  50.0436750  72.9438082  85.0404650  52.1585061  67.9225890  90.6856697
  51.5049474  67.6074907  90.0613312  52.1165535  67.3001631  91.4116520
  53.2696266  78.2045185  82.6009989  52.3623328  77.9734439  82.8001138
  53.7667298  77.4082804  82.7883971  56.1764345  86.9142692  85.5206675
  55.5026044  87.2174389  86.1291633  56.5630167  87.7171773  85.1712132
  55.3922802  74.4107824  95.0104345  54.4745363  74.6322771  94.8526033
  55.8082945  74.4854134  94.1516052  56.1757849  75.8099239  90.1407025
  56.9229668  76.3220637  89.8314147  56.4449439  75.4883292  91.0011419
  54.4484500  78.3057780  87.1233979  53.5395719  78.0216813  87.2206449
  54.4779583  78.7256859  86.2637286  59.6803767  81.9164370  90.8925147
  59.2266094  81.0755279  90.9490337  59.0497734  82.5525768  91.2299927
  58.6236687  72.8456356  92.1225814  57.8859443  72.3333742  92.4536057
  58.8763460  72.4056737  91.3109091  58.1236706  83.7540866  91.8274965
  58.4159681  84.3145923  91.1087331  58.6335327  84.0469427  92.5828124
  58.7248314  65.6232608  92.7167584  59.0307191  64.7629971  92.4293499
  59.4500919  66.2150228  92.5166577  45.0172670  76.0263294  91.1049182
  44.8197070  75.4332655  90.3800248  44.4619334  75.7215504  91.8225120
  52.9969394  75.9186401  93.2243775  53.0518003  74.9660237  93.1486251
  52.1860596  76.0745840  93.7085073  54.1460587  79.8466524  84.4622058
  53.7080017  79.1302383  84.0027695  54.8871028  80.0742639  83.9007149
  50.9361754  74.5363460  90.9834154  50.1229619  74.8357631  91.3899346
  51.4320748  74.1419149  91.7008636  53.0870331  84.5321217  92.9168418
  53.0446510  84.7582064  91.9876950  54.0033030  84.2984592  93.0654219
  56.5335965  75.0005285  99.8149047  56.8885353  75.2276758 100.6743513
  57.1808096  75.3323662  99.1926303  62.2633702  78.1223721  90.5198376
  62.1251601  78.3125317  89.5919566  61.9069921  78.8843104  90.9766428
  50.4275828  72.1081816  96.5995388  51.0675208  71.9670575  95.9018352
  49.5953359  71.8216329  96.2233990  62.2903082  80.1900248  95.5309648
  62.7239588  80.0975537  96.3792702  63.0034662  80.1657748  94.8929664
  51.2036132  81.4084246  92.7130381  51.9976731  80.9134567  92.5112956
  50.4927825  80.8802110  92.3498087  56.0230977  83.7902342  97.0642749
  56.0767999  84.3593278  97.8320464  55.1545758  83.9604227  96.6996786
  47.5118896  75.5527328  88.7890134  46.5816484  75.4911784  89.0060096
  47.6076368  75.0303281  87.9926775  47.4304445  72.0782141  91.3768375
  47.6911262  72.9927474  91.2677536  48.2521617  71.6106584  91.5264988
  48.9029370  73.4919898  98.5467200  49.5752423  73.2837260  97.8979849
  48.0759157  73.2941984  98.1072432  63.1518631  80.2323948  98.0642533
  63.3454521  81.1369759  98.3101808  63.0519249  79.7731368  98.8981118
  54.8054942  70.1181839 100.5632861  54.1582857  70.8171789 100.4697337
  55.5755957  70.5517983 100.9309109  54.9819076  77.9562604  98.6229680
  55.9111136  78.1073764  98.4498648  54.5610106  78.0446625  97.7678327
  53.7807408  81.9813268  96.3928218  53.6418494  81.6132053  97.2654156
  52.9922004  82.4960908  96.2212176  54.3755560  87.0822365  87.7353755
  54.5507316  86.6110408  88.5499377  53.6888348  87.7088131  87.9635015
  55.3312623  81.3594871  93.7817056  54.9962456  81.3195641  94.6774706
  54.8316569  80.6939587  93.3087466  49.3056867  76.7662501  99.3069637
  49.1676665  76.0342740  99.9081176  50.2161791  76.6771401  99.0253825
  58.2671815  78.7050905  84.0554115  57.6500986  77.9797734  83.9587168
  57.7988303  79.4660266  83.7121190  51.9339168  76.4782460  98.7953317
  52.6438786  75.8375653  98.7539935  51.8908476  76.7295355  99.7179497
  50.6468102  73.4647678 100.6148956  50.1105459  73.0138417 101.2670552
  50.0584810  73.5993587  99.8719420  48.9416645  90.2311728  94.5093615
  49.1813244  90.8630252  95.1872633  48.0985842  89.8799768  94.7958974
  50.0570361  72.9236330  83.1775420  49.1799827  72.8025130  82.8137666
  50.5328114  72.1322408  82.9254308  59.9243354  81.3789398  99.9473876
  59.0370133  81.0415319 100.0700274  60.4941905  80.6472429 100.1842641
  41.5772501  77.7113489  93.2716927  42.2643541  77.3975219  92.6837942
  41.4220630  78.6154854  92.9984178  46.3807223  72.6003686  97.7001951
  46.2965412  71.9929356  96.9652361  45.5589930  73.0912704  97.7011447
  53.4544507  86.0390850  96.9135119  53.3814679  86.8445822  97.4254423
  53.0121900  86.2382816  96.0883140  53.2434287  85.2762620  90.4237940
  52.4601809  85.8184300  90.5176165  53.9427032  85.7936600  90.8232181
  56.5530937  71.0857250  93.0672146  57.0499637  70.3327212  92.7473216
  55.7817919  71.1221566  92.5015355  64.4060694  76.7897615  94.7090437
  64.3950571  77.6722330  94.3384370  63.5378074  76.4369166  94.5144974
  55.9143191  85.9377684  99.0693277  56.6271163  86.5725149  98.9969179
  55.4233219  86.0341550  98.2533279  57.6360718  79.8428937  90.6410569
  56.7016996  79.9630399  90.4715273  57.8137386  78.9401404  90.3770579
  53.1365906  73.2274633  92.7943830  52.7663693  72.6745673  93.4824736
  53.6324998  72.6232766  92.2418830  61.0233269  75.6846256  91.1760603
  61.4893721  76.5174248  91.1020906  61.4740770  75.2191238  91.8805862
  50.9655104  83.6872128  99.8898848  51.6664564  84.3208611 100.0428242
  50.4950219  84.0286859  99.1294487  59.0909500  82.0290077  88.1746755
  59.3669344  81.9146672  89.0840629  58.2213999  81.6307562  88.1358928
  58.9949932  68.0526843  95.2151505  58.0813012  68.2831070  95.3833711
  59.4243033  68.1365287  96.0665537  58.7656390  76.2416735  97.7151399
  58.1127841  76.4892642  97.0603851  59.1436770  75.4280873  97.3813876
  55.7263564  86.2776428  91.8179569  55.9085959  85.4598084  92.2807321
  56.5496550  86.4944120  91.3804459  56.0605730  85.2044613  89.0794617
  56.5893496  84.6937068  88.4664779  56.3233949  84.8887144  89.9440150
  54.8143963  76.9836546 104.2017436  54.1384600  76.8830675 104.8719811
  55.6371597  76.8275760 104.6653433  46.5622822  83.2208483  96.8229951
  47.1476259  82.4752170  96.9557855  46.3647661  83.5312439  97.7066615
  49.4161478  86.2559730  91.8392393  48.7471853  86.7405858  91.3556433
  49.2774347  86.5028950  92.7535772  41.1540477  75.7914083  95.5434394
  41.1924577  75.2577673  96.3371512  40.6480770  75.2649288  94.9245371
  53.5566746  88.2903473  98.4375052  54.1085054  88.4535095  99.2024137
  53.8972940  88.8807911  97.7655076  48.5331239  70.6378623  99.0396936
  48.5972566  71.4993454  98.6274334  48.4698360  70.0252625  98.3069295
  48.0083512  72.7101756 102.6869971  48.6355551  72.3278833 103.3007495
  47.1511431  72.4915958 103.0525663  44.7849055  74.5178185  88.6188325
  45.0802496  73.6088863  88.5655379  43.8837090  74.4965924  88.2969328
  56.6935134  86.2385449  95.4238734  56.5686273  85.4375189  94.9149679
  57.3514225  86.7331642  94.9352704  48.3143302  72.5934182  94.6015874
  47.5929887  73.2070149  94.4623347  49.1036558  73.1291946  94.5232520
  58.7570042  84.0394469  97.0518284  57.8100377  83.9199820  96.9796611
  59.1052815  83.1516967  97.1344545  51.1169615  69.9288608 100.8756526
  51.6404017  70.1750905 101.6382835  50.8981949  70.7608643 100.4559663
  46.5136896  72.1992283  88.7427651  46.1849602  71.3189662  88.5602756
  46.8676267  72.1439951  89.6304040  55.7616475  83.8347185  93.2522636
  55.6141438  82.9063893  93.4330206  56.5869969  83.8567276  92.7679711
  49.6278719  72.4865252  89.1103128  49.9674792  73.0151174  88.3881737
  50.0750840  72.8245659  89.8861695  59.3650597  84.6575744  94.3387509
  60.2897145  84.4518605  94.2011960  59.1965900  84.4092145  95.2476850
  52.3222160  70.8702303  98.5606196  51.9818981  70.0710116  98.9626876
  51.6161167  71.1704014  97.9883029  52.9738632  67.9551616  97.0133519
  53.7964701  67.4812094  96.8912410  53.2176696  68.7342099  97.5132206
  51.6146867  70.9839874  87.3096421  52.3355229  71.3621127  86.8060138
  50.9912171  71.7028751  87.4131399  55.7577990  71.6885023  88.2454753
  55.9741604  72.5709661  87.9443581  55.2772057  71.2971236  87.5160395
  50.4977211  74.6470736  94.8225498  50.3521792  74.9611039  95.7149779
  50.0202415  75.2655637  94.2696397  52.3573594  71.6373284  94.8706387
  52.3435163  70.7414377  94.5338685  53.0746022  71.6443948  95.5044674
  54.2099724  72.0710624  96.9159515  53.9517502  72.9927695  96.9143845
  53.6784765  71.6741059  97.6059979  59.1545913  85.1761412  89.6949600
  59.3282791  84.6107834  88.9423453  59.6474804  85.9762306  89.5129090
  44.9722873  77.1876081  97.7613159  44.4276341  77.9635889  97.8933433
  45.8502223  77.5346885  97.6032281  51.7610490  70.5187664  90.1393958
  51.8826401  69.5904311  90.3384845  51.4712532  70.5326350  89.2272273
  54.6301680  68.2042575  93.2760677  54.6523377  68.2681908  92.3212657
  55.0469739  67.3647084  93.4701184  65.0085304  77.9397834  91.3139900
  65.4516450  77.1905160  90.9159023  64.1311815  77.9307971  90.9313632
  60.1421086  84.4928176  86.7946499  60.8371990  85.1134869  87.0133813
  60.4844236  83.6423527  87.0698876  45.7588895  76.3145977 100.6543316
  45.0170631  76.4628612 101.2407946  45.4381639  76.5754242  99.7910065
  62.0412509  81.9427881  88.3233829  62.5663833  82.2815154  87.5983149
  61.9534861  81.0074897  88.1396964  53.7032558  85.8561955 100.4523706
  54.0119684  85.6111102 101.3246406  54.5008040  86.0608594  99.9642576
  53.7253170  88.0099865  92.6829083  53.2858160  87.5176243  93.3761939
  54.4761287  87.4672832  92.4421158  46.2045509  84.2011406  92.6853711
  47.0303528  83.9015177  92.3052354  45.8539561  83.4319028  93.1343499
  51.1727042  83.5537874  94.7551384  50.5507051  82.8908579  94.4553612
  51.8431909  83.5799006  94.0725032  44.4054114  82.1197732  93.6442644
  43.5686022  81.6919906  93.4626645  44.3777759  82.3130175  94.5813435
  51.2451569  72.0319662 104.3483890  51.2939725  72.9081785 103.9661660
  51.7874083  71.4897055 103.7755533  61.8504290  79.4253251 100.9417756
  61.9002295  79.2603259 101.8833279  61.7418213  78.5580510 100.5515637
  50.7340549  82.1041797  88.2309845  50.8828669  82.7877262  87.5776517
  51.5406992  82.0846887  88.7459300  59.1408052  75.4084179 102.2577063
  60.0417915  75.2690644 101.9661060  59.2156027  75.5738634 103.1975240
  53.4750858  72.7851034 101.1030249  52.6054167  73.0784600 100.8312837
  53.7110338  73.3691479 101.8237513  64.5518169  79.4103073  93.7062348
  65.3865060  79.8492877  93.8699908  64.6877298  78.9341726  92.8870593
  61.6009675  76.9682808  99.6539835  62.0763797  77.1610454  98.8458687
  60.6775240  77.0241993  99.4083219  48.4893182  78.1306975  89.2370914
  48.2439224  77.2269305  89.4351124  48.6589096  78.1324125  88.2950392
  56.1789892  69.0030651  98.6195669  56.6971835  69.7391678  98.2942158
  55.8245024  69.3094644  99.4542428  47.7588829  73.8635332  86.7357075
  47.0658074  73.9379687  86.0797111  47.5140581  73.0995676  87.2578592
  56.4302486  65.4230934  94.1396566  56.7104239  64.7554123  94.7656992
  57.2153093  65.6160029  93.6271230  54.2335954  84.5989928  85.7021592
  53.6609921  85.2180115  85.2492064  54.8068748  85.1489289  86.2361514
  60.3011344  73.8448568  97.8868141  61.2528767  73.9446665  97.9080365
  60.1314794  73.0526836  98.3966225  58.3225724  70.9304151  98.0727542
  57.7275656  71.2109164  97.3774031  58.0375420  71.4198052  98.8444283
  57.4533214  84.8827078  86.8330174  58.3863887  84.8172639  87.0363050
  57.3656427  85.7183345  86.3744707  60.0821231  84.1992948  83.7934122
  60.0034862  83.8652812  84.6869880  60.9030897  84.6914716  83.7925594
  62.7799422  77.0654687  97.0010441  62.7475742  76.1270688  97.1870124
  63.3900045  77.1438724  96.2676266  54.6182753  75.9350740  83.0437645
  55.5641857  75.8056948  83.1126063  54.2396998  75.1965402  83.5207073
  62.9293910  73.8565731  97.0468724  62.4132959  73.0724187  96.8598653
  63.8133859  73.5284447  97.2115243  60.5904637  67.6006746  93.0064536
  60.3929458  67.2921835  93.8907868  61.2004343  68.3268385  93.1362466
  68.5975972  78.1270694  96.1416477  69.3279360  77.8655982  96.7024181
  67.9882917  77.3899416  96.1818545  66.6791269  76.2678557  96.7390929
  65.9524432  76.1334522  96.1307420  66.2638556  76.5755385  97.5447647
  54.5021445  79.9868486 104.5038302  55.4224455  80.1647085 104.6978348
  54.4671028  79.0424532 104.3518001  52.8025670  73.8600717  82.9792530
  51.8957125  73.5633829  83.0555243  53.0801651  73.5630535  82.1126816
  43.7203610  75.1807080  93.4291576  43.4006395  74.3272388  93.1365950
  43.1737038  75.3955658  94.1849544  47.4983518  77.8969521  97.1461083
  47.7169528  78.8286629  97.1649117  47.9109292  77.5377496  97.9315887
  54.4187736  68.4037606  89.1336771  53.6088464  68.0584691  89.5092017
  55.1072152  68.0945150  89.7224383  56.3478284  67.4815653  90.7561068
  56.9009322  67.9011107  91.4151091  56.5848370  66.5551401  90.7984024
  52.3711383  73.4702727 106.5363832  52.2708110  74.4197084 106.4675923
  52.1532925  73.1420966 105.6639902  51.5724454  70.7187652  83.1204509
  52.4343618  71.0442550  83.3800326  51.7574799  69.9319148  82.6077575
  43.5891870  78.8009992  95.3984698  42.8955342  78.3863944  94.8854652
  44.3364861  78.8430528  94.8018117  59.7257091  69.5916178  90.2639732
  59.1455760  70.2500982  89.8817784  59.4593024  68.7693523  89.8527150
  58.1760657  68.9921236  92.4661052  58.6760436  69.1037771  91.6575371
  58.8196265  68.6882289  93.1061861  52.2342653  76.8999866 105.3528893
  51.7509735  77.7000226 105.5592782  52.3203592  76.9107811 104.3996337
  45.5028613  78.7328245  93.2750713  45.4799301  78.8315933  92.3232596
  45.8129249  79.5793396  93.5967879  48.1615991  80.7904400  97.3897327
  49.1159244  80.7588343  97.3227259  47.9628514  80.3295024  98.2047553
  48.7515373  79.3605516  99.9568125  49.5708262  79.8549595  99.9802962
  49.0252180  78.4437485  99.9285692  58.5081969  71.7516269  89.3196080
  57.6207824  72.0365919  89.1016275  58.9235958  71.5910032  88.4723357
  61.8596505  71.7762790  93.0350420  62.6356895  72.2659242  93.3075036
  61.1344639  72.2020844  93.4922289  64.2969064  72.4890409  94.0924360
  64.8913555  72.2486145  93.3817668  64.3695647  71.7697540  94.7197897
  46.5166219  86.3324020  94.4067525  46.3820687  85.5724421  93.8405523
  46.0998282  87.0564920  93.9396314  57.6525182  81.5160943  83.4144100
  58.3561033  81.7210946  84.0301756  56.9287831  82.0837705  83.6793184
  58.4822993  77.2670805  89.5346370  58.4258194  77.7239356  88.6954003
  59.0351335  76.5061489  89.3569213  62.2927799  73.0560537  90.3596490
  62.0364733  72.6557172  91.1904698  61.6680667  73.7704331  90.2346629
  66.6040136  75.7956610  92.8667781  66.0439694  75.8649799  93.6399343
  65.9983640  75.6197594  92.1467278  49.6735345  87.2293337  94.6185968
  49.5567729  88.1738769  94.5164658  48.8527792  86.9266899  95.0071767
  59.5611880  81.9543473  85.4642560  60.3957484  81.5224671  85.2820035
  59.3996223  81.7825486  86.3919455  59.2157772  78.4575586  86.8298900
  59.1606576  78.2919857  85.8887344  58.5903827  79.1651619  86.9861089
  44.0050287  73.6943650 100.6560322  44.6509151  73.1842604 101.1447547
  43.7967438  74.4312332 101.2303747  52.5253897  67.9583695  86.4084218
  52.5132567  68.9025535  86.5652489  53.4177319  67.7753840  86.1143679
  50.6989859  87.8821599  97.8341896  51.6017106  87.9145209  98.1508391
  50.4727229  86.9522050  97.8488232  52.4543461  86.6352585  94.4951975
  51.5039092  86.6354447  94.3816347  52.7575948  85.8885320  93.9788009
  56.3406017  64.5526472  90.6630155  55.5738413  63.9984958  90.8086837
  56.7516722  64.6248340  91.5244307  48.3447778  70.8411267 104.7535336
  49.2079240  70.4848072 104.9638661  47.7713189  70.5025162 105.4410740
  60.8572677  94.2776028  91.4856153  60.2937542  94.1865965  90.7172441
  60.7425072  93.4575933  91.9658645  66.4372236  97.9446996  86.7970618
  65.7860215  98.5301076  86.4104631  67.2316598  98.4753191  86.8565655
  60.3627863  95.0336133  87.1957752  61.1358739  94.4865120  87.0570628
  60.7153262  95.8980382  87.4072213  62.6994141  91.1928799  84.8276202
  62.9519661  90.6710321  84.0659665  61.7618700  91.0294945  84.9302886
  67.7437423  90.1964578  92.6350945  68.5300513  89.7784001  92.2841362
  68.0076128  91.1010670  92.8032594  67.9147501  95.6337428  87.3339602
  67.2793334  95.7072054  88.0460507  67.5844907  96.2231027  86.6558681
  62.4190429  93.0956905  87.0300577  62.3026687  92.4201809  87.6981661
  62.5292689  92.6089279  86.2132730  64.7621970  92.5567052  90.7347266
  64.3980177  92.0297673  91.4460188  65.6189086  92.1665521  90.5613752
  64.4027457  87.5856952  85.7308615  64.5701860  88.4537188  86.0979086
  64.2124626  87.7484234  84.8069904  60.6115272  92.4987728  93.4311149
  59.6865768  92.3663942  93.6388841  60.8599685  93.2781947  93.9281092
  64.3816678  90.0414610  86.7155281  64.2616303  90.4871660  87.5540762
  63.6869266  90.3899927  86.1568820  57.9724083  92.1421001  94.2654939
  58.1016464  92.3955480  95.1794350  57.2921534  92.7348709  93.9459594
  70.0801744  90.5136083  87.5435616  70.9919600  90.7463469  87.3683313
  69.5711391  91.0973127  86.9810694  67.4237719  86.6894119  95.7925476
  66.5622198  86.9875372  96.0842214  67.4500154  86.9064518  94.8606509
  64.2399288  95.2336309  92.1999282  64.7037634  95.5124012  91.4103905
  63.9756087  94.3319754  92.0172373  63.1768175  91.3559462  89.0088847
  63.8792218  91.8080505  89.4762774  62.8448803  90.7143280  89.6368740
  56.9193508  89.6143014  94.3105981  56.1292562  89.8700543  93.8346091
  57.4104756  90.4291352  94.4158021  58.8708254  89.9787594  91.2689457
  58.0739417  90.0906288  91.7872953  58.6433846  90.3174246  90.4030348
  55.2031211  89.8673505  96.7420972  55.4539250  90.7520515  97.0078548
  55.7390760  89.6878106  95.9696063  64.4161939  98.1700404  89.0850952
  64.2807614  99.0151940  89.5135800  64.9571752  98.3719682  88.3216886
  57.8691337  95.6875842  89.6578878  58.3815857  96.4819093  89.8084442
  58.5214049  94.9902133  89.5912479  59.6786221  98.8041599  91.7401631
  59.8552850  99.7259563  91.5522615  60.4743055  98.4900018  92.1696010
  67.7654403  81.6930966  97.6149846  67.4218672  82.5832608  97.5388956
  68.1333365  81.5032624  96.7519431  55.8340253  94.0164497  90.4338448
  56.6715475  94.4261505  90.2172156  56.0118521  93.0763939  90.4038642
  67.7304685  91.6839577  86.1222281  67.2151309  92.4544182  86.3610668
  67.4581994  91.0104713  86.7455342  65.3151796  86.5289278  91.1807519
  64.4593393  86.1396128  91.0013158  65.7278748  86.6081239  90.3207305
  66.8450943  84.0635621  95.5799079  66.3415739  84.0265756  94.7666884
  67.1381550  84.9728364  95.6395736  63.0893829  84.1474351  94.5865261
  63.9546826  83.9517160  94.2271150  63.1571338  83.9184703  95.5134618
  72.7038960  94.4371932  88.0575455  71.9268402  94.0983091  87.6130617
  73.3830441  94.4424555  87.3830420  67.5190989  89.5566669  87.9482062
  67.2141124  89.8712818  88.7992205  68.4721431  89.6348089  87.9909395
  65.9637420  95.7156893  89.5975016  65.4358782  94.9809652  89.2848254
  65.4624923  96.4931569  89.3514985  60.6956148  86.3776559  91.9581628
  61.2699900  86.1551740  91.2254821  61.2827130  86.4465253  92.7110229
  61.0225735  88.4081020  85.9777513  60.1863047  88.7455706  86.2986788
  60.8830505  88.2730000  85.0404650  62.9978816  83.2517808  90.6856697
  62.3443228  82.9366825  90.0613312  62.9559290  82.6293548  91.4116520
  64.1090021  93.5337103  82.6009989  63.2017082  93.3026356  82.8001138
  64.6061053  92.7374722  82.7883971  67.0158100 102.2434610  85.5206675
  66.3419798 102.5466307  86.1291633  67.4023921 103.0463690  85.1712132
  66.2316556  89.7399741  95.0104345  65.3139117  89.9614688  94.8526033
  66.6476700  89.8146052  94.1516052  67.0151604  91.1391157  90.1407025
  67.7623423  91.6512554  89.8314147  67.2843193  90.8175210  91.0011419
  65.2878254  93.6349698  87.1233979  64.3789473  93.3508731  87.2206449
  65.3173338  94.0548776  86.2637286  69.4630441  88.1748273  92.1225814
  68.7253198  87.6625660  92.4536057  69.7157215  87.7348655  91.3109091
  69.5642068  80.9524525  92.7167584  69.8700945  80.0921889  92.4293499
  70.2894673  81.5442145  92.5166577  55.8566424  91.3555212  91.1049182
  55.6590824  90.7624573  90.3800248  55.3013088  91.0507422  91.8225120
  63.8363148  91.2478318  93.2243775  63.8911758  90.2952155  93.1486251
  63.0254350  91.4037757  93.7085073  64.9854342  95.1758441  84.4622058
  64.5473772  94.4594300  84.0027695  65.7264783  95.4034556  83.9007149
  61.7755508  89.8655378  90.9834154  60.9623374  90.1649549  91.3899346
  62.2714502  89.4711067  91.7008636  61.2669583  87.4373734  96.5995388
  61.9068962  87.2962493  95.9018352  60.4347113  87.1508247  96.2233990
  62.0429887  96.7376164  92.7130381  62.8370485  96.2426484  92.5112956
  61.3321579  96.2094027  92.3498087  58.3512650  90.8819246  88.7890134
  57.4210238  90.8203701  89.0060096  58.4470122  90.3595199  87.9926775
  58.2698199  87.4074059  91.3768375  58.5305016  88.3219392  91.2677536
  59.0915372  86.9398501  91.5264988  69.1065569  94.0342823  84.0554115
  68.4894740  93.3089651  83.9587168  68.6382058  94.7952183  83.7121190
  60.8964115  88.2528247  83.1775420  60.0193582  88.1317048  82.8137666
  61.3721868  87.4614326  82.9254308  52.4166256  93.0405407  93.2716927
  53.1037295  92.7267137  92.6837942  52.2614384  93.9446772  92.9984178
  57.2200978  87.9295604  97.7001951  57.1359166  87.3221273  96.9652361
  56.3983684  88.4204622  97.7011447  67.3924692  86.4149167  93.0672146
  67.8893391  85.6619130  92.7473216  66.6211673  86.4513484  92.5015355
  68.4754472  95.1720854  90.6410569  67.5410751  95.2922317  90.4715273
  68.6531141  94.2693321  90.3770579  63.9759660  88.5566550  92.7943830
  63.6057448  88.0037591  93.4824736  64.4718753  87.9524684  92.2418830
  71.8627024  91.0138174  91.1760603  72.3287476  91.8466165  91.1020906
  72.3134524  90.5483155  91.8805862  69.9303255  97.3581995  88.1746755
  70.2063099  97.2438590  89.0840629  69.0607753  96.9599480  88.1358928
  69.8343686  83.3818761  95.2151505  68.9206766  83.6122988  95.3833711
  70.2636788  83.4657205  96.0665537  51.9934232  91.1206000  95.5434394
  52.0318331  90.5869591  96.3371512  51.4874524  90.5941206  94.9245371
  59.3724994  85.9670541  99.0396936  59.4366320  86.8285372  98.6274334
  59.3092114  85.3544543  98.3069295  55.6242809  89.8470103  88.6188325
  55.9196250  88.9380781  88.5655379  54.7230845  89.8257842  88.2969328
  59.1537056  87.9226099  94.6015874  58.4323642  88.5362067  94.4623347
  59.9430312  88.4583864  94.5232520  57.3530651  87.5284200  88.7427651
  57.0243357  86.6481579  88.5602756  57.7070022  87.4731869  89.6304040
  60.4672474  87.8157170  89.1103128  60.8068546  88.3443091  88.3881737
  60.9144594  88.1537576  89.8861695  63.8132387  83.2843533  97.0133519
  64.6358456  82.8104011  96.8912410  64.0570450  84.0634017  97.5132206
  62.4540621  86.3131792  87.3096421  63.1748984  86.6913044  86.8060138
  61.8305925  87.0320668  87.4131399  66.5971744  87.0176941  88.2454753
  66.8135358  87.9001579  87.9443581  66.1165811  86.6263154  87.5160395
  61.3370965  89.9762654  94.8225498  61.1915546  90.2902957  95.7149779
  60.8596169  90.5947554  94.2696397  63.1967348  86.9665202  94.8706387
  63.1828917  86.0706295  94.5338685  63.9139776  86.9735866  95.5044674
  62.6004244  85.8479582  90.1393958  62.7220155  84.9196228  90.3384845
  62.3106287  85.8618268  89.2272273  65.4695435  83.5334493  93.2760677
  65.4917131  83.5973826  92.3212657  65.8863494  82.6939001  93.4701184
  57.0439263  99.5303323  92.6853711  57.8697283  99.2307095  92.3052354
  56.6933315  98.7610946  93.1343499  55.2447868  97.4489650  93.6442644
  54.4079776  97.0211824  93.4626645  55.2171514  97.6422093  94.5813435
  61.5734303  97.4333715  88.2309845  61.7222424  98.1169179  87.5776517
  62.3800747  97.4138805  88.7459300  59.3286936  93.4598892  89.2370914
  59.0832978  92.5561222  89.4351124  59.4982851  93.4616043  88.2950392
  58.5982584  89.1927250  86.7357075  57.9051829  89.2671605  86.0797111
  58.3534336  88.4287594  87.2578592  67.2696240  80.7522851  94.1396566
  67.5497994  80.0846040  94.7656992  68.0546847  80.9451947  93.6271230
  65.0729709  99.9281845  85.7021592  64.5003676 100.5472032  85.2492064
  65.6462502 100.4781207  86.2361514  68.2926968 100.2118995  86.8330174
  69.2257642 100.1464557  87.0363050  68.2050181 101.0475262  86.3744707
  70.9214985  99.5284866  83.7934122  70.8428617  99.1944729  84.6869880
  71.7424652 100.0206634  83.7925594  65.4576507  91.2642658  83.0437645
  66.4035612  91.1348866  83.1126063  65.0790752  90.5257320  83.5207073
  71.4298392  82.9298664  93.0064536  71.2323213  82.6213752  93.8907868
  72.0398097  83.6560303  93.1362466  63.6419424  89.1892634  82.9792530
  62.7350880  88.8925747  83.0555243  63.9195405  88.8922452  82.1126816
  54.5597365  90.5098998  93.4291576  54.2400149  89.6564306  93.1365950
  54.0130793  90.7247576  94.1849544  65.2581490  83.7329524  89.1336771
  64.4482218  83.3876609  89.5092017  65.9465907  83.4237068  89.7224383
  67.1872038  82.8107571  90.7561068  67.7403077  83.2303024  91.4151091
  67.4242125  81.8843319  90.7984024  62.4118209  86.0479570  83.1204509
  63.2737373  86.3734468  83.3800326  62.5968553  85.2611066  82.6077575
  54.4285625  94.1301909  95.3984698  53.7349096  93.7155862  94.8854652
  55.1758616  94.1722446  94.8018117  70.5650845  84.9208096  90.2639732
  69.9849514  85.5792900  89.8817784  70.2986778  84.0985441  89.8527150
  69.0154412  84.3213154  92.4661052  69.5154190  84.4329688  91.6575371
  69.6590020  84.0174207  93.1061861  56.3422367  94.0620163  93.2750713
  56.3193055  94.1607850  92.3232596  56.6523004  94.9085314  93.5967879
  69.3475723  87.0808186  89.3196080  68.4601578  87.3657837  89.1016275
  69.7629713  86.9201950  88.4723357  72.6990260  87.1054707  93.0350420
  73.4750650  87.5951160  93.3075036  71.9738394  87.5312762  93.4922289
  68.4918937  96.8452861  83.4144100  69.1954787  97.0502864  84.0301756
  67.7681586  97.4129623  83.6793184  69.3216747  92.5962722  89.5346370
  69.2651949  93.0531274  88.6954003  69.8745090  91.8353407  89.3569213
  73.1321553  88.3852454  90.3596490  72.8758487  87.9849090  91.1904698
  72.5074421  89.0996248  90.2346629  70.4005634  97.2835390  85.4642560
  71.2351238  96.8516589  85.2820035  70.2389977  97.1117404  86.3919455
  70.0551527  93.7867504  86.8298900  70.0000330  93.6211775  85.8887344
  69.4297582  94.4943537  86.9861089  63.3647652  83.2875613  86.4084218
  63.3526322  84.2317453  86.5652489  64.2571074  83.1045758  86.1143679
  67.1799771  79.8818389  90.6630155  66.4132167  79.3276876  90.8086837
  67.5910476  79.9540258  91.5244307  71.7357870 103.5820165  83.1775420
  70.8587336 103.4608966  82.8137666  72.2115623 102.7906243  82.9254308
  74.4813179 104.5184552  82.9792530  73.5744634 104.2217665  83.0555243
  74.7589160 104.2214370  82.1126816  73.2511963 101.3771487  83.1204509
  74.1131127 101.7026386  83.3800326  73.4362308 100.5902983  82.6077575
  17.4997660   9.9670480  78.2101459  16.9362525   9.8760417  77.4417747
  17.3850055   9.1470385  78.6903952  23.0797219  13.6341448  73.5215924
  22.4285199  14.2195528  73.1349938  23.8741582  14.1647643  73.5810962
  17.0052846  10.7230585  73.9203059  17.7783722  10.1759572  73.7815934
  17.3578245  11.5874834  74.1317520  19.3419124   6.8823251  71.5521509
  19.5944645   6.3604772  70.7904972  18.4043683   6.7189397  71.6548192
  24.3862407   5.8859030  79.3596252  25.1725496   5.4678453  79.0086669
  24.6501111   6.7905122  79.5277900  24.5572484  11.3231880  74.0584909
  23.9218317  11.3966506  74.7705813  24.2269890  11.9125479  73.3803988
  29.7870834   5.8234263  80.2629230  30.5196006   5.2533480  80.4967060
  29.0310190   5.4355863  80.7035736  19.0615413   8.7851357  73.7545884
  18.9451671   8.1096260  74.4226968  19.1717673   8.2983731  72.9378037
  21.4046954   8.2461504  77.4592573  21.0405161   7.7192125  78.1705494
  22.2614069   7.8559973  77.2859058  21.0452441   3.2751404  72.4553921
  21.2126843   4.1431640  72.8224392  20.8549610   3.4378686  71.5315211
  21.0241661   5.7309061  73.4400588  20.9041287   6.1766112  74.2786068
  20.3294250   6.0794379  72.8814126  18.7848554  18.5012703  77.0890719
  18.7072583  19.4520528  77.1679200  18.1810197  18.1558576  77.7465646
  26.7226728   6.2030535  74.2680922  27.6344584   6.4357921  74.0928620
  26.2136375   6.7867579  73.7056001  25.3296310  11.1856353  81.6594504
  24.7005172  11.3502067  80.9570571  24.9421972  11.5997963  82.4305468
  29.2085542  12.1210791  79.0138867  28.5236580  12.5009692  78.4635901
  29.2929391  12.7306118  79.7470815  20.8824272  10.9230761  78.9244589
  21.3462617  11.2018464  78.1349211  20.6181070  10.0214206  78.7417679
  19.8193158   7.0453914  75.7334154  20.5217201   7.4974957  76.2008080
  19.4873786   6.4037732  76.3614047  27.5782301  12.6442705  83.7856568
  28.3999745  12.2422893  83.5039250  27.5744704  12.5410940  84.7372684
  35.6688294   8.9881454  80.1341540  34.9152003   8.4188852  79.9785544
  35.8035836   8.9544118  81.0812174  21.0586922  13.8594856  75.8096259
  20.9232597  14.7046392  76.2381107  21.5996735  14.0614134  75.0462193
  14.5116320  11.3770294  76.3824184  15.0240840  12.1713544  76.5329749
  15.1639033  10.6796585  76.3157786  16.3211205  14.4936050  78.4646937
  16.4977833  15.4154015  78.2767921  17.1168038  14.1794470  78.8941317
  24.3729669   7.3734029  72.8467588  23.8576292   8.1438634  73.0855975
  24.1006977   6.6999165  73.4700649  29.3463943  10.1266384  74.7820761
  28.5693386   9.7877543  74.3375923  30.0255424  10.1319007  74.1075726
  24.1615972   5.2461121  74.6727369  23.8566107   5.5607270  75.5237512
  25.1146414   5.3242541  74.7154702  22.6062404  11.4051345  76.3220323
  22.0783765  10.6704104  76.0093560  22.1049906  12.1826021  76.0760291
  27.5855250   9.6000365  81.4387369  26.9278924  10.2899626  81.5267498
  28.3895649   9.9896797  81.7821355  26.3960709   7.9544738  79.4891311
  26.9092590   8.5874730  79.9913021  27.0461932   7.3545933  79.1234671
  20.7515004   9.2231555  69.3255296  19.8442066   8.9920808  69.5246445
  21.2486036   8.4269174  69.5129277  23.6583083  17.9329062  72.2451982
  22.9844782  18.2360759  72.8536940  24.0448905  18.7358142  71.8957439
  23.6576587   6.8285609  76.8652332  24.4048406   7.3407006  76.5559454
  23.9268177   6.5069662  77.7256725  21.9303237   9.3244150  73.8479286
  21.0214457   9.0403182  73.9451756  21.9598321   9.7443228  72.9882593
  27.1622505  12.9350739  77.6170454  26.7084832  12.0941649  77.6735644
  26.5316471  13.5712138  77.9545234  26.1055424   3.8642725  78.8471121
  25.3678181   3.3520111  79.1781364  26.3582198   3.4243107  78.0354398
  25.6055444  14.7727236  78.5520272  25.8978418  15.3332293  77.8332637
  26.1154065  15.0655797  79.3073431  21.6279325  10.8652893  71.1867365
  21.1898755  10.1488752  70.7273002  22.3689766  11.0929008  70.6252456
  20.5689069  15.5507587  79.6413725  20.5265248  15.7768433  78.7122257
  21.4851768  15.3170962  79.7899526  29.7452440   9.1410090  77.2443683
  29.6070339   9.3311686  76.3164872  29.3888659   9.9029473  77.7011734
  29.7721820  11.2086617  82.2554955  30.2058326  11.1161906  83.1038009
  30.4853400  11.1844118  81.6174971  18.6854870  12.4270616  79.4375688
  19.4795468  11.9320936  79.2358263  17.9746562  11.8988479  79.0743393
  23.5049714  14.8088711  83.7888055  23.5586737  15.3779648  84.5565771
  22.6364496  14.9790597  83.4242092  21.8574298  18.1008734  74.4599061
  22.0326054  17.6296778  75.2744684  21.1707086  18.7274501  74.6880322
  22.8131361  12.3781241  80.5062362  22.4781194  12.3382011  81.4020012
  22.3135307  11.7125957  80.0332773  25.7490553   9.7237275  70.7799422
  25.1319723   8.9984103  70.6832475  25.2807041  10.4846635  70.4366496
  16.4235383  21.2498097  81.2338921  16.6631981  21.8816621  81.9117940
  15.5804580  20.8986137  81.5204281  20.9363245  17.0577220  83.6380425
  20.8633417  17.8632191  84.1499730  20.4940638  17.2569185  82.8128447
  20.7253025  16.2948990  77.1483247  19.9420547  16.8370670  77.2421471
  21.4245770  16.8122969  77.5477488  31.8879432   7.8083985  81.4335744
  31.8769308   8.6908700  81.0629677  31.0196812   7.4555535  81.2390281
  23.3961929  16.9564054  85.7938584  24.1089901  17.5911518  85.7214485
  22.9051957  17.0527920  84.9778586  25.1179456  10.8615306  77.3655876
  24.1835734  10.9816769  77.1960580  25.2956124   9.9587773  77.1015886
  28.5052007   6.7032626  77.9005910  28.9712459   7.5360617  77.8266212
  28.9559507   6.2377607  78.6051168  26.5728238  13.0476447  74.8992062
  26.8488082  12.9333041  75.8085936  25.7032737  12.6493932  74.8604235
  23.2082302  17.2962798  78.5424875  23.3904697  16.4784454  79.0052628
  24.0315288  17.5130490  78.1049765  23.5424467  16.2230983  75.8039924
  24.0712234  15.7123437  75.1910086  23.8052687  15.9073513  76.6685457
  16.8980215  17.2746100  78.5637700  16.2290591  17.7592227  78.0801740
  16.7593085  17.5215320  79.4781078  21.0385484  19.3089843  85.1620358
  21.5903792  19.4721465  85.9269443  21.3791677  19.8994281  84.4900383
  24.1753871  17.2571819  82.1484040  24.0505011  16.4561558  81.6394986
  24.8332962  17.7518012  81.6598010  26.2388780  15.0580839  83.7763591
  25.2919115  14.9386190  83.7041917  26.5871553  14.1703337  83.8589852
  23.2435213  14.8533555  79.9767943  23.0960175  13.9250262  80.1575513
  24.0688706  14.8753646  79.4925018  26.8469335  15.6762114  81.0632815
  27.7715882  15.4704975  80.9257267  26.6784638  15.4278515  81.9722157
  23.2396727   2.7071393  74.9700060  23.4560342   3.5896030  74.6688888
  22.7590794   2.3157606  74.2405702  26.6364651  16.1947781  76.4194907
  26.8101529  15.6294204  75.6668759  27.1293542  16.9948676  76.2374397
  32.4904042   8.9584204  78.0385207  32.9335188   8.2091529  77.6404330
  31.6130552   8.9494340  77.6558939  27.6239824  15.5114545  73.5191805
  28.3190728  16.1321238  73.7379120  27.9662974  14.6609897  73.7944183
  29.5231247  12.9614251  75.0479136  30.0482571  13.3001524  74.3228456
  29.4353599  12.0261266  74.8642271  21.2071907  19.0286234  79.4074389
  20.7676898  18.5362613  80.1007246  21.9580024  18.4859202  79.1666464
  13.6864246  15.2197775  79.4099017  14.5122266  14.9201547  79.0297661
  13.3358298  14.4505398  79.8588806  18.6545780  14.5724243  81.4796691
  18.0325789  13.9094948  81.1798919  19.3250646  14.5985375  80.7970339
  18.2159286  13.1228167  74.9555151  18.3647407  13.8063631  74.3021824
  19.0225730  13.1033257  75.4704607  32.0336907  10.4289442  80.4307654
  32.8683798  10.8679246  80.5945215  32.1696036   9.9528096  79.6115900
  15.9711919   9.1493344  75.9616220  15.7257961   8.2455674  76.1596430
  16.1407834   9.1510495  75.0195698  21.7154692  15.6176297  72.4266899
  21.1428659  16.2366484  71.9737371  22.2887486  16.1675659  72.9606821
  24.9351952  15.9013447  73.5575481  25.8682625  15.8359009  73.7608357
  24.8475165  16.7369714  73.0990014  27.5639968  15.2179318  70.5179429
  27.4853600  14.8839181  71.4115187  28.3849635  15.7101086  70.5170901
  22.1001490   6.9537110  69.7682951  23.0460595   6.8243318  69.8371369
  21.7215735   6.2151772  70.2452379  36.0794709   9.1457064  82.8661784
  36.8098098   8.8842352  83.4269487  35.4701655   8.4085786  82.9063852
  34.1610007   7.2864926  83.4636235  33.4343170   7.1520891  82.8552727
  33.7457293   7.5941755  84.2692953  20.2844408   4.8787086  69.7037837
  19.3775863   4.5820199  69.7800550  20.5620389   4.5816904  68.8372123
  27.2075829   0.6102548  76.9885039  26.6274498   1.2687352  76.6063091
  26.9411761  -0.2120107  76.5772456  25.9900707   2.7702638  76.0441387
  25.1026562   3.0552289  75.8261582  26.4054696   2.6096402  75.1968664
  29.3415243   2.7949159  79.7595726  30.1175633   3.2845612  80.0320343
  28.6163377   3.2207214  80.2167596  31.7787801   3.5076779  80.8169667
  32.3732292   3.2672515  80.1062975  31.8514385   2.7883909  81.4443203
  13.9984957  17.3510390  81.1312832  13.8639425  16.5910790  80.5650830
  13.5817019  18.0751289  80.6641621  25.1343920  12.5347313  70.1389407
  25.8379770  12.7397316  70.7547063  24.4106569  13.1024075  70.4038490
  25.9641730   8.2857174  76.2591677  25.9076932   8.7425726  75.4199310
  26.5170073   7.5247859  76.0814520  29.7746536   4.0746906  77.0841797
  29.5183471   3.6743542  77.9150004  29.1499404   4.7890700  76.9591936
  34.0858874   6.8142979  79.5913088  33.5258432   6.8836169  80.3644650
  33.4802378   6.6383964  78.8712584  17.1554083  18.2479707  81.3431274
  17.0386467  19.1925139  81.2409965  16.3346529  17.9453268  81.7317074
  27.0430618  12.9729842  72.1887867  27.8776222  12.5411041  72.0065342
  26.8814961  12.8011856  73.1164762  26.6976510   9.4761956  73.5544206
  26.6425314   9.3106227  72.6132650  26.0722565  10.1837988  73.7106396
  18.1808597  18.9007968  84.5587203  19.0835844  18.9331579  84.8753698
  17.9545967  17.9708419  84.5733539  19.9362199  17.6538955  81.2197281
  18.9857830  17.6540817  81.1061654  20.2394685  16.9071690  80.7033316
  35.6714893  23.4899493  82.2843044  36.3093303  23.3706241  81.5806384
  35.5535736  24.4380337  82.3430996  32.4804599  23.4426921  82.2204568
  32.1423111  23.3267986  81.3325103  33.3494367  23.0418087  82.2005575
  28.3391415  25.2962398  78.2101459  27.7756280  25.2052335  77.4417747
  28.2243810  24.4762302  78.6903952  32.9624382  24.5961773  88.1790774
  32.9513023  24.2014571  87.3071278  33.1245021  23.8627846  88.7724545
  25.8855847  26.7913589  81.0485680  26.6777139  26.4504414  80.6331979
  26.1252497  26.9008565  81.9687833  33.9190973  28.9633366  73.5215924
  33.2678953  29.5487446  73.1349938  34.7135336  29.4939560  73.5810962
  27.8446601  26.0522503  73.9203059  28.6177477  25.5051490  73.7815934
  28.1971999  26.9166752  74.1317520  29.6831643  27.3798885  87.1269958
  29.3921509  28.2844516  87.0116624  30.3188627  27.4215413  87.8414028
  30.6087850  24.7575734  83.7171318  31.2051422  24.5331756  83.0028281
  30.6662822  24.0160479  84.3196765  30.1812878  22.2115169  71.5521509
  30.4338399  21.6896690  70.7904972  29.2437437  22.0481314  71.6548192
  35.2256161  21.2150947  79.3596252  36.0119250  20.7970370  79.0086669
  35.4894866  22.1197039  79.5277900  35.3966239  26.6523798  74.0584909
  34.7612072  26.7258424  74.7705813  35.0663645  27.2417396  73.3803988
  40.6264588  21.1526180  80.2629230  41.3589760  20.5825397  80.4967060
  39.8703944  20.7647781  80.7035736  29.9009167  24.1143275  73.7545884
  29.7845425  23.4388178  74.4226968  30.0111427  23.6275649  72.9378037
  32.2440708  23.5753422  77.4592573  31.8798915  23.0484043  78.1705494
  33.1007824  23.1851891  77.2859058  38.1490009  14.8647755  84.7223839
  37.8173333  15.7343165  84.4985054  37.5535622  14.5484039  85.4017869
  31.8846195  18.6043322  72.4553921  32.0520597  19.4723558  72.8224392
  31.6943364  18.7670603  71.5315211  34.6421528  27.0660301  84.1219752
  34.3422251  27.9685339  84.0135559  34.2972588  26.7992484  84.9740905
  28.0934010  23.5174097  80.1556456  27.1684506  23.3850311  80.3634148
  28.3418423  24.2968317  80.6526398  38.0418672  19.5842841  81.8017189
  37.1335549  19.5158249  81.5075950  37.9906268  20.0614786  82.6299014
  31.8635416  21.0600979  73.4400588  31.7435041  21.5058030  74.2786068
  31.1688004  21.4086297  72.8814126  25.4542821  23.1607371  80.9900245
  25.5835202  23.4141850  81.9039657  24.7740272  23.7535079  80.6704900
  29.6242308  33.8304621  77.0890719  29.5466338  34.7812446  77.1679200
  29.0203952  33.4850493  77.7465646  32.1159538  21.0032486  89.7452086
  31.3392872  21.5626406  89.7354951  32.7550101  21.4889269  90.2666956
  39.9080318  17.7859279  83.5795063  39.2654699  18.0791812  82.9334857
  39.4035247  17.6712199  84.3848260  37.5620482  21.5322452  74.2680922
  38.4738338  21.7649839  74.0928620  37.0530129  22.1159496  73.7056001
  30.3705910  23.8117940  89.3070053  31.1120594  24.3502984  89.0304877
  29.6642896  24.4384228  89.4641605  35.8461250  25.9547080  87.9042215
  36.2544606  25.5129491  87.1596847  35.1238511  25.3799708  88.1576408
  32.1992320  20.8919687  85.2775772  33.0453515  21.3159100  85.4210421
  32.1390957  20.2353311  85.9714335  36.1690064  26.5148271  81.6594504
  35.5398927  26.6793985  80.9570571  35.7815726  26.9289880  82.4305468
  40.0479296  27.4502709  79.0138867  39.3630334  27.8301610  78.4635901
  40.1323146  28.0598035  79.7470815  35.3491765  18.5524055  86.9356945
  35.1052697  19.3066116  86.3991221  35.6251696  18.9309403  87.7704192
  37.3030228  25.0962668  85.6134211  37.5147123  25.7394427  84.9368592
  37.2559976  24.2624984  85.1456141  34.9056457  17.7080488  82.5170783
  34.0440936  18.0061742  82.8087521  34.9318891  17.9250887  81.5851816
  31.7218026  26.2522679  78.9244589  32.1856372  26.5310382  78.1349211
  31.4574824  25.3506123  78.7417679  28.6142107  25.7994160  81.8624352
  29.1843464  26.2281429  81.2241836  29.2050219  25.5176745  82.5608538
  30.6586912  22.3745831  75.7334154  31.3610956  22.8266875  76.2008080
  30.3267541  21.7329650  76.3614047  29.1067274  20.9657588  90.1085363
  28.4765934  21.6473869  90.3420760  29.0003362  20.8540669  89.1638502
  24.4012246  20.6329384  81.0351287  23.6111300  20.8886912  80.5591398
  24.8923494  21.4477722  81.1403328  38.4176056  27.9734623  83.7856568
  39.2393500  27.5714810  83.5039250  38.4138459  27.8702857  84.7372684
  26.3526992  20.9973963  77.9934764  25.5558155  21.1092657  78.5118260
  26.1252584  21.3360615  77.1275655  32.1832659  27.5218666  85.9417279
  32.2477092  27.9839074  86.7775451  31.4743583  26.8916031  86.0699589
  22.6849949  20.8859874  83.4666278  22.9357988  21.7706884  83.7323854
  23.2209498  20.7064476  82.6941370  46.5082049  24.3173371  80.1341540
  45.7545757  23.7480770  79.9785544  46.6429590  24.2836036  81.0812174
  31.8980677  29.1886774  75.8096259  31.7626352  30.0338310  76.2381107
  32.4390489  29.3906051  75.0462193  25.3510074  26.7062212  76.3824184
  25.8634595  27.5005462  76.5329749  26.0032787  26.0088502  76.3157786
  27.1604959  29.8227968  78.4646937  27.3371587  30.7445933  78.2767921
  27.9561793  29.5086387  78.8941317  26.4457316  21.8692600  88.3409101
  26.3310831  20.9677857  88.6416199  25.5901833  22.1156297  87.9893917
  33.5249153  29.8110340  89.9396601  33.0813007  29.0246719  89.6217506
  34.1866367  29.9989491  89.2740492  28.2836274  31.3406142  84.4657280
  28.8343700  31.2123205  83.6934274  27.4447750  31.6401031  84.1152172
  35.6230391  30.0913140  87.9678002  35.6048867  30.9122021  87.4758272
  36.5450311  29.9667215  88.1928144  32.0803446  27.6057270  88.8101511
  32.6131782  26.8445558  88.5800819  31.5517527  27.3130922  89.5525665
  35.2473140  12.7117336  84.3395153  34.9037410  13.6018977  84.2634263
  35.6152103  12.5218993  83.4764738  23.3158991  25.0350866  77.1583755
  24.1534213  25.4447875  76.9417462  23.4937259  24.0950308  77.1283949
  35.2123423  22.7025947  72.8467588  34.6970047  23.4730551  73.0855975
  34.9400732  22.0291083  73.4700649  32.7970534  17.5475648  77.9052826
  31.9412131  17.1582498  77.7258465  33.2097486  17.6267608  77.0452612
  34.3269681  15.0821991  82.3044386  33.8234476  15.0452126  81.4912191
  34.6200288  15.9914734  82.3641042  30.5712567  15.1660721  81.3110568
  31.4365564  14.9703529  80.9516457  30.6390076  14.9371072  82.2379924
  40.1857697  25.4558301  74.7820761  39.4087140  25.1169461  74.3375923
  40.8649178  25.4610925  74.1075726  35.0009726  20.5753039  74.6727369
  34.6959862  20.8899188  75.5237512  35.9540169  20.6534459  74.7154702
  33.4456158  26.7343262  76.3220323  32.9177520  25.9996022  76.0093560
  32.9443661  27.5117939  76.0760291  38.4249004  24.9292283  81.4387369
  37.7672679  25.6191544  81.5267498  39.2289403  25.3188715  81.7821355
  28.1774886  17.3962928  78.6826934  28.7518638  17.1738110  77.9500127
  28.7645868  17.4651623  79.4355536  37.2354463  23.2836655  79.4891311
  37.7486345  23.9166647  79.9913021  37.8855687  22.6837851  79.1234671
  28.5044473  19.4267390  72.7022820  27.6681785  19.7642076  73.0232094
  28.3649243  19.2916369  71.7649957  30.4797554  14.2704177  77.4102004
  29.8261966  13.9553195  76.7858619  30.4378028  13.6479918  78.1361827
  31.5908758  24.5523472  69.3255296  30.6835820  24.3212726  69.5246445
  32.0879790  23.7561092  69.5129277  34.4976837  33.2620980  72.2451982
  33.8238536  33.5652676  72.8536940  34.8842659  34.0650060  71.8957439
  33.7135294  20.7586111  81.7349651  32.7957855  20.9801058  81.5771339
  34.1295438  20.8332421  80.8761359  34.4970342  22.1577527  76.8652332
  35.2442161  22.6698924  76.5559454  34.7661931  21.8361579  77.7256725
  32.7696992  24.6536067  73.8479286  31.8608211  24.3695100  73.9451756
  32.7992076  25.0735146  72.9882593  38.0016259  28.2642657  77.6170454
  37.5478586  27.4233567  77.6735644  37.3710226  28.9004055  77.9545234
  36.9449179  19.1934643  78.8471121  36.2071936  18.6812029  79.1781364
  37.1975952  18.7535024  78.0354398  36.4449199  30.1019154  78.5520272
  36.7372173  30.6624211  77.8332637  36.9547819  30.3947715  79.3073431
  37.0460806  11.9710895  79.4412890  37.3519683  11.1108258  79.1538805
  37.7713411  12.5628515  79.2411884  23.3385162  22.3741581  77.8294488
  23.1409562  21.7810942  77.1045555  22.7831826  22.0693792  78.5470427
  31.3181886  22.2664688  79.9489081  31.3730496  21.3138524  79.8731558
  30.5073088  22.4224127  80.4330380  32.4673080  26.1944811  71.1867365
  32.0292510  25.4780670  70.7273002  33.2083521  26.4220926  70.6252456
  29.2574246  20.8841748  77.7079460  28.4442111  21.1835918  78.1144652
  29.7533240  20.4897436  78.4253942  31.4082824  30.8799505  79.6413725
  31.3659002  31.1060351  78.7122257  32.3245523  30.6462879  79.7899526
  34.8548457  21.3483572  86.5394354  35.2097845  21.5755045  87.3988820
  35.5020589  21.6801949  85.9171609  40.5846194  24.4702008  77.2443683
  40.4464093  24.6603604  76.3164872  40.2282413  25.2321391  77.7011734
  28.7488321  18.4560103  83.3240695  29.3887700  18.3148862  82.6263658
  27.9165851  18.1694617  82.9479297  40.6115574  26.5378535  82.2554955
  41.0452081  26.4453824  83.1038009  41.3247155  26.5136036  81.6174971
  29.5248624  27.7562534  79.4375688  30.3189223  27.2612854  79.2358263
  28.8140317  27.2280397  79.0743393  34.3443469  30.1380629  83.7888055
  34.3980491  30.7071565  84.5565771  33.4758250  30.3082514  83.4242092
  25.8331388  21.9005615  75.5135440  24.9028976  21.8390071  75.7305402
  25.9288860  21.3781568  74.7172082  25.7516937  18.4260428  78.1013682
  26.0123754  19.3405761  77.9922842  26.5734109  17.9584871  78.2510295
  27.2241862  19.8398185  85.2712506  27.8964916  19.6315547  84.6225155
  26.3971649  19.6420271  84.8317739  41.4731124  26.5802236  84.7887840
  41.6667014  27.4848046  85.0347115  41.3731742  26.1209655  85.6226425
  33.1267434  16.4660126  87.2878167  32.4795349  17.1650076  87.1942644
  33.8968450  16.8996270  87.6554416  36.5346232  26.7308978  90.3628721
  36.3831739  26.5019530  89.4458804  36.5250912  27.6879580  90.3760066
  33.3031569  24.3040891  85.3474987  34.2323629  24.4552051  85.1743954
  32.8822599  24.3924912  84.4923634  32.1019900  28.3291556  83.1173525
  31.9630986  27.9610340  83.9899463  31.3134497  28.8439195  82.9457482
  32.6968052  33.4300652  74.4599061  32.8719808  32.9588695  75.2744684
  32.0100840  34.0566418  74.6880322  33.6525116  27.7073158  80.5062362
  33.3174948  27.6673928  81.4020012  33.1529061  27.0417874  80.0332773
  27.6269360  23.1140788  86.0314944  27.4889158  22.3821027  86.6326483
  28.5374283  23.0249688  85.7499131  36.5884307  25.0529193  70.7799422
  35.9713478  24.3276021  70.6832475  36.1200796  25.8138553  70.4366496
  30.2551660  22.8260748  85.5198623  30.9651279  22.1853940  85.4785242
  30.2120968  23.0773643  86.4424804  38.2438439  29.7628101  88.4405202
  38.1850985  29.0787321  87.7735785  38.6457957  30.5047091  87.9885828
  28.9680594  19.8125966  87.3394263  28.4317951  19.3616704  87.9915859
  28.3797303  19.9471874  86.5964727  27.2629138  36.5790015  81.2338921
  27.5025736  37.2108539  81.9117940  26.4198334  36.2278055  81.5204281
  28.3782853  19.2714617  69.9020726  27.5012319  19.1503418  69.5382973
  28.8540606  18.4800695  69.6499615  38.2455846  27.7267685  86.6719182
  37.3582625  27.3893607  86.7945581  38.8154397  26.9950716  86.9087948
  19.8984993  24.0591777  79.9962234  20.5856033  23.7453507  79.4083249
  19.7433122  24.9633141  79.7229485  24.7019715  18.9481973  84.4247257
  24.6177904  18.3407643  83.6897667  23.8802422  19.4390992  84.4256754
  31.7757000  32.3869137  83.6380425  31.7027171  33.1924109  84.1499730
  31.3334393  32.5861103  82.8128447  31.5646779  31.6240907  77.1483247
  30.7814301  32.1662588  77.2421471  32.2639524  32.1414887  77.5477488
  34.8743429  17.4335537  79.7917452  35.3712129  16.6805499  79.4718523
  34.1030411  17.4699853  79.2260662  42.7273187  23.1375902  81.4335744
  42.7163063  24.0200618  81.0629677  41.8590566  22.7847453  81.2390281
  34.2355683  32.2855971  85.7938584  34.9483655  32.9203436  85.7214485
  33.7445712  32.3819837  84.9778586  35.9573210  26.1907224  77.3655876
  35.0229489  26.3108686  77.1960580  36.1349878  25.2879691  77.1015886
  31.4578398  19.5752920  79.5189137  31.0876186  19.0223960  80.2070042
  31.9537491  18.9711053  78.9664137  39.3445761  22.0324543  77.9005910
  39.8106214  22.8652535  77.8266212  39.7953262  21.5669525  78.6051168
  29.2867597  30.0350415  86.6144155  29.9877056  30.6686898  86.7673549
  28.8162712  30.3765146  85.8539794  37.4121992  28.3768365  74.8992062
  37.6881836  28.2624959  75.8085936  36.5426491  27.9785849  74.8604235
  37.3162424  14.4005130  81.9396811  36.4025504  14.6309357  82.1079018
  37.7455526  14.4843574  82.7910844  37.0868883  22.5895022  84.4396705
  36.4340333  22.8370930  83.7849158  37.4649263  21.7759160  84.1059182
  34.0476056  32.6254715  78.5424875  34.2298451  31.8076371  79.0052628
  34.8709042  32.8422408  78.1049765  34.3818222  31.5522901  75.8039924
  34.9105988  31.0415355  75.1910086  34.6446442  31.2365431  76.6685457
  33.1356456  23.3314833  90.9262742  32.4597093  23.2308963  91.5965117
  33.9584090  23.1754047  91.3898739  24.8835315  29.5686770  83.5475258
  25.4688752  28.8230458  83.6803162  24.6860153  29.8790727  84.4311921
  27.7373970  32.6038017  78.5637700  27.0684345  33.0884145  78.0801740
  27.5986840  32.8507238  79.4781078  19.4752969  22.1392370  82.2679701
  19.5137069  21.6055961  83.0616819  18.9693262  21.6127576  81.6490678
  31.8779239  34.6381761  85.1620358  32.4297547  34.8013382  85.9269443
  32.2185432  35.2286199  84.4900383  26.8543732  16.9856911  85.7642243
  26.9185058  17.8471741  85.3519641  26.7910852  16.3730912  85.0314601
  36.7290113  29.4643018  91.0169013  37.2730017  30.0772977  90.5223967
  36.1476958  30.0222597  91.5336026  23.1061547  20.8656472  75.3433632
  23.4014988  19.9567151  75.2900686  22.2049583  20.8444212  75.0214634
  35.0147626  32.5863736  82.1484040  34.8898765  31.7853476  81.6394986
  35.6726717  33.0809930  81.6598010  26.6355794  18.9412469  81.3261181
  25.9142380  19.5548436  81.1868654  27.4249050  19.4770234  81.2477827
  37.0782534  30.3872756  83.7763591  36.1312870  30.2678108  83.7041917
  37.4265307  29.4995254  83.8589852  29.4382108  16.2766895  87.6001832
  29.9616509  16.5229192  88.3628142  29.2194441  17.1086930  87.1804970
  24.8349389  18.5470570  75.4672957  24.5062095  17.6667949  75.2848063
  25.1888759  18.4918239  76.3549346  34.0828967  30.1825473  79.9767943
  33.9353930  29.2542180  80.1575513  34.9082461  30.2045563  79.4925018
  27.9491212  18.8343540  75.8348435  28.2887284  19.3629461  75.1127043
  28.3963332  19.1723946  76.6107001  37.6863089  31.0054031  81.0632815
  38.6109637  30.7996893  80.9257267  37.5178393  30.7570432  81.9722157
  30.6434653  17.2180590  85.2851503  30.3031473  16.4188403  85.6872183
  29.9373659  17.5182301  84.7128336  31.2951124  14.3029903  83.7378826
  32.1177194  13.8290381  83.6157716  31.5389188  15.0820387  84.2377512
  29.9359359  17.3318161  74.0341728  30.6567721  17.7099414  73.5305444
  29.3124663  18.0507038  74.1376706  34.0790482  18.0363310  74.9700060
  34.2954096  18.9187948  74.6688888  33.5984549  17.6449524  74.2405702
  28.8189703  20.9949023  81.5470805  28.6734284  21.3089327  82.4395086
  28.3414907  21.6133924  80.9941703  30.6786086  17.9851571  81.5951694
  30.6647655  17.0892665  81.2583992  31.3958514  17.9922235  82.2289980
  32.5312217  18.4188912  83.6404822  32.2729995  19.3405982  83.6389152
  31.9997257  18.0219346  84.3305286  37.4758406  31.5239699  76.4194907
  37.6495283  30.9586121  75.6668759  37.9687297  32.3240594  76.2374397
  23.2935365  23.5354368  84.4858466  22.7488833  24.3114176  84.6178740
  24.1714715  23.8825172  84.3277587  30.0822982  16.8665952  76.8639264
  30.2038893  15.9382598  77.0630152  29.7925024  16.8804638  75.9517580
  32.9514172  14.5520862  80.0005984  32.9735869  14.6160195  79.0457964
  33.3682231  13.7125371  80.1946490  43.3297797  24.2876122  78.0385207
  43.7728943  23.5383447  77.6404330  42.4524307  24.2786258  77.6558939
  38.4633578  30.8406463  73.5191805  39.1584483  31.4613156  73.7379120
  38.8056728  29.9901814  73.7944183  24.0801387  22.6624264  87.3788623
  23.3383123  22.8106899  87.9653253  23.7594131  22.9232530  86.5155372
  40.3625001  28.2906169  75.0479136  40.8876325  28.6293441  74.3228456
  40.2747354  27.3553184  74.8642271  32.0245050  32.2040242  87.1769013
  32.3332176  31.9589389  88.0491712  32.8220532  32.4086881  86.6887883
  32.0465662  34.3578152  79.4074389  31.6070652  33.8654531  80.1007246
  32.7973779  33.8151120  79.1666464  24.5258001  30.5489693  79.4099017
  25.3516021  30.2493465  79.0297661  24.1752053  29.7797315  79.8588806
  29.4939534  29.9016161  81.4796691  28.8719543  29.2386866  81.1798919
  30.1644401  29.9277293  80.7970339  22.7266606  28.4676019  80.3687951
  21.8898514  28.0398194  80.1871952  22.6990251  28.6608463  81.3058742
  40.0518907  28.9239072  90.3530334  39.2614451  28.9063211  89.8134833
  39.8152262  29.4627366  91.1079371  40.1716782  25.7731539  87.6663062
  40.2214787  25.6081546  88.6078585  40.0630706  24.9058798  87.2760943
  29.0553041  28.4520084  74.9555151  29.2041161  29.1355549  74.3021824
  29.8619484  28.4325174  75.4704607  37.4620545  21.7562467  88.9822369
  38.3630407  21.6168932  88.6906367  37.5368519  21.9216922  89.9220547
  31.7963350  19.1329321  87.8275556  30.9266659  19.4262888  87.5558144
  32.0322830  19.7169766  88.5482819  41.6734979  28.1928480  87.9105084
  41.3819787  28.5558461  88.7468545  41.0607110  27.4795489  87.7318416
  42.8730661  25.7581360  80.4307654  43.7077553  26.1971164  80.5945215
  43.0089790  25.2820013  79.6115900  39.9222167  23.3161095  86.3785142
  40.3976289  23.5088741  85.5703993  38.9987733  23.3720281  86.1328526
  26.8105674  24.4785262  75.9616220  26.5651716  23.5747592  76.1596430
  26.9801588  24.4802412  75.0195698  34.5002384  15.3508938  85.3440976
  35.0184328  16.0869965  85.0187464  34.1457517  15.6572932  86.1787735
  26.0801321  20.2113620  73.4602382  25.3870566  20.2857975  72.8042418
  25.8353073  19.4473963  73.9823899  34.7514978  11.7709221  80.8641873
  35.0316732  11.1032410  81.4902299  35.5365585  11.9638317  80.3516536
  32.5548446  30.9468215  72.4266899  31.9822414  31.5658402  71.9737371
  33.1281240  31.4967577  72.9606821  38.6223836  20.1926855  84.6113448
  39.5741259  20.2924953  84.6325672  38.4527287  19.4005123  85.1211532
  36.6438216  17.2782438  84.7972849  36.0488148  17.5587451  84.1019337
  36.3587912  17.7676339  85.5689590  35.7745706  31.2305365  73.5575481
  36.7076379  31.1650927  73.7608357  35.6868919  32.0661632  73.0990014
  38.4033723  30.5471235  70.5179429  38.3247354  30.2131099  71.4115187
  39.2243390  31.0393003  70.5170901  41.1011914  23.4132975  83.7255747
  41.0688234  22.4748975  83.9115431  41.7112538  23.4917011  82.9921572
  32.9395245  22.2829028  69.7682951  33.8854350  22.1535236  69.8371369
  32.5609490  21.5443689  70.2452379  41.2506403  20.2044018  83.7714030
  40.7345451  19.4202475  83.5843959  42.1346351  19.8762735  83.9360550
  38.9117130  13.9485034  79.7309843  38.7141951  13.6400122  80.6153175
  39.5216835  14.6746673  79.8607773  46.9188464  24.4748981  82.8661784
  47.6491852  24.2134270  83.4269487  46.3095409  23.7377703  82.9063852
  45.0003761  22.6156844  83.4636235  44.2736925  22.4812809  82.8552727
  44.5851048  22.9233673  84.2692953  32.8233937  26.3346774  91.2283608
  33.7436947  26.5125373  91.4223655  32.7883521  25.3902819  91.0763308
  31.1238162  20.2079004  69.7037837  30.2169618  19.9112117  69.7800550
  31.4014143  19.9108822  68.8372123  22.0416102  21.5285367  80.1536883
  21.7218887  20.6750676  79.8611257  21.4949531  21.7433946  80.9094850
  25.8196010  24.2447808  83.8706389  26.0382020  25.1764916  83.8894423
  26.2321784  23.8855783  84.6561193  32.7400228  14.7515894  75.8582078
  31.9300956  14.4062979  76.2337324  33.4284645  14.4423437  76.4469689
  34.6690776  13.8293941  77.4806374  35.2221815  14.2489394  78.1396398
  34.9060862  12.9029689  77.5229330  29.8936947  17.0665939  69.8449816
  30.7556111  17.3920838  70.1045633  30.0787291  16.2797435  69.3322882
  21.9104362  25.1488279  82.1230005  21.2167834  24.7342232  81.6099959
  22.6577353  25.1908815  81.5263423  38.0469583  15.9394466  76.9885039
  37.4668252  16.5979270  76.6063091  37.7805516  15.1171810  76.5772456
  36.4973150  15.3399523  79.1906359  36.9972928  15.4516058  78.3820678
  37.1408758  15.0360576  79.8307167  30.5555145  23.2478153  92.0774200
  30.0722227  24.0478513  92.2838089  30.6416084  23.2586098  91.1241644
  23.8241105  25.0806533  79.9996019  23.8011793  25.1794220  79.0477902
  24.1341742  25.9271683  80.3213186  26.4828483  27.1382688  84.1142634
  27.4371736  27.1066630  84.0472565  26.2841006  26.6773311  84.9292860
  27.0727865  25.7083804  86.6813431  27.8920754  26.2027882  86.7048269
  27.3464673  24.7915772  86.6530999  36.8294461  18.0994556  76.0441387
  35.9420316  18.3844207  75.8261582  37.2448450  17.9388319  75.1968664
  40.1808997  18.1241077  79.7595726  40.9569387  18.6137529  80.0320343
  39.4557132  18.5499131  80.2167596  42.6181556  18.8368696  80.8169667
  43.2126047  18.5964432  80.1062975  42.6908140  18.1175827  81.4443203
  24.8378712  32.6802307  81.1312832  24.7033180  31.9202708  80.5650830
  24.4210774  33.4043207  80.6641621  35.9737675  27.8639231  70.1389407
  36.6773525  28.0689233  70.7547063  35.2500323  28.4315993  70.4038490
  36.8035485  23.6149092  76.2591677  36.7470686  24.0717643  75.4199310
  37.3563827  22.8539777  76.0814520  40.6140291  19.4038824  77.0841797
  40.3577225  19.0035460  77.9150004  39.9893159  20.1182618  76.9591936
  44.9252629  22.1434897  79.5913088  44.3652187  22.2128086  80.3644650
  44.3196132  21.9675882  78.8712584  27.9947838  33.5771624  81.3431274
  27.8780222  34.5217057  81.2409965  27.1740284  33.2745186  81.7317074
  37.8824372  28.3021760  72.1887867  38.7169976  27.8702958  72.0065342
  37.7208715  28.1303774  73.1164762  37.5370264  24.8053873  73.5544206
  37.4819068  24.6398145  72.6132650  36.9116320  25.5129906  73.7106396
  34.8516171  27.1102785  92.8797769  35.7207331  27.2843437  92.5184404
  34.3722923  27.9297202  92.7573498  30.8466390  14.3061982  73.1329525
  30.8345060  15.2503822  73.2897796  31.7389812  14.1232128  72.8388986
  29.0202352  34.2299886  84.5587203  29.9229598  34.2623496  84.8753698
  28.7939722  33.3000337  84.5733539  30.7755954  32.9830873  81.2197281
  29.8251585  32.9832734  81.1061654  31.0788440  32.2363607  80.7033316
  34.6618509  10.9004759  77.3875462  33.8950905  10.3463246  77.5332144
  35.0729214  10.9726628  78.2489613  46.5108647  38.8191411  82.2843044
  47.1487057  38.6998158  81.5806384  46.3929490  39.7672255  82.3430996
  43.3198353  38.7718839  82.2204568  42.9816865  38.6559904  81.3325103
  44.1888122  38.3710004  82.2005575  43.8018136  39.9253691  88.1790774
  43.7906777  39.5306489  87.3071278  43.9638776  39.1919763  88.7724545
  38.6840355  41.3814420  73.9203059  39.4571231  40.8343407  73.7815934
  39.0365754  42.2458670  74.1317520  40.5225398  42.7090803  87.1269958
  40.2315264  43.6136434  87.0116624  41.1582382  42.7507330  87.8414028
  41.0206633  37.5407087  71.5521509  41.2732154  37.0188608  70.7904972
  40.0831192  37.3773232  71.6548192  46.0649916  36.5442865  79.3596252
  46.8513005  36.1262288  79.0086669  46.3288620  37.4488957  79.5277900
  46.2359993  41.9815715  74.0584909  45.6005826  42.0550342  74.7705813
  45.9057399  42.5709314  73.3803988  51.4658343  36.4818098  80.2629230
  52.1983515  35.9117315  80.4967060  50.7097699  36.0939699  80.7035736
  40.7402922  39.4435192  73.7545884  40.6239180  38.7680096  74.4226968
  40.8505181  38.9567566  72.9378037  43.0834463  38.9045340  77.4592573
  42.7192670  38.3775961  78.1705494  43.9401578  38.5143809  77.2859058
  48.9883763  30.1939672  84.7223839  48.6567088  31.0635083  84.4985054
  48.3929377  29.8775956  85.4017869  42.7239950  33.9335239  72.4553921
  42.8914352  34.8015476  72.8224392  42.5337119  34.0962521  71.5315211
  45.4815283  42.3952218  84.1219752  45.1816006  43.2977257  84.0135559
  45.1366342  42.1284401  84.9740905  48.8812426  34.9134758  81.8017189
  47.9729304  34.8450167  81.5075950  48.8300022  35.3906703  82.6299014
  42.7029170  36.3892897  73.4400588  42.5828796  36.8349948  74.2786068
  42.0081759  36.7378214  72.8814126  36.2936575  38.4899289  80.9900245
  36.4228956  38.7433767  81.9039657  35.6134027  39.0826997  80.6704900
  42.9553292  36.3324404  89.7452086  42.1786626  36.8918324  89.7354951
  43.5943855  36.8181187  90.2666956  50.7474073  33.1151197  83.5795063
  50.1048453  33.4083730  82.9334857  50.2429001  33.0004117  84.3848260
  48.4014237  36.8614370  74.2680922  49.3132093  37.0941757  74.0928620
  47.8923884  37.4451414  73.7056001  41.2099665  39.1409857  89.3070053
  41.9514349  39.6794901  89.0304877  40.5036650  39.7676146  89.4641605
  46.6855004  41.2838998  87.9042215  47.0938360  40.8421408  87.1596847
  45.9632266  40.7091625  88.1576408  43.0386074  36.2211605  85.2775772
  43.8847269  36.6451018  85.4210421  42.9784712  35.5645229  85.9714335
  50.8873051  42.7794626  79.0138867  50.2024089  43.1593528  78.4635901
  50.9716900  43.3889953  79.7470815  46.1885520  33.8815973  86.9356945
  45.9446451  34.6358033  86.3991221  46.4645450  34.2601321  87.7704192
  48.1423982  40.4254585  85.6134211  48.3540878  41.0686345  84.9368592
  48.0953731  39.5916902  85.1456141  45.7450211  33.0372406  82.5170783
  44.8834690  33.3353659  82.8087521  45.7712646  33.2542805  81.5851816
  41.4980667  37.7037749  75.7334154  42.2004710  38.1558793  76.2008080
  41.1661295  37.0621568  76.3614047  39.9461028  36.2949505  90.1085363
  39.3159689  36.9765786  90.3420760  39.8397116  36.1832587  89.1638502
  35.2406001  35.9621302  81.0351287  34.4505055  36.2178830  80.5591398
  35.7317248  36.7769639  81.1403328  49.2569810  43.3026541  83.7856568
  50.0787254  42.9006728  83.5039250  49.2532213  43.1994775  84.7372684
  37.1920746  36.3265881  77.9934764  36.3951909  36.4384575  78.5118260
  36.9646338  36.6652533  77.1275655  33.5243704  36.2151792  83.4666278
  33.7751742  37.0998802  83.7323854  34.0603252  36.0356393  82.6941370
  57.3475803  39.6465289  80.1341540  56.5939512  39.0772687  79.9785544
  57.4823345  39.6127954  81.0812174  39.2241771  30.5970271  92.4710614
  38.8308717  30.0436470  93.1458259  40.0407911  30.9080850  92.8617132
  42.1409732  32.0128150  90.0630871  42.8819445  32.6135304  89.9835333
  42.3727655  31.2705788  89.5048913  37.2851070  37.1984518  88.3409101
  37.1704585  36.2969775  88.6416199  36.4295588  37.4448214  87.9893917
  44.3642908  45.1402258  89.9396601  43.9206762  44.3538637  89.6217506
  45.0260121  45.3281408  89.2740492  46.4624146  45.4205058  87.9678002
  46.4442621  46.2413939  87.4758272  47.3844066  45.2959133  88.1928144
  42.9197200  42.9349187  88.8101511  43.4525537  42.1737476  88.5800819
  42.3911281  42.6422839  89.5525665  46.0866895  28.0409253  84.3395153
  45.7431164  28.9310895  84.2634263  46.4545858  27.8510911  83.4764738
  34.1552746  40.3642784  77.1583755  34.9927968  40.7739792  76.9417462
  34.3331013  39.4242226  77.1283949  46.0517178  38.0317864  72.8467588
  45.5363801  38.8022469  73.0855975  45.7794486  37.3583001  73.4700649
  43.6364289  32.8767565  77.9052826  42.7805885  32.4874416  77.7258465
  44.0491240  32.9559526  77.0452612  45.1663435  30.4113909  82.3044386
  44.6628231  30.3744044  81.4912191  45.4594042  31.3206651  82.3641042
  41.4106321  30.4952638  81.3110568  42.2759318  30.2995447  80.9516457
  41.4783830  30.2662990  82.2379924  51.0251452  40.7850219  74.7820761
  50.2480895  40.4461379  74.3375923  51.7042933  40.7902842  74.1075726
  45.8403481  35.9044957  74.6727369  45.5353616  36.2191106  75.5237512
  46.7933923  35.9826376  74.7154702  49.2642759  40.2584200  81.4387369
  48.6066433  40.9483462  81.5267498  50.0683158  40.6480632  81.7821355
  39.0168640  32.7254846  78.6826934  39.5912392  32.5030028  77.9500127
  39.6039623  32.7943541  79.4355536  48.0748218  38.6128573  79.4891311
  48.5880099  39.2458565  79.9913021  48.7249441  38.0129769  79.1234671
  39.3438227  34.7559307  72.7022820  38.5075540  35.0933994  73.0232094
  39.2042997  34.6208287  71.7649957  41.3191308  29.5996095  77.4102004
  40.6655720  29.2845112  76.7858619  41.2771782  28.9771836  78.1361827
  44.5529048  36.0878029  81.7349651  43.6351610  36.3092976  81.5771339
  44.9689192  36.1624339  80.8761359  45.3364096  37.4869444  76.8652332
  46.0835915  37.9990842  76.5559454  45.6055686  37.1653497  77.7256725
  43.6090746  39.9827985  73.8479286  42.7001966  39.6987018  73.9451756
  43.6385830  40.4027064  72.9882593  48.8410014  43.5934575  77.6170454
  48.3872341  42.7525484  77.6735644  48.2103980  44.2295973  77.9545234
  47.7842933  34.5226561  78.8471121  47.0465690  34.0103947  79.1781364
  48.0369707  34.0826942  78.0354398  47.8854561  27.3002813  79.4412890
  48.1913437  26.4400176  79.1538805  48.6107165  27.8920433  79.2411884
  34.1778917  37.7033499  77.8294488  33.9803317  37.1102860  77.1045555
  33.6225581  37.3985709  78.5470427  42.1575640  37.5956606  79.9489081
  42.2124250  36.6430442  79.8731558  41.3466842  37.7516045  80.4330380
  40.0968000  36.2133665  77.7079460  39.2835866  36.5127836  78.1144652
  40.5926994  35.8189354  78.4253942  45.6942212  36.6775490  86.5394354
  46.0491600  36.9046963  87.3988820  46.3414343  37.0093867  85.9171609
  51.4239949  39.7993926  77.2443683  51.2857848  39.9895522  76.3164872
  51.0676168  40.5613309  77.7011734  39.5882075  33.7852021  83.3240695
  40.2281454  33.6440780  82.6263658  38.7559606  33.4986534  82.9479297
  51.4509329  41.8670453  82.2554955  51.8845835  41.7745742  83.1038009
  52.1640909  41.8427953  81.6174971  36.6725142  37.2297533  75.5135440
  35.7422731  37.1681989  75.7305402  36.7682614  36.7073486  74.7172082
  36.5910691  33.7552346  78.1013682  36.8517509  34.6697679  77.9922842
  37.4127864  33.2876788  78.2510295  38.0635617  35.1690103  85.2712506
  38.7358670  34.9607465  84.6225155  37.2365403  34.9712189  84.8317739
  52.3124878  41.9094153  84.7887840  52.5060768  42.8139964  85.0347115
  52.2125496  41.4501572  85.6226425  43.9661189  31.7952044  87.2878167
  43.3189104  32.4941994  87.1942644  44.7362204  32.2288188  87.6554416
  47.3739987  42.0600896  90.3628721  47.2225493  41.8311448  89.4458804
  47.3644666  43.0171498  90.3760066  44.1425323  39.6332809  85.3474987
  45.0717383  39.7843968  85.1743954  43.7216353  39.7216830  84.4923634
  38.4663114  38.4432706  86.0314944  38.3282912  37.7112945  86.6326483
  39.3768038  38.3541606  85.7499131  41.0945415  38.1552665  85.5198623
  41.8045033  37.5145858  85.4785242  41.0514723  38.4065560  86.4424804
  49.0832193  45.0920019  88.4405202  49.0244740  44.4079239  87.7735785
  49.4851712  45.8339009  87.9885828  39.8074349  35.1417883  87.3394263
  39.2711706  34.6908622  87.9915859  39.2191057  35.2763792  86.5964727
  39.2176608  34.6006535  69.9020726  38.3406074  34.4795335  69.5382973
  39.6934361  33.8092613  69.6499615  49.0849601  43.0559603  86.6719182
  48.1976379  42.7185524  86.7945581  49.6548152  42.3242634  86.9087948
  30.7378748  39.3883694  79.9962234  31.4249788  39.0745424  79.4083249
  30.5826876  40.2925059  79.7229485  35.5413470  34.2773891  84.4247257
  35.4571659  33.6699560  83.6897667  34.7196176  34.7682909  84.4256754
  45.7137184  32.7627454  79.7917452  46.2105883  32.0097417  79.4718523
  44.9424165  32.7991771  79.2260662  53.5666941  38.4667820  81.4335744
  53.5556817  39.3492535  81.0629677  52.6984321  38.1139371  81.2390281
  45.0749438  47.6147889  85.7938584  45.7877410  48.2495354  85.7214485
  44.5839466  47.7111755  84.9778586  46.7966965  41.5199142  77.3655876
  45.8623243  41.6400604  77.1960580  46.9743633  40.6171608  77.1015886
  42.2972153  34.9044837  79.5189137  41.9269940  34.3515878  80.2070042
  42.7931245  34.3002971  78.9664137  50.1839516  37.3616461  77.9005910
  50.6499968  38.1944453  77.8266212  50.6347016  36.8961443  78.6051168
  48.2515747  43.7060282  74.8992062  48.5275591  43.5916877  75.8085936
  47.3820246  43.3077767  74.8604235  48.1556179  29.7297048  81.9396811
  47.2419258  29.9601275  82.1079018  48.5849280  29.8135492  82.7910844
  47.9262637  37.9186940  84.4396705  47.2734087  38.1662847  83.7849158
  48.3043017  37.1051078  84.1059182  43.9750210  38.6606751  90.9262742
  43.2990847  38.5600880  91.5965117  44.7977844  38.5045965  91.3898739
  30.3146724  37.4684288  82.2679701  30.3530823  36.9347878  83.0616819
  29.8087017  36.9419493  81.6490678  37.6937486  32.3148828  85.7642243
  37.7578813  33.1763659  85.3519641  37.6304606  31.7022830  85.0314601
  37.1689759  34.3871961  89.4115277  37.7961798  34.0049038  90.0252802
  36.3117678  34.1686163  89.7770970  47.5683867  44.7934936  91.0169013
  48.1123771  45.4064894  90.5223967  46.9870712  45.3514514  91.5336026
  33.9455302  36.1948390  75.3433632  34.2408743  35.2859068  75.2900686
  33.0443337  36.1736129  75.0214634  37.4749549  34.2704386  81.3261181
  36.7536134  34.8840354  81.1868654  38.2642804  34.8062151  81.2477827
  47.9176289  45.7164674  83.7763591  46.9706624  45.5970025  83.7041917
  48.2659062  44.8287172  83.8589852  40.2775862  31.6058813  87.6001832
  40.8010264  31.8521109  88.3628142  40.0588195  32.4378848  87.1804970
  35.6743143  33.8762488  75.4672957  35.3455849  32.9959866  75.2848063
  36.0282514  33.8210156  76.3549346  38.7884966  34.1635457  75.8348435
  39.1281039  34.6921379  75.1127043  39.2357087  34.5015863  76.6107001
  41.4828407  32.5472508  85.2851503  41.1425227  31.7480321  85.6872183
  40.7767413  32.8474219  84.7128336  42.1344879  29.6321820  83.7378826
  42.9570948  29.1582299  83.6157716  42.3782942  30.4112304  84.2377512
  40.7753113  32.6610079  74.0341728  41.4961476  33.0391332  73.5305444
  40.1518418  33.3798956  74.1376706  44.9184236  33.3655228  74.9700060
  45.1347851  34.2479866  74.6688888  44.4378303  32.9741441  74.2405702
  39.6583458  36.3240941  81.5470805  39.5128038  36.6381244  82.4395086
  39.1808661  36.9425841  80.9941703  41.5179841  33.3143489  81.5951694
  41.5041409  32.4184582  81.2583992  42.2352269  33.3214153  82.2289980
  43.3705971  33.7480829  83.6404822  43.1123749  34.6697900  83.6389152
  42.8391012  33.3511264  84.3305286  34.1329120  38.8646286  84.4858466
  33.5882588  39.6406093  84.6178740  35.0108470  39.2117090  84.3277587
  40.9216736  32.1957869  76.8639264  41.0432648  31.2674516  77.0630152
  40.6318779  32.2096555  75.9517580  43.7907927  29.8812780  80.0005984
  43.8129624  29.9452113  79.0457964  44.2075986  29.0417288  80.1946490
  54.1691551  39.6168039  78.0385207  54.6122697  38.8675365  77.6404330
  53.2918061  39.6078176  77.6558939  34.9195142  37.9916182  87.3788623
  34.1776878  38.1398817  87.9653253  34.5987886  38.2524447  86.5155372
  42.8638804  47.5332160  87.1769013  43.1725931  47.2881307  88.0491712
  43.6614286  47.7378798  86.6887883  40.4057816  33.7089867  91.0729197
  40.4545971  34.5851990  90.6906966  40.9480330  33.1667260  90.5000840
  50.8912662  44.2530990  90.3530334  50.1008205  44.2355129  89.8134833
  50.6546016  44.7919284  91.1079371  51.0110537  41.1023456  87.6663062
  51.0608542  40.9373464  88.6078585  50.9024460  40.2350715  87.2760943
  48.3014299  37.0854384  88.9822369  49.2024162  36.9460849  88.6906367
  48.3762274  37.2508839  89.9220547  42.6357104  34.4621239  87.8275556
  41.7660414  34.7554805  87.5558144  42.8716585  35.0461684  88.5482819
  52.5128734  43.5220398  87.9105084  52.2213542  43.8850378  88.7468545
  51.9000865  42.8087406  87.7318416  53.7124416  41.0873278  80.4307654
  54.5471307  41.5263082  80.5945215  53.8483545  40.6111931  79.6115900
  50.7615922  38.6453013  86.3785142  51.2370043  38.8380659  85.5703993
  49.8381487  38.7012198  86.1328526  45.3396138  30.6800856  85.3440976
  45.8578082  31.4161883  85.0187464  44.9851271  30.9864849  86.1787735
  36.9195076  35.5405537  73.4602382  36.2264321  35.6149892  72.8042418
  36.6746828  34.7765881  73.9823899  45.5908732  27.1001139  80.8641873
  45.8710486  26.4324328  81.4902299  46.3759339  27.2930234  80.3516536
  49.4617591  35.5218773  84.6113448  50.4135014  35.6216870  84.6325672
  49.2921041  34.7297041  85.1211532  47.4831970  32.6074356  84.7972849
  46.8881902  32.8879369  84.1019337  47.1981667  33.0968257  85.5689590
  51.9405669  38.7424892  83.7255747  51.9081989  37.8040893  83.9115431
  52.5506292  38.8208929  82.9921572  43.7788999  37.6120945  69.7682951
  44.7248104  37.4827153  69.8371369  43.4003244  36.8735607  70.2452379
  52.0900157  35.5335936  83.7714030  51.5739206  34.7494392  83.5843959
  52.9740106  35.2054652  83.9360550  49.7510884  29.2776951  79.7309843
  49.5535705  28.9692039  80.6153175  50.3610590  30.0038590  79.8607773
  57.7582218  39.8040899  82.8661784  58.4885607  39.5426187  83.4269487
  57.1489164  39.0669621  82.9063852  55.8397516  37.9448762  83.4636235
  55.1130679  37.8104727  82.8552727  55.4244802  38.2525590  84.2692953
  43.6627692  41.6638691  91.2283608  44.5830701  41.8417290  91.4223655
  43.6277275  40.7194737  91.0763308  41.9631917  35.5370922  69.7037837
  41.0563372  35.2404034  69.7800550  42.2407898  35.2400740  68.8372123
  32.8809857  36.8577285  80.1536883  32.5612641  36.0042593  79.8611257
  32.3343285  37.0725863  80.9094850  36.6589765  39.5739726  83.8706389
  36.8775774  40.5056834  83.8894423  37.0715538  39.2147700  84.6561193
  43.5793982  30.0807811  75.8582078  42.7694711  29.7354896  76.2337324
  44.2678399  29.7715355  76.4469689  45.5084531  29.1585858  77.4806374
  46.0615569  29.5781312  78.1396398  45.7454617  28.2321606  77.5229330
  41.5317630  35.1472932  93.2609138  41.4314357  36.0967289  93.1921229
  41.3139172  34.8191171  92.3885208  40.7330701  32.3957857  69.8449816
  41.5949865  32.7212755  70.1045633  40.9181045  31.6089353  69.3322882
  32.7498117  40.4780197  82.1230005  32.0561588  40.0634149  81.6099959
  33.4971108  40.5200733  81.5263423  48.8863338  31.2686383  76.9885039
  48.3062007  31.9271187  76.6063091  48.6199270  30.4463728  76.5772456
  47.3366904  30.6691441  79.1906359  47.8366682  30.7807976  78.3820678
  47.9802512  30.3652494  79.8307167  41.3948900  38.5770071  92.0774200
  40.9115982  39.3770431  92.2838089  41.4809839  38.5878016  91.1241644
  34.6634860  40.4098450  79.9996019  34.6405548  40.5086138  79.0477902
  34.9735496  41.2563601  80.3213186  37.9121620  41.0375721  86.6813431
  38.7314509  41.5319800  86.7048269  38.1858427  40.1207690  86.6530999
  47.6688216  33.4286474  76.0441387  46.7814071  33.7136124  75.8261582
  48.0842205  33.2680237  75.1968664  51.0202752  33.4532995  79.7595726
  51.7963142  33.9429447  80.0320343  50.2950886  33.8791049  80.2167596
  53.4575310  34.1660614  80.8169667  54.0519801  33.9256350  80.1062975
  53.5301894  33.4467744  81.4443203  47.6429239  38.9441010  76.2591677
  47.5864441  39.4009561  75.4199310  48.1957582  38.1831694  76.0814520
  51.4534045  34.7330742  77.0841797  51.1970980  34.3327377  77.9150004
  50.8286913  35.4474535  76.9591936  55.7646383  37.4726815  79.5913088
  55.2045941  37.5420004  80.3644650  55.1589887  37.2967799  78.8712584
  48.7218127  43.6313678  72.1887867  49.5563731  43.1994876  72.0065342
  48.5602470  43.4595691  73.1164762  48.3764019  40.1345791  73.5544206
  48.3212823  39.9690062  72.6132650  47.7510074  40.8421824  73.7106396
  33.1656534  35.3713855  87.3805629  33.8115397  34.8612809  87.8692854
  32.9573685  36.1082537  87.9549054  45.6909926  42.4394703  92.8797769
  46.5601086  42.6135355  92.5184404  45.2116677  43.2589120  92.7573498
  41.6860144  29.6353900  73.1329525  41.6738814  30.5795740  73.2897796
  42.5783566  29.4524045  72.8388986  45.5012264  26.2296677  77.3875462
  44.7344660  25.6755163  77.5332144  45.9122969  26.3018545  78.2489613
  37.5054025  32.5181472  91.4780643  38.3685486  32.1618277  91.6883967
  36.9319435  32.1795367  92.1656047  57.3502402  54.1483329  82.2843044
  57.9880812  54.0290076  81.5806384  57.2323245  55.0964173  82.3430996
  54.1592108  54.1010757  82.2204568  53.8210619  53.9851822  81.3325103
  55.0281876  53.7001922  82.2005575  50.0178924  55.9546233  78.2101459
  49.4543789  55.8636170  77.4417747  49.9031319  55.1346138  78.6903952
  54.6411891  55.2545609  88.1790774  54.6300532  54.8598407  87.3071278
  54.8032530  54.5211681  88.7724545  47.5643356  57.4497425  81.0485680
  48.3564648  57.1088249  80.6331979  47.8040006  57.5592400  81.9687833
  51.3619152  58.0382720  87.1269958  51.0709018  58.9428351  87.0116624
  51.9976136  58.0799248  87.8414028  52.2875359  55.4159569  83.7171318
  52.8838931  55.1915591  83.0028281  52.3450330  54.6744314  84.3196765
  56.9043670  51.8734783  79.3596252  57.6906759  51.4554206  79.0086669
  57.1682375  52.7780875  79.5277900  62.3052097  51.8110016  80.2629230
  63.0377269  51.2409233  80.4967060  61.5491453  51.4231616  80.7035736
  53.9228217  54.2337257  77.4592573  53.5586424  53.7067878  78.1705494
  54.7795333  53.8435726  77.2859058  59.8277518  45.5231590  84.7223839
  59.4960842  46.3927001  84.4985054  59.2323131  45.2067874  85.4017869
  56.3209037  57.7244136  84.1219752  56.0209760  58.6269175  84.0135559
  55.9760097  57.4576319  84.9740905  49.7721519  54.1757933  80.1556456
  48.8472015  54.0434147  80.3634148  50.0205932  54.9552152  80.6526398
  59.7206181  50.2426676  81.8017189  58.8123058  50.1742084  81.5075950
  59.6693777  50.7198621  82.6299014  53.7947047  51.6616322  89.7452086
  53.0180381  52.2210242  89.7354951  54.4337610  52.1473105  90.2666956
  61.5867827  48.4443114  83.5795063  60.9442208  48.7375648  82.9334857
  61.0822756  48.3296035  84.3848260  52.0493419  54.4701775  89.3070053
  52.7908103  55.0086819  89.0304877  51.3430405  55.0968064  89.4641605
  57.5248759  56.6130915  87.9042215  57.9332115  56.1713326  87.1596847
  56.8026020  56.0383543  88.1576408  53.8779829  51.5503522  85.2775772
  54.7241024  51.9742936  85.4210421  53.8178466  50.8937147  85.9714335
  57.8477573  57.1732106  81.6594504  57.2186436  57.3377820  80.9570571
  57.4603235  57.5873716  82.4305468  61.7266805  58.1086544  79.0138867
  61.0417843  58.4885445  78.4635901  61.8110655  58.7181871  79.7470815
  57.0279274  49.2107891  86.9356945  56.7840206  49.9649951  86.3991221
  57.3039205  49.5893238  87.7704192  58.9817737  55.7546503  85.6134211
  59.1934632  56.3978263  84.9368592  58.9347485  54.9208820  85.1456141
  56.5843966  48.3664324  82.5170783  55.7228445  48.6645577  82.8087521
  56.6106400  48.5834722  81.5851816  53.4005535  56.9106514  78.9244589
  53.8643881  57.1894217  78.1349211  53.1362333  56.0089959  78.7417679
  50.2929616  56.4577996  81.8624352  50.8630973  56.8865264  81.2241836
  50.8837728  56.1760580  82.5608538  52.3374421  53.0329667  75.7334154
  53.0398465  53.4850710  76.2008080  52.0055050  52.3913485  76.3614047
  50.7854783  51.6241423  90.1085363  50.1553443  52.3057704  90.3420760
  50.6790871  51.5124505  89.1638502  60.0963565  58.6318458  83.7856568
  60.9181009  58.2298646  83.5039250  60.0925968  58.5286693  84.7372684
  53.8620168  58.1802502  85.9417279  53.9264601  58.6422909  86.7775451
  53.1531092  57.5499867  86.0699589  68.1869558  54.9757207  80.1341540
  67.4333266  54.4064605  79.9785544  68.3217099  54.9419871  81.0812174
  50.0635526  45.9262189  92.4710614  49.6702471  45.3728388  93.1458259
  50.8801666  46.2372767  92.8617132  47.0297583  57.3646047  76.3824184
  47.5422104  58.1589297  76.5329749  47.6820296  56.6672338  76.3157786
  52.9803487  47.3420068  90.0630871  53.7213200  47.9427221  89.9835333
  53.2121409  46.5997706  89.5048913  48.1244825  52.5276435  88.3409101
  48.0098340  51.6261693  88.6416199  47.2689342  52.7740132  87.9893917
  55.2036662  60.4694176  89.9396601  54.7600516  59.6830554  89.6217506
  55.8653876  60.6573326  89.2740492  49.9623783  61.9989977  84.4657280
  50.5131209  61.8707041  83.6934274  49.1235259  62.2984866  84.1152172
  57.3017900  60.7496976  87.9678002  57.2836376  61.5705857  87.4758272
  58.2237820  60.6251051  88.1928144  53.7590955  58.2641105  88.8101511
  54.2919291  57.5029393  88.5800819  53.2305036  57.9714757  89.5525665
  56.9260649  43.3701171  84.3395153  56.5824919  44.2602813  84.2634263
  57.2939612  43.1802829  83.4764738  56.0057190  45.7405826  82.3044386
  55.5021985  45.7035961  81.4912191  56.2987797  46.6498569  82.3641042
  52.2500076  45.8244556  81.3110568  53.1153073  45.6287365  80.9516457
  52.3177585  45.5954908  82.2379924  61.8645206  56.1142137  74.7820761
  61.0874649  55.7753296  74.3375923  62.5436687  56.1194760  74.1075726
  55.1243667  57.3927098  76.3220323  54.5965029  56.6579857  76.0093560
  54.6231170  58.1701774  76.0760291  60.1036513  55.5876118  81.4387369
  59.4460188  56.2775379  81.5267498  60.9076912  55.9772550  81.7821355
  58.9141972  53.9420491  79.4891311  59.4273854  54.5750483  79.9913021
  59.5643196  53.3421686  79.1234671  55.3922803  51.4169946  81.7349651
  54.4745364  51.6384893  81.5771339  55.8082947  51.4916257  80.8761359
  56.1757851  52.8161362  76.8652332  56.9229670  53.3282759  76.5559454
  56.4449440  52.4945415  77.7256725  58.1236707  60.7602989  78.5520272
  58.4159682  61.3208046  77.8332637  58.6335328  61.0531550  79.3073431
  58.7248315  42.6294730  79.4412890  59.0307192  41.7692094  79.1538805
  59.4500920  43.2212350  79.2411884  52.9969395  52.9248523  79.9489081
  53.0518005  51.9722360  79.8731558  52.1860597  53.0807962  80.4330380
  56.5335966  52.0067408  86.5394354  56.8885354  52.2338881  87.3988820
  57.1808098  52.3385784  85.9171609  62.2633703  55.1285843  77.2443683
  62.1251602  55.3187439  76.3164872  61.9069922  55.8905226  77.7011734
  50.4275830  49.1143939  83.3240695  51.0675209  48.9732698  82.6263658
  49.5953360  48.8278452  82.9479297  62.2903083  57.1962370  82.2554955
  62.7239590  57.1037659  83.1038009  63.0034664  57.1719871  81.6174971
  51.2036133  58.4146369  79.4375688  51.9976732  57.9196689  79.2358263
  50.4927826  57.8864232  79.0743393  56.0230978  60.7964465  83.7888055
  56.0768000  61.3655401  84.5565771  55.1545759  60.9666350  83.4242092
  48.9029371  50.4982021  85.2712506  49.5752425  50.2899383  84.6225155
  48.0759158  50.3004107  84.8317739  63.1518633  57.2386071  84.7887840
  63.3454523  58.1431882  85.0347115  63.0519251  56.7793490  85.6226425
  54.8054943  47.1243962  87.2878167  54.1582858  47.8233911  87.1942644
  55.5755959  47.5580106  87.6554416  58.2133741  57.3892814  90.3628721
  58.0619248  57.1603365  89.4458804  58.2038421  58.3463415  90.3760066
  54.9819078  54.9624727  85.3474987  55.9111138  55.1135886  85.1743954
  54.5610108  55.0508747  84.4923634  53.7807409  58.9875391  83.1173525
  53.6418495  58.6194175  83.9899463  52.9922006  59.5023030  82.9457482
  55.3312625  58.3656994  80.5062362  54.9962457  58.3257764  81.4020012
  54.8316570  57.7001710  80.0332773  49.3056869  53.7724624  86.0314944
  49.1676666  53.0404863  86.6326483  50.2161792  53.6833524  85.7499131
  51.9339169  53.4844583  85.5198623  52.6438788  52.8437775  85.4785242
  51.8908477  53.7357478  86.4424804  59.9225948  60.4211936  88.4405202
  59.8638494  59.7371156  87.7735785  60.3245466  61.1630926  87.9885828
  50.6468103  50.4709801  87.3394263  50.1105460  50.0200539  87.9915859
  50.0584812  50.6055710  86.5964727  48.9416647  67.2373850  81.2338921
  49.1813245  67.8692374  81.9117940  48.0985843  66.8861890  81.5204281
  59.9243355  58.3851520  86.6719182  59.0370134  58.0477442  86.7945581
  60.4941906  57.6534552  86.9087948  46.3807224  49.6065809  84.4247257
  46.2965413  48.9991478  83.6897667  45.5589931  50.0974827  84.4256754
  53.4544509  63.0452973  83.6380425  53.3814680  63.8507944  84.1499730
  53.0121902  63.2444938  82.8128447  56.5530938  48.0919372  79.7917452
  57.0499638  47.3389334  79.4718523  55.7817920  48.1283689  79.2260662
  64.4060696  53.7959738  81.4335744  64.3950572  54.6784453  81.0629677
  63.5378075  53.4431288  81.2390281  55.9143192  62.9439807  85.7938584
  56.6271164  63.5787271  85.7214485  55.4233221  63.0403673  84.9778586
  57.6360719  56.8491059  77.3655876  56.7016998  56.9692522  77.1960580
  57.8137387  55.9463526  77.1015886  50.9655106  60.6934250  86.6144155
  51.6664565  61.3270733  86.7673549  50.4950221  61.0348982  85.8539794
  58.9949933  45.0588966  81.9396811  58.0813013  45.2893192  82.1079018
  59.4243035  45.1427410  82.7910844  58.7656392  53.2478858  84.4396705
  58.1127842  53.4954765  83.7849158  59.1436771  52.4342996  84.1059182
  55.7263565  63.2838551  78.5424875  55.9085960  62.4660207  79.0052628
  56.5496551  63.5006243  78.1049765  56.0605731  62.2106736  75.8039924
  56.5893497  61.6999190  75.1910086  56.3233951  61.8949266  76.6685457
  54.8143965  53.9898669  90.9262742  54.1384602  53.8892798  91.5965117
  55.6371598  53.8337882  91.3898739  46.5622824  60.2270605  83.5475258
  47.1476260  59.4814293  83.6803162  46.3647662  60.5374562  84.4311921
  53.5566747  65.2965596  85.1620358  54.1085056  65.4597218  85.9269443
  53.8972941  65.8870034  84.4900383  48.5331241  47.6440746  85.7642243
  48.5972567  48.5055577  85.3519641  48.4698361  47.0314748  85.0314601
  48.0083513  49.7163878  89.4115277  48.6355552  49.3340956  90.0252802
  47.1511432  49.4978080  89.7770970  58.4077622  60.1226854  91.0169013
  58.9517526  60.7356812  90.5223967  57.8264467  60.6806432  91.5336026
  56.6935135  63.2447572  82.1484040  56.5686274  62.4437311  81.6394986
  57.3514226  63.7393765  81.6598010  58.7570043  61.0456592  83.7763591
  57.8100379  60.9261943  83.7041917  59.1052816  60.1579090  83.8589852
  51.1169617  46.9350731  87.6001832  51.6404018  47.1813027  88.3628142
  50.8981950  47.7670765  87.1804970  55.7616476  60.8409308  79.9767943
  55.6141439  59.9126015  80.1575513  56.5869970  60.8629399  79.4925018
  59.3650598  61.6637867  81.0632815  60.2897146  61.4580728  80.9257267
  59.1965902  61.4154268  81.9722157  52.3222162  47.8764426  85.2851503
  51.9818982  47.0772239  85.6872183  51.6161168  48.1766137  84.7128336
  52.9738633  44.9613738  83.7378826  53.7964703  44.4874216  83.6157716
  53.2176697  45.7404222  84.2377512  50.4977212  51.6532859  81.5470805
  50.3521793  51.9673162  82.4395086  50.0202416  52.2717759  80.9941703
  52.3573595  48.6435407  81.5951694  52.3435164  47.7476500  81.2583992
  53.0746023  48.6506071  82.2289980  54.2099726  49.0772747  83.6404822
  53.9517504  49.9989818  83.6389152  53.6784766  48.6803182  84.3305286
  59.1545915  62.1823534  76.4194907  59.3282792  61.6169957  75.6668759
  59.6474806  62.9824429  76.2374397  44.9722874  54.1938203  84.4858466
  44.4276342  54.9698011  84.6178740  45.8502224  54.5409008  84.3277587
  54.6301681  45.2104697  80.0005984  54.6523378  45.2744031  79.0457964
  55.0469740  44.3709206  80.1946490  65.0085306  54.9459957  78.0385207
  65.4516452  54.1967282  77.6404330  64.1311816  54.9370093  77.6558939
  45.7588896  53.3208099  87.3788623  45.0170632  53.4690735  87.9653253
  45.4381640  53.5816365  86.5155372  53.7032559  62.8624078  87.1769013
  54.0119685  62.6173224  88.0491712  54.5008041  63.0670716  86.6887883
  46.2045510  61.2073528  79.4099017  47.0303530  60.9077300  79.0297661
  45.8539562  60.4381151  79.8588806  51.1727043  60.5599996  81.4796691
  50.5507052  59.8970701  81.1798919  51.8431910  60.5861128  80.7970339
  44.4054115  59.1259855  80.3687951  43.5686023  58.6982029  80.1871952
  44.3777760  59.3192298  81.3058742  51.2451571  49.0381784  91.0729197
  51.2939726  49.9143907  90.6906966  51.7874085  48.4959177  90.5000840
  61.7306416  59.5822908  90.3530334  60.9401960  59.5647047  89.8134833
  61.4939771  60.1211201  91.1079371  61.8504291  56.4315374  87.6663062
  61.9002296  56.2665381  88.6078585  61.7418215  55.5642633  87.2760943
  59.1408054  52.4146302  88.9822369  60.0417916  52.2752767  88.6906367
  59.2156028  52.5800757  89.9220547  53.4750859  49.7913157  87.8275556
  52.6054168  50.0846723  87.5558144  53.7110339  50.3753602  88.5482819
  63.3522488  58.8512316  87.9105084  63.0607296  59.2142296  88.7468545
  62.7394619  58.1379324  87.7318416  64.5518170  56.4165195  80.4307654
  65.3865062  56.8554999  80.5945215  64.6877299  55.9403849  79.6115900
  61.6009676  53.9744930  86.3785142  62.0763798  54.1672577  85.5703993
  60.6775242  54.0304116  86.1328526  48.4893183  55.1369097  75.9616220
  48.2439225  54.2331427  76.1596430  48.6589097  55.1386248  75.0195698
  56.1789893  46.0092774  85.3440976  56.6971837  46.7453801  85.0187464
  55.8245026  46.3156767  86.1787735  56.4302487  42.4293056  80.8641873
  56.7104241  41.7616245  81.4902299  57.2153094  42.6222152  80.3516536
  60.3011345  50.8510690  84.6113448  61.2528768  50.9508788  84.6325672
  60.1314796  50.0588959  85.1211532  58.3225725  47.9366273  84.7972849
  57.7275657  48.2171286  84.1019337  58.0375421  48.4260174  85.5689590
  62.7799423  54.0716810  83.7255747  62.7475743  53.1332811  83.9115431
  63.3900047  54.1500847  82.9921572  62.9293912  50.8627853  83.7714030
  62.4132960  50.0786310  83.5843959  63.8133860  50.5346570  83.9360550
  60.5904638  44.6068869  79.7309843  60.3929460  44.2983957  80.6153175
  61.2004344  45.3330508  79.8607773  68.5975973  55.1332817  82.8661784
  69.3279361  54.8718105  83.4269487  67.9882918  54.3961539  82.9063852
  66.6791270  53.2740679  83.4636235  65.9524434  53.1396644  82.8552727
  66.2638557  53.5817508  84.2692953  54.5021446  56.9930609  91.2283608
  55.4224456  57.1709208  91.4223655  54.4671030  56.0486654  91.0763308
  47.4983519  54.9031644  83.8706389  47.7169529  55.8348752  83.8894423
  47.9109293  54.5439618  84.6561193  52.3711384  50.4764849  93.2609138
  52.2708111  51.4259206  93.1921229  52.1532926  50.1483088  92.3885208
  43.5891871  55.8072114  82.1230005  42.8955343  55.3926067  81.6099959
  44.3364862  55.8492651  81.5263423  52.2342654  53.9061988  92.0774200
  51.7509736  54.7062348  92.2838089  52.3203593  53.9169933  91.1241644
  45.5028614  55.7390368  79.9996019  45.4799302  55.8378055  79.0477902
  45.8129250  56.5855519  80.3213186  48.1615992  57.7966523  84.1142634
  49.1159245  57.7650465  84.0472565  47.9628515  57.3357147  84.9292860
  48.7515374  56.3667639  86.6813431  49.5708263  56.8611718  86.7048269
  49.0252182  55.4499607  86.6530999  64.2969065  49.4952532  80.8169667
  64.8913556  49.2548268  80.1062975  64.3695649  48.7759662  81.4443203
  46.5166221  63.3386143  81.1312832  46.3820689  62.5786543  80.5650830
  46.0998283  64.0627042  80.6641621  66.6040138  52.8018732  79.5913088
  66.0439696  52.8711922  80.3644650  65.9983641  52.6259717  78.8712584
  44.0050288  50.7005773  87.3805629  44.6509152  50.1904727  87.8692854
  43.7967439  51.4374455  87.9549054  56.5303680  57.7686620  92.8797769
  57.3994840  57.9427273  92.5184404  56.0510432  58.5881037  92.7573498
  50.6989861  64.8883721  84.5587203  51.6017107  64.9207332  84.8753698
  50.4727231  63.9584172  84.5733539  56.3406018  41.5588594  77.3875462
  55.5738414  41.0047081  77.5332144  56.7516723  41.6310463  78.2489613
  48.3447779  47.8473390  91.4780643  49.2079241  47.4910195  91.6883967
  47.7713190  47.5087285  92.1656047  68.1896156  69.4775246  82.2843044
  68.8274566  69.3581994  81.5806384  68.0716999  70.4256090  82.3430996
  64.9985862  69.4302674  82.2204568  64.6604374  69.3143739  81.3325103
  65.8675631  69.0293840  82.2005575  65.4805645  70.5837526  88.1790774
  65.4694286  70.1890324  87.3071278  65.6426285  69.8503599  88.7724545
  58.4037110  72.7789342  81.0485680  59.1958402  72.4380167  80.6331979
  58.6433760  72.8884318  81.9687833  66.4372237  74.9509119  73.5215924
  65.7860217  75.5363199  73.1349938  67.2316600  75.4815314  73.5810962
  62.2012907  73.3674638  87.1269958  61.9102773  74.2720269  87.0116624
  62.8369891  73.4091166  87.8414028  63.1269113  70.7451487  83.7171318
  63.7232686  70.5207509  83.0028281  63.1844085  70.0036232  84.3196765
  67.7437425  67.2026700  79.3596252  68.5300514  66.7846123  79.0086669
  68.0076129  68.1072792  79.5277900  67.9147502  72.6399551  74.0584909
  67.2793335  72.7134177  74.7705813  67.5844908  73.2293149  73.3803988
  73.1445852  67.1401933  80.2629230  73.8771024  66.5701150  80.4967060
  72.3885207  66.7523534  80.7035736  70.6671272  60.8523508  84.7223839
  70.3354597  61.7218918  84.4985054  70.0716886  60.5359792  85.4017869
  67.1602792  73.0536054  84.1219752  66.8603515  73.9561092  84.0135559
  66.8153851  72.7868237  84.9740905  70.5599935  65.5718594  81.8017189
  69.6516813  65.5034002  81.5075950  70.5087531  66.0490539  82.6299014
  57.9724084  69.1483124  80.9900245  58.1016465  69.4017603  81.9039657
  57.2921536  69.7410832  80.6704900  64.6340801  66.9908239  89.7452086
  63.8574135  67.5502159  89.7354951  65.2731364  67.4765022  90.2666956
  72.4261582  63.7735032  83.5795063  71.7835962  64.0667565  82.9334857
  71.9216510  63.6587952  84.3848260  70.0801746  67.5198205  74.2680922
  70.9919602  67.7525592  74.0928620  69.5711393  68.1035250  73.7056001
  62.8887174  69.7993693  89.3070053  63.6301858  70.3378737  89.0304877
  62.1824159  70.4259981  89.4641605  68.3642513  71.9422833  87.9042215
  68.7725869  71.5005244  87.1596847  67.6419775  71.3675461  88.1576408
  64.7173583  66.8795440  85.2775772  65.5634778  67.3034853  85.4210421
  64.6572221  66.2229064  85.9714335  68.6871328  72.5024024  81.6594504
  68.0580190  72.6669738  80.9570571  68.2996990  72.9165633  82.4305468
  72.5660560  73.4378462  79.0138867  71.8811598  73.8177363  78.4635901
  72.6504409  74.0473788  79.7470815  67.8673029  64.5399808  86.9356945
  67.6233960  65.2941869  86.3991221  68.1432959  64.9185156  87.7704192
  69.8211491  71.0838421  85.6134211  70.0328387  71.7270181  84.9368592
  69.7741240  70.2500737  85.1456141  67.4237720  63.6956241  82.5170783
  66.5622199  63.9937495  82.8087521  67.4500155  63.9126640  81.5851816
  64.2399290  72.2398432  78.9244589  64.7037635  72.5186135  78.1349211
  63.9756088  71.3381876  78.7417679  61.1323371  71.7869913  81.8624352
  61.7024728  72.2157182  81.2241836  61.7231483  71.5052498  82.5608538
  61.6248537  66.9533341  90.1085363  60.9947198  67.6349622  90.3420760
  61.5184625  66.8416422  89.1638502  70.9357319  73.9610376  83.7856568
  71.7574763  73.5590563  83.5039250  70.9319722  73.8578610  84.7372684
  64.7013923  73.5094419  85.9417279  64.7658355  73.9714827  86.7775451
  63.9924847  72.8791784  86.0699589  55.2031213  66.8735627  83.4666278
  55.4539251  67.7582637  83.7323854  55.7390761  66.6940229  82.6941370
  79.0263312  70.3049125  80.1341540  78.2727021  69.7356523  79.9785544
  79.1610854  70.2711789  81.0812174  64.4161940  75.1762527  75.8096259
  64.2807615  76.0214063  76.2381107  64.9571753  75.3781804  75.0462193
  60.9029280  61.2554107  92.4710614  60.5096226  60.7020305  93.1458259
  61.7195420  61.5664685  92.8617132  63.8197241  62.6711986  90.0630871
  64.5606954  63.2719139  89.9835333  64.0515164  61.9289624  89.5048913
  58.9638579  67.8568353  88.3409101  58.8492094  66.9553610  88.6416199
  58.1083097  68.1032050  87.9893917  66.0430417  75.7986093  89.9396601
  65.5994271  75.0122472  89.6217506  66.7047630  75.9865244  89.2740492
  60.8017538  77.3281895  84.4657280  61.3524963  77.1998958  83.6934274
  59.9629014  77.6276784  84.1152172  68.1411655  76.0788893  87.9678002
  68.1230130  76.8997774  87.4758272  69.0631575  75.9542968  88.1928144
  64.5984709  73.5933023  88.8101511  65.1313046  72.8321311  88.5800819
  64.0698790  73.3006675  89.5525665  67.7654404  58.6993089  84.3395153
  67.4218673  59.5894730  84.2634263  68.1333367  58.5094746  83.4764738
  67.7304687  68.6901700  72.8467588  67.2151310  69.4606304  73.0855975
  67.4581995  68.0166836  73.4700649  65.3151798  63.5351401  77.9052826
  64.4593394  63.1458251  77.7258465  65.7278749  63.6143361  77.0452612
  66.8450944  61.0697744  82.3044386  66.3415740  61.0327879  81.4912191
  67.1381551  61.9790487  82.3641042  63.0893830  61.1536474  81.3110568
  63.9546827  60.9579282  80.9516457  63.1571339  60.9246825  82.2379924
  72.7038961  71.4434054  74.7820761  71.9268404  71.1045214  74.3375923
  73.3830442  71.4486678  74.1075726  67.5190990  66.5628792  74.6727369
  67.2141125  66.8774941  75.5237512  68.4721432  66.6410212  74.7154702
  65.9637422  72.7219015  76.3220323  65.4358783  71.9871775  76.0093560
  65.4624924  73.4993692  76.0760291  70.9430268  70.9168036  81.4387369
  70.2853942  71.6067297  81.5267498  71.7470667  71.3064468  81.7821355
  60.6956149  63.3838682  78.6826934  61.2699901  63.1613863  77.9500127
  61.2827132  63.4527376  79.4355536  69.7535727  69.2712408  79.4891311
  70.2667608  69.9042400  79.9913021  70.4036950  68.6713604  79.1234671
  62.9978817  60.2579930  77.4102004  62.3443229  59.9428948  76.7858619
  62.9559291  59.6355671  78.1361827  67.0158101  79.2496733  72.2451982
  66.3419800  79.5528429  72.8536940  67.4023923  80.0525813  71.8957439
  66.2316557  66.7461864  81.7349651  65.3139119  66.9676811  81.5771339
  66.6476701  66.8208174  80.8761359  67.0151605  68.1453280  76.8652332
  67.7623424  68.6574677  76.5559454  67.2843195  67.8237332  77.7256725
  65.2878255  70.6411820  73.8479286  64.3789475  70.3570853  73.9451756
  65.3173339  71.0610899  72.9882593  70.5197523  74.2518410  77.6170454
  70.0659850  73.4109320  77.6735644  69.8891489  74.8879808  77.9545234
  69.4630442  65.1810396  78.8471121  68.7253199  64.6687782  79.1781364
  69.7157216  64.7410778  78.0354398  68.9630462  76.0894907  78.5520272
  69.2553436  76.6499964  77.8332637  69.4729083  76.3823468  79.3073431
  69.5642070  57.9586648  79.4412890  69.8700946  57.0984011  79.1538805
  70.2894674  58.5504268  79.2411884  63.8363149  68.2540441  79.9489081
  63.8911759  67.3014277  79.8731558  63.0254351  68.4099880  80.4330380
  63.9264087  76.8675258  79.6413725  63.8840266  77.0936104  78.7122257
  64.8426786  76.6338632  79.7899526  67.3729721  67.3359325  86.5394354
  67.7279109  67.5630798  87.3988820  68.0201852  67.6677702  85.9171609
  73.1027458  70.4577761  77.2443683  72.9645356  70.6479357  76.3164872
  72.7463677  71.2197144  77.7011734  61.2669584  64.4435856  83.3240695
  61.9068963  64.3024615  82.6263658  60.4347115  64.1570370  82.9479297
  73.1296838  72.5254288  82.2554955  73.5633344  72.4329577  83.1038009
  73.8428418  72.5011789  81.6174971  62.0429888  73.7438287  79.4375688
  62.8370486  73.2488607  79.2358263  61.3321580  73.2156150  79.0743393
  66.8624732  76.1256382  83.7888055  66.9161755  76.6947319  84.5565771
  65.9939514  76.2958267  83.4242092  58.2698200  64.4136181  78.1013682
  58.5305018  65.3281514  77.9922842  59.0915373  63.9460624  78.2510295
  59.7423126  65.8273938  85.2712506  60.4146179  65.6191301  84.6225155
  58.9152912  65.6296024  84.8317739  73.9912387  72.5677989  84.7887840
  74.1848277  73.4723799  85.0347115  73.8913005  72.1085408  85.6226425
  65.6448698  62.4535879  87.2878167  64.9976613  63.1525829  87.1942644
  66.4149713  62.8872023  87.6554416  69.0527496  72.7184731  90.3628721
  68.9013002  72.4895283  89.4458804  69.0432175  73.6755333  90.3760066
  65.8212832  70.2916644  85.3474987  66.7504892  70.4427804  85.1743954
  65.4003862  70.3800665  84.4923634  64.6201164  74.3167309  83.1173525
  64.4812250  73.9486093  83.9899463  63.8315760  74.8314948  82.9457482
  65.2149316  79.4176405  74.4599061  65.3901072  78.9464448  75.2744684
  64.5282104  80.0442171  74.6880322  66.1706379  73.6948911  80.5062362
  65.8356212  73.6549681  81.4020012  65.6710325  73.0293627  80.0332773
  60.1450623  69.1016541  86.0314944  60.0070421  68.3696780  86.6326483
  61.0555547  69.0125441  85.7499131  62.7732924  68.8136501  85.5198623
  63.4832542  68.1729693  85.4785242  62.7302232  69.0649396  86.4424804
  70.7619702  75.7503854  88.4405202  70.7032249  75.0663074  87.7735785
  71.1639221  76.4922844  87.9885828  61.4861858  65.8001719  87.3394263
  60.9499215  65.3492457  87.9915859  60.8978566  65.9347627  86.5964727
  59.7810401  82.5665768  81.2338921  60.0206999  83.1984292  81.9117940
  58.9379598  82.2153808  81.5204281  70.7637110  73.7143438  86.6719182
  69.8763888  73.3769360  86.7945581  71.3335661  72.9826469  86.9087948
  57.2200979  64.9357726  84.4247257  57.1359168  64.3283396  83.6897667
  56.3983685  65.4266745  84.4256754  64.2938263  78.3744890  83.6380425
  64.2208435  79.1799862  84.1499730  63.8515656  78.5736856  82.8128447
  64.0828043  77.6116660  77.1483247  63.2995565  78.1538341  77.2421471
  64.7820788  78.1290640  77.5477488  67.3924693  63.4211290  79.7917452
  67.8893392  62.6681252  79.4718523  66.6211674  63.4575606  79.2260662
  75.2454450  69.1251655  81.4335744  75.2344326  70.0076371  81.0629677
  74.3771830  68.7723206  81.2390281  66.7536947  78.2731724  85.7938584
  67.4664919  78.9079189  85.7214485  66.2626975  78.3695590  84.9778586
  68.4754473  72.1782977  77.3655876  67.5410752  72.2984439  77.1960580
  68.6531142  71.2755444  77.1015886  63.9759662  65.5628673  79.5189137
  63.6057449  65.0099713  80.2070042  64.4718754  64.9586806  78.9664137
  71.8627025  68.0200296  77.9005910  72.3287477  68.8528288  77.8266212
  72.3134525  67.5545278  78.6051168  61.8048860  76.0226168  86.6144155
  62.5058320  76.6562651  86.7673549  61.3343975  76.3640899  85.8539794
  69.9303256  74.3644118  74.8992062  70.2063100  74.2500712  75.8085936
  69.0607755  73.9661602  74.8604235  69.8343688  60.3880883  81.9396811
  68.9206767  60.6185110  82.1079018  70.2636789  60.4719327  82.7910844
  69.6050146  68.5770775  84.4396705  68.9521596  68.8246683  83.7849158
  69.9830526  67.7634913  84.1059182  66.5657320  78.6130468  78.5424875
  66.7479714  77.7952124  79.0052628  67.3890306  78.8298161  78.1049765
  66.8999485  77.5398654  75.8039924  67.4287252  77.0291108  75.1910086
  67.1627705  77.2241184  76.6685457  65.6537719  69.3190586  90.9262742
  64.9778356  69.2184716  91.5965117  66.4765353  69.1629800  91.3898739
  57.4016578  75.5562523  83.5475258  57.9870015  74.8106211  83.6803162
  57.2041417  75.8666480  84.4311921  64.3960502  80.6257514  85.1620358
  64.9478810  80.7889135  85.9269443  64.7366695  81.2161952  84.4900383
  59.3724995  62.9732664  85.7642243  59.4366322  63.8347494  85.3519641
  59.3092115  62.3606665  85.0314601  58.8477268  65.0455796  89.4115277
  59.4749307  64.6632873  90.0252802  57.9905187  64.8269998  89.7770970
  69.2471376  75.4518771  91.0169013  69.7911280  76.0648730  90.5223967
  68.6658221  76.0098350  91.5336026  67.5328889  78.5739489  82.1484040
  67.4080029  77.7729229  81.6394986  68.1907980  79.0685683  81.6598010
  59.1537057  64.9288222  81.3261181  58.4323643  65.5424190  81.1868654
  59.9430313  65.4645987  81.2477827  69.5963798  76.3748509  83.7763591
  68.6494133  76.2553861  83.7041917  69.9446571  75.4871007  83.8589852
  61.9563371  62.2642648  87.6001832  62.4797773  62.5104945  88.3628142
  61.7375704  63.0962683  87.1804970  66.6010231  76.1701226  79.9767943
  66.4535193  75.2417933  80.1575513  67.4263724  76.1921316  79.4925018
  70.2044353  76.9929784  81.0632815  71.1290900  76.7872646  80.9257267
  70.0359656  76.7446185  81.9722157  63.1615916  63.2056343  85.2851503
  62.8212736  62.4064156  85.6872183  62.4554922  63.5058054  84.7128336
  63.8132388  60.2905656  83.7378826  64.6358457  59.8166134  83.6157716
  64.0570451  61.0696140  84.2377512  66.5971745  64.0239063  74.9700060
  66.8135360  64.9063701  74.6688888  66.1165812  63.6325277  74.2405702
  61.3370967  66.9824776  81.5470805  61.1915547  67.2965080  82.4395086
  60.8596170  67.6009677  80.9941703  63.1967350  63.9727324  81.5951694
  63.1828918  63.0768418  81.2583992  63.9139778  63.9797988  82.2289980
  65.0493480  64.4064665  83.6404822  64.7911258  65.3281735  83.6389152
  64.5178521  64.0095099  84.3305286  69.9939669  77.5115452  76.4194907
  70.1676547  76.9461874  75.6668759  70.4868560  78.3116347  76.2374397
  55.8116629  69.5230121  84.4858466  55.2670097  70.2989929  84.6178740
  56.6895979  69.8700925  84.3277587  62.6004245  62.8541705  76.8639264
  62.7220157  61.9258351  77.0630152  62.3106288  62.8680391  75.9517580
  65.4695436  60.5396615  80.0005984  65.4917133  60.6035948  79.0457964
  65.8863495  59.7001124  80.1946490  75.8479060  70.2751875  78.0385207
  76.2910206  69.5259200  77.6404330  74.9705570  70.2662011  77.6558939
  70.9814841  76.8282216  73.5191805  71.6765746  77.4488909  73.7379120
  71.3237992  75.9777567  73.7944183  56.5982651  68.6500017  87.3788623
  55.8564387  68.7982652  87.9653253  56.2775395  68.9108283  86.5155372
  72.8806265  74.2781922  75.0479136  73.4057589  74.6169194  74.3228456
  72.7928617  73.3428937  74.8642271  64.5426313  78.1915995  87.1769013
  64.8513440  77.9465142  88.0491712  65.3401795  78.3962634  86.6887883
  64.5646925  80.3453905  79.4074389  64.1251916  79.8530284  80.1007246
  65.3155042  79.8026873  79.1666464  62.0120798  75.8891914  81.4796691
  61.3900807  75.2262619  81.1798919  62.6825664  75.9153046  80.7970339
  62.0845325  64.3673702  91.0729197  62.1333480  65.2435825  90.6906966
  62.6267839  63.8251095  90.5000840  72.5700171  74.9114825  90.3530334
  71.7795714  74.8938964  89.8134833  72.3333525  75.4503119  91.1079371
  72.6898046  71.7607292  87.6663062  72.7396051  71.5957299  88.6078585
  72.5811969  70.8934551  87.2760943  69.9801808  67.7438220  88.9822369
  70.8811671  67.6044685  88.6906367  70.0549783  67.9092675  89.9220547
  64.3144613  65.1205075  87.8275556  63.4447923  65.4138641  87.5558144
  64.5504094  65.7045520  88.5482819  74.1916243  74.1804233  87.9105084
  73.9001051  74.5434214  88.7468545  73.5788374  73.4671242  87.7318416
  75.3911925  71.7457113  80.4307654  76.2258816  72.1846917  80.5945215
  75.5271054  71.2695766  79.6115900  72.4403431  69.3036848  86.3785142
  72.9157552  69.4964494  85.5703993  71.5168996  69.3596034  86.1328526
  67.0183647  61.3384691  85.3440976  67.5365591  62.0745718  85.0187464
  66.6638780  61.6448685  86.1787735  67.2696241  57.7584974  80.8641873
  67.5497995  57.0908163  81.4902299  68.0546848  57.9514070  80.3516536
  71.1405100  66.1802608  84.6113448  72.0922523  66.2800706  84.6325672
  70.9708550  65.3880877  85.1211532  69.1619479  63.2658191  84.7972849
  68.5669411  63.5463204  84.1019337  68.8769176  63.7552092  85.5689590
  68.2926970  77.2181118  73.5575481  69.2257643  77.1526680  73.7608357
  68.2050183  78.0537385  73.0990014  73.6193178  69.4008728  83.7255747
  73.5869498  68.4624728  83.9115431  74.2293801  69.4792764  82.9921572
  65.4576508  68.2704781  69.7682951  66.4035613  68.1410989  69.8371369
  65.0790753  67.5319443  70.2452379  73.7687666  66.1919771  83.7714030
  73.2526715  65.4078228  83.5843959  74.6527615  65.8638488  83.9360550
  71.4298393  59.9360787  79.7309843  71.2323214  59.6275875  80.6153175
  72.0398099  60.6622426  79.8607773  79.4369727  70.4624734  82.8661784
  80.1673116  70.2010023  83.4269487  78.8276673  69.7253456  82.9063852
  77.5185025  68.6032597  83.4636235  76.7918188  68.4688562  82.8552727
  77.1032311  68.9109426  84.2692953  65.3415201  72.3222527  91.2283608
  66.2618210  72.5001126  91.4223655  65.3064784  71.3778572  91.0763308
  58.3377274  70.2323561  83.8706389  58.5563283  71.1640669  83.8894423
  58.7503047  69.8731536  84.6561193  67.1872040  59.8169694  77.4806374
  67.7403078  60.2365147  78.1396398  67.4242126  58.8905442  77.5229330
  63.2105139  65.8056767  93.2609138  63.1101866  66.7551124  93.1921229
  62.9926681  65.4775006  92.3885208  70.5650847  61.9270219  76.9885039
  69.9849516  62.5855023  76.6063091  70.2986779  61.1047563  76.5772456
  69.0154413  61.3275276  79.1906359  69.5154191  61.4391811  78.3820678
  69.6590021  61.0236329  79.8307167  63.0736409  69.2353906  92.0774200
  62.5903491  70.0354266  92.2838089  63.1597348  69.2461851  91.1241644
  59.0009746  73.1258441  84.1142634  59.9553000  73.0942383  84.0472565
  58.8022270  72.6649064  84.9292860  59.5909128  71.6959557  86.6813431
  60.4102017  72.1903635  86.7048269  59.8645936  70.7791525  86.6530999
  69.3475725  64.0870309  76.0441387  68.4601580  64.3719960  75.8261582
  69.7629714  63.9264072  75.1968664  72.6990261  64.1116830  79.7595726
  73.4750651  64.6013282  80.0320343  71.9738395  64.5374884  80.2167596
  75.1362819  64.8244449  80.8169667  75.7307310  64.5840185  80.1062975
  75.2089403  64.1051580  81.4443203  57.3559975  78.6678060  81.1312832
  57.2214443  77.9078461  80.5650830  56.9392037  79.3918960  80.6641621
  69.3216748  69.6024845  76.2591677  69.2651950  70.0593396  75.4199310
  69.8745091  68.8415530  76.0814520  73.1321554  65.3914577  77.0841797
  72.8758489  64.9911213  77.9150004  72.5074422  66.1058371  76.9591936
  77.4433892  68.1310650  79.5913088  76.8833450  68.2003839  80.3644650
  76.8377396  67.9551635  78.8712584  60.5129101  79.5647377  81.3431274
  60.3961485  80.5092810  81.2409965  59.6921547  79.2620939  81.7317074
  70.0551528  70.7929626  73.5544206  70.0000332  70.6273898  72.6132650
  69.4297583  71.5005659  73.7106396  54.8444043  66.0297691  87.3805629
  55.4902906  65.5196645  87.8692854  54.6361194  66.7666372  87.9549054
  67.3697435  73.0978538  92.8797769  68.2388595  73.2719190  92.5184404
  66.8904186  73.9172955  92.7573498  61.5383615  80.2175639  84.5587203
  62.4410862  80.2499249  84.8753698  61.3120985  79.2876090  84.5733539
  63.2937217  78.9706626  81.2197281  62.3432848  78.9708487  81.1061654
  63.5969703  78.2239360  80.7033316  67.1799773  56.8880512  77.3875462
  66.4132168  56.3338999  77.5332144  67.5910478  56.9602381  78.2489613
  59.1841534  63.1765308  91.4780643  60.0472995  62.8202113  91.6883967
  58.6106944  62.8379203  92.1656047  79.0289911  84.8067164  82.2843044
  79.6668321  84.6873911  81.5806384  78.9110754  85.7548008  82.3430996
  75.8379617  84.7594592  82.2204568  75.4998128  84.6435657  81.3325103
  76.7069385  84.3585757  82.2005575  71.6966433  86.6130069  78.2101459
  71.1331298  86.5220006  77.4417747  71.5818828  85.7929973  78.6903952
  76.3199400  85.9129444  88.1790774  76.3088041  85.5182242  87.3071278
  76.4820039  85.1795517  88.7724545  69.2430865  88.1081260  81.0485680
  70.0352156  87.7672085  80.6331979  69.4827515  88.2176235  81.9687833
  77.2765991  90.2801036  73.5215924  76.6253971  90.8655117  73.1349938
  78.0710354  90.8107231  73.5810962  71.2021619  87.3690173  73.9203059
  71.9752495  86.8219161  73.7815934  71.5547017  88.2334423  74.1317520
  73.0406661  88.6966556  87.1269958  72.7496527  89.6012187  87.0116624
  73.6763645  88.7383083  87.8414028  73.9662868  86.0743404  83.7171318
  74.5626440  85.8499427  83.0028281  74.0237839  85.3328150  84.3196765
  73.5387896  83.5282840  71.5521509  73.7913417  83.0064361  70.7904972
  72.6012455  83.3648985  71.6548192  78.5831179  82.5318618  79.3596252
  79.3694268  82.1138041  79.0086669  78.8469883  83.4364710  79.5277900
  78.7541257  87.9691468  74.0584909  78.1187089  88.0426095  74.7705813
  78.4238663  88.5585067  73.3803988  83.9839606  82.4693851  80.2629230
  84.7164778  81.8993068  80.4967060  83.2278962  82.0815452  80.7035736
  73.2584185  85.4310946  73.7545884  73.1420443  84.7555849  74.4226968
  73.3686445  84.9443319  72.9378037  75.6015726  84.8921093  77.4592573
  75.2373933  84.3651714  78.1705494  76.4582842  84.5019562  77.2859058
  81.5065027  76.1815425  84.7223839  81.1748351  77.0510836  84.4985054
  80.9110640  75.8651709  85.4017869  75.2421213  79.9210992  72.4553921
  75.4095615  80.7891229  72.8224392  75.0518382  80.0838274  71.5315211
  77.9996546  88.3827971  84.1219752  77.6997269  89.2853010  84.0135559
  77.6547606  88.1160154  84.9740905  71.4509028  84.8341768  80.1556456
  70.5259524  84.7017982  80.3634148  71.6993441  85.6135987  80.6526398
  81.3993690  80.9010511  81.8017189  80.4910567  80.8325920  81.5075950
  81.3481286  81.3782456  82.6299014  75.2210434  82.3768650  73.4400588
  75.1010059  82.8225701  74.2786068  74.5263022  82.7253967  72.8814126
  68.8117839  84.4775042  80.9900245  68.9410220  84.7309521  81.9039657
  68.1315290  85.0702750  80.6704900  72.9817326  95.1472292  77.0890719
  72.9041356  96.0980117  77.1679200  72.3778970  94.8018164  77.7465646
  75.4734556  82.3200157  89.7452086  74.6967890  82.8794077  89.7354951
  76.1125119  82.8056940  90.2666956  83.2655336  79.1026950  83.5795063
  82.6229717  79.3959483  82.9334857  82.7610265  78.9879870  84.3848260
  80.9195500  82.8490123  74.2680922  81.8313356  83.0817510  74.0928620
  80.4105147  83.4327167  73.7056001  73.7280928  85.1285610  89.3070053
  74.4695612  85.6670654  89.0304877  73.0217914  85.7551899  89.4641605
  79.2036268  87.2714751  87.9042215  79.6119624  86.8297161  87.1596847
  78.4813529  86.6967378  88.1576408  75.5567338  82.2087358  85.2775772
  76.4028533  82.6326771  85.4210421  75.4965975  81.5520982  85.9714335
  79.5265082  87.8315941  81.6594504  78.8973945  87.9961656  80.9570571
  79.1390744  88.2457551  82.4305468  83.4054314  88.7670379  79.0138867
  82.7205352  89.1469281  78.4635901  83.4898164  89.3765706  79.7470815
  78.7066783  79.8691726  86.9356945  78.4627715  80.6233786  86.3991221
  78.9826714  80.2477074  87.7704192  80.6605246  86.4130338  85.6134211
  80.8722141  87.0562098  84.9368592  80.6134994  85.5792655  85.1456141
  78.2631475  79.0248159  82.5170783  77.4015954  79.3229413  82.8087521
  78.2893909  79.2418558  81.5851816  75.0793044  87.5690350  78.9244589
  75.5431390  87.8478053  78.1349211  74.8149842  86.6673794  78.7417679
  71.9717125  87.1161831  81.8624352  72.5418482  87.5449099  81.2241836
  72.5625237  86.8344416  82.5608538  74.0161930  83.6913502  75.7334154
  74.7185974  84.1434546  76.2008080  73.6842559  83.0497321  76.3614047
  72.4642292  82.2825259  90.1085363  71.8340952  82.9641539  90.3420760
  72.3578380  82.1708340  89.1638502  67.7587264  81.9497055  81.0351287
  66.9686318  82.2054583  80.5591398  68.2498512  82.7645392  81.1403328
  81.7751074  89.2902294  83.7856568  82.5968518  88.8882481  83.5039250
  81.7713477  89.1870528  84.7372684  69.7102010  82.3141634  77.9934764
  68.9133173  82.4260328  78.5118260  69.4827602  82.6528286  77.1275655
  75.5407677  88.8386337  85.9417279  75.6052110  89.3006744  86.7775451
  74.8318601  88.2083702  86.0699589  66.0424967  82.2027545  83.4666278
  66.2933006  83.0874555  83.7323854  66.5784516  82.0232147  82.6941370
  89.8657067  85.6341042  80.1341540  89.1120775  85.0648440  79.9785544
  90.0004608  85.6003707  81.0812174  75.2555695  90.5054445  75.8096259
  75.1201370  91.3505980  76.2381107  75.7965507  90.7073722  75.0462193
  71.7423035  76.5846024  92.4710614  71.3489980  76.0312223  93.1458259
  72.5589175  76.8956603  92.8617132  68.7085092  88.0229883  76.3824184
  69.2209613  88.8173133  76.5329749  69.3607805  87.3256173  76.3157786
  70.5179977  91.1395639  78.4646937  70.6946605  92.0613604  78.2767921
  71.3136810  90.8254058  78.8941317  74.6590996  78.0003903  90.0630871
  75.4000709  78.6011057  89.9835333  74.8908918  77.2581541  89.5048913
  69.8032334  83.1860271  88.3409101  69.6885849  82.2845528  88.6416199
  68.9476851  83.4323967  87.9893917  76.8824171  91.1278011  89.9396601
  76.4388025  90.3414390  89.6217506  77.5441385  91.3157162  89.2740492
  71.6411292  92.6573813  84.4657280  72.1918718  92.5290876  83.6934274
  70.8022768  92.9568702  84.1152172  78.9805409  91.4080811  87.9678002
  78.9623885  92.2289692  87.4758272  79.9025329  91.2834886  88.1928144
  75.4378463  88.9224940  88.8101511  75.9706800  88.1613229  88.5800819
  74.9092545  88.6298592  89.5525665  78.6048158  74.0285006  84.3395153
  78.2612428  74.9186648  84.2634263  78.9727121  73.8386664  83.4764738
  66.6734009  86.3518537  77.1583755  67.5109231  86.7615545  76.9417462
  66.8512277  85.4117979  77.1283949  78.5698441  84.0193617  72.8467588
  78.0545065  84.7898222  73.0855975  78.2975750  83.3458754  73.4700649
  76.1545552  78.8643318  77.9052826  75.2987149  78.4750169  77.7258465
  76.5672504  78.9435279  77.0452612  77.6844699  76.3989662  82.3044386
  77.1809494  76.3619797  81.4912191  77.9775306  77.3082404  82.3641042
  73.9287585  76.4828391  81.3110568  74.7940581  76.2871200  80.9516457
  73.9965094  76.2538743  82.2379924  83.5432715  86.7725972  74.7820761
  82.7662158  86.4337132  74.3375923  84.2224196  86.7778595  74.1075726
  78.3584744  81.8920710  74.6727369  78.0534880  82.2066859  75.5237512
  79.3115186  81.9702129  74.7154702  76.8031176  88.0510933  76.3220323
  76.2752538  87.3163692  76.0093560  76.3018679  88.8285609  76.0760291
  81.7824022  86.2459953  81.4387369  81.1247697  86.9359215  81.5267498
  82.5864421  86.6356385  81.7821355  71.5349904  78.7130599  78.6826934
  72.1093656  78.4905781  77.9500127  72.1220886  78.7819294  79.4355536
  80.5929481  84.6004326  79.4891311  81.1061363  85.2334318  79.9913021
  81.2430705  84.0005522  79.1234671  71.8619491  80.7435060  72.7022820
  71.0256803  81.0809747  73.0232094  71.7224261  80.6084040  71.7649957
  73.8372572  75.5871848  77.4102004  73.1836984  75.2720865  76.7858619
  73.7953046  74.9647589  78.1361827  74.9483776  85.8691143  69.3255296
  74.0410838  85.6380397  69.5246445  75.4454808  85.0728762  69.5129277
  77.8551855  94.5788650  72.2451982  77.1813554  94.8820347  72.8536940
  78.2417677  95.3817731  71.8957439  77.0710312  82.0753782  81.7349651
  76.1532873  82.2968729  81.5771339  77.4870455  82.1500092  80.8761359
  77.8545360  83.4745197  76.8652332  78.6017179  83.9866595  76.5559454
  78.1236949  83.1529250  77.7256725  76.1272010  85.9703738  73.8479286
  75.2183229  85.6862771  73.9451756  76.1567094  86.3902817  72.9882593
  81.3591277  89.5810328  77.6170454  80.9053604  88.7401237  77.6735644
  80.7285244  90.2171726  77.9545234  80.3024197  80.5102314  78.8471121
  79.5646954  79.9979700  79.1781364  80.5550970  80.0702695  78.0354398
  79.8024216  91.4186824  78.5520272  80.0947191  91.9791881  77.8332637
  80.3122837  91.7115385  79.3073431  80.4035824  73.2878566  79.4412890
  80.7094701  72.4275929  79.1538805  81.1288429  73.8796186  79.2411884
  66.6960180  83.6909252  77.8294488  66.4984580  83.0978613  77.1045555
  66.1406844  83.3861462  78.5470427  74.6756904  83.5832359  79.9489081
  74.7305514  82.6306195  79.8731558  73.8648106  83.7391798  80.4330380
  75.8248098  87.5112482  71.1867365  75.3867528  86.7948341  70.7273002
  76.5658538  87.7388597  70.6252456  72.6149264  82.2009418  77.7079460
  71.8017129  82.5003589  78.1144652  73.1108258  81.8065107  78.4253942
  74.7657842  92.1967175  79.6413725  74.7234020  92.4228022  78.7122257
  75.6820541  91.9630550  79.7899526  78.2123475  82.6651243  86.5394354
  78.5672863  82.8922716  87.3988820  78.8595607  82.9969620  85.9171609
  83.9421212  85.7869679  77.2443683  83.8039111  85.9771275  76.3164872
  83.5857431  86.5489062  77.7011734  72.1063339  79.7727774  83.3240695
  72.7462718  79.6316533  82.6263658  71.2740869  79.4862287  82.9479297
  83.9690592  87.8546206  82.2554955  84.4027099  87.7621495  83.1038009
  84.6822173  87.8303706  81.6174971  72.8823642  89.0730204  79.4375688
  73.6764241  88.5780524  79.2358263  72.1715335  88.5448067  79.0743393
  77.7018487  91.4548300  83.7888055  77.7555509  92.0239236  84.5565771
  76.8333268  91.6250185  83.4242092  69.1906406  83.2173286  75.5135440
  68.2603994  83.1557742  75.7305402  69.2863878  82.6949239  74.7172082
  69.1091955  79.7428099  78.1013682  69.3698772  80.6573432  77.9922842
  69.9309127  79.2752541  78.2510295  70.5816880  81.1565856  85.2712506
  71.2539934  80.9483218  84.6225155  69.7546667  80.9587942  84.8317739
  84.8306142  87.8969906  84.7887840  85.0242032  88.8015717  85.0347115
  84.7306760  87.4377325  85.6226425  76.4842452  77.7827797  87.2878167
  75.8370367  78.4817747  87.1942644  77.2543468  78.2163941  87.6554416
  76.6606587  85.6208562  85.3474987  77.5898647  85.7719722  85.1743954
  76.2397617  85.7092583  84.4923634  75.4594918  89.6459226  83.1173525
  75.3206004  89.2778011  83.9899463  74.6709515  90.1606866  82.9457482
  76.0543070  94.7468323  74.4599061  76.2294826  94.2756366  75.2744684
  75.3675858  95.3734089  74.6880322  77.0100134  89.0240829  80.5062362
  76.6749966  88.9841599  81.4020012  76.5104079  88.3585545  80.0332773
  70.9844378  84.4308459  86.0314944  70.8464175  83.6988698  86.6326483
  71.8949301  84.3417359  85.7499131  79.9459325  86.3696863  70.7799422
  79.3288496  85.6443692  70.6832475  79.4775814  87.1306224  70.4366496
  73.6126678  84.1428418  85.5198623  74.3226297  83.5021611  85.4785242
  73.5695986  84.3941313  86.4424804  72.3255612  81.1293636  87.3394263
  71.7892969  80.6784375  87.9915859  71.7372321  81.2639545  86.5964727
  70.6204156  97.8957686  81.2338921  70.8600754  98.5276210  81.9117940
  69.7773352  97.5445726  81.5204281  71.7357871  80.5882288  69.9020726
  70.8587337  80.4671088  69.5382973  72.2115624  79.7968366  69.6499615
  81.6030864  89.0435356  86.6719182  80.7157643  88.7061277  86.7945581
  82.1729415  88.3118387  86.9087948  63.2560011  85.3759447  79.9962234
  63.9431051  85.0621177  79.4083249  63.1008140  86.2800812  79.7229485
  68.0594733  80.2649644  84.4247257  67.9752922  79.6575314  83.6897667
  67.2377440  80.7558662  84.4256754  75.1332018  93.7036808  83.6380425
  75.0602189  94.5091779  84.1499730  74.6909411  93.9028774  82.8128447
  74.9221797  92.9408578  77.1483247  74.1389319  93.4830258  77.2421471
  75.6214542  93.4582558  77.5477488  78.2318447  78.7503207  79.7917452
  78.7287147  77.9973170  79.4718523  77.4605429  78.7867524  79.2260662
  86.0848205  84.4543573  81.4335744  86.0738081  85.3368288  81.0629677
  85.2165584  84.1015124  81.2390281  77.5930701  93.6023642  85.7938584
  78.3058673  94.2371107  85.7214485  77.1020730  93.6987508  84.9778586
  79.3148228  87.5074895  77.3655876  78.3804507  87.6276357  77.1960580
  79.4924896  86.6047361  77.1015886  74.8153416  80.8920590  79.5189137
  74.4451204  80.3391631  80.2070042  75.3112508  80.2878724  78.9664137
  82.7020779  83.3492214  77.9005910  83.1681232  84.1820206  77.8266212
  83.1528280  82.8837196  78.6051168  72.6442615  91.3518085  86.6144155
  73.3452074  91.9854568  86.7673549  72.1737730  91.6932817  85.8539794
  80.7697010  89.6936035  74.8992062  81.0456854  89.5792630  75.8085936
  79.9001509  89.2953520  74.8604235  80.6737442  75.7172801  81.9396811
  79.7600522  75.9477028  82.1079018  81.1030544  75.8011245  82.7910844
  80.4443901  83.9062693  84.4396705  79.7915351  84.1538600  83.7849158
  80.8224280  83.0926831  84.1059182  77.4051074  93.9422386  78.5424875
  77.5873469  93.1244042  79.0052628  78.2284060  94.1590078  78.1049765
  77.7393240  92.8690571  75.8039924  78.2681006  92.3583026  75.1910086
  78.0021460  92.5533101  76.6685457  76.4931474  84.6482504  90.9262742
  75.8172111  84.5476633  91.5965117  77.3159107  84.4921718  91.3898739
  68.2410333  90.8854441  83.5475258  68.8263769  90.1398128  83.6803162
  68.0435171  91.1958397  84.4311921  71.0948988  93.9205688  78.5637700
  70.4259363  94.4051816  78.0801740  70.9561858  94.1674908  79.4781078
  62.8327987  83.4560041  82.2679701  62.8712087  82.9223631  83.0616819
  62.3268280  82.9295246  81.6490678  75.2354256  95.9549431  85.1620358
  75.7872565  96.1181053  85.9269443  75.5760450  96.5453869  84.4900383
  70.2118750  78.3024581  85.7642243  70.2760076  79.1639412  85.3519641
  70.1485870  77.6898583  85.0314601  69.6871022  80.3747714  89.4115277
  70.3143061  79.9924791  90.0252802  68.8298941  80.1561916  89.7770970
  66.4636565  82.1824143  75.3433632  66.7590006  81.2734821  75.2900686
  65.5624601  82.1611882  75.0214634  78.3722644  93.9031407  82.1484040
  78.2473783  93.1021147  81.6394986  79.0301735  94.3977600  81.6598010
  69.9930812  80.2580139  81.3261181  69.2717398  80.8716107  81.1868654
  70.7824068  80.7937904  81.2477827  80.4357552  91.7040427  83.7763591
  79.4887888  91.5845778  83.7041917  80.7840325  90.8162925  83.8589852
  72.7957126  77.5934566  87.6001832  73.3191527  77.8396863  88.3628142
  72.5769459  78.4254601  87.1804970  68.1924407  79.8638241  75.4672957
  67.8637113  78.9835619  75.2848063  68.5463777  79.8085909  76.3549346
  77.4403985  91.4993143  79.9767943  77.2928948  90.5709851  80.1575513
  78.2657479  91.5213234  79.4925018  71.3066230  80.1511210  75.8348435
  71.6462302  80.6797132  75.1127043  71.7538350  80.4891616  76.6107001
  81.0438107  92.3221702  81.0632815  81.9684655  92.1164563  80.9257267
  80.8753411  92.0738103  81.9722157  74.0009671  78.5348261  85.2851503
  73.6606491  77.7356074  85.6872183  73.2948677  78.8349972  84.7128336
  74.6526142  75.6197573  83.7378826  75.4752212  75.1458052  83.6157716
  74.8964206  76.3988057  84.2377512  73.2934377  78.6485832  74.0341728
  74.0142739  79.0267085  73.5305444  72.6699681  79.3674709  74.1376706
  77.4365500  79.3530981  74.9700060  77.6529114  80.2355619  74.6688888
  76.9559567  78.9617194  74.2405702  72.1764721  82.3116694  81.5470805
  72.0309302  82.6256997  82.4395086  71.6989925  82.9301594  80.9941703
  74.0361104  79.3019242  81.5951694  74.0222673  78.4060335  81.2583992
  74.7533532  79.3089906  82.2289980  75.8887235  79.7356582  83.6404822
  75.6305013  80.6573653  83.6389152  75.3572275  79.3387017  84.3305286
  80.8333423  92.8407369  76.4194907  81.0070301  92.2753792  75.6668759
  81.3262315  93.6408264  76.2374397  66.6510383  84.8522039  84.4858466
  66.1063851  85.6281847  84.6178740  67.5289733  85.1992843  84.3277587
  73.4398000  78.1833622  76.8639264  73.5613911  77.2550269  77.0630152
  73.1500042  78.1972308  75.9517580  76.3089190  75.8688533  80.0005984
  76.3310887  75.9327866  79.0457964  76.7257249  75.0293041  80.1946490
  86.6872815  85.6043792  78.0385207  87.1303961  84.8551118  77.6404330
  85.8099325  85.5953929  77.6558939  81.8208596  92.1574134  73.5191805
  82.5159501  92.7780827  73.7379120  82.1631746  91.3069485  73.7944183
  67.4376405  83.9791935  87.3788623  66.6958141  84.1274570  87.9653253
  67.1169149  84.2400200  86.5155372  83.7200019  89.6073839  75.0479136
  84.2451343  89.9461112  74.3228456  83.6322372  88.6720855  74.8642271
  75.3820068  93.5207913  87.1769013  75.6907194  93.2757060  88.0491712
  76.1795550  93.7254551  86.6887883  75.4040680  95.6745823  79.4074389
  74.9645670  95.1822201  80.1007246  76.1548797  95.1318790  79.1666464
  67.8833019  91.8657364  79.4099017  68.7091039  91.5661135  79.0297661
  67.5327071  91.0964986  79.8588806  72.8514552  91.2183832  81.4796691
  72.2294561  90.5554537  81.1798919  73.5219419  91.2444964  80.7970339
  66.0841624  89.7843690  80.3687951  65.2473532  89.3565864  80.1871952
  66.0565269  89.9776133  81.3058742  72.9239079  79.6965620  91.0729197
  72.9727235  80.5727743  90.6906966  73.4661594  79.1543013  90.5000840
  83.5291800  87.0899209  87.6663062  83.5789805  86.9249217  88.6078585
  83.4205724  86.2226468  87.2760943  72.4128059  89.7687755  74.9555151
  72.5616179  90.4523219  74.3021824  73.2194502  89.7492845  75.4704607
  80.8195563  83.0730137  88.9822369  81.7205425  82.9336602  88.6906367
  80.8943537  83.2384592  89.9220547  75.1538368  80.4496992  87.8275556
  74.2841677  80.7430558  87.5558144  75.3897848  81.0337437  88.5482819
  86.2305679  87.0749031  80.4307654  87.0652571  87.5138835  80.5945215
  86.3664808  86.5987684  79.6115900  83.2797185  84.6328766  86.3785142
  83.7551307  84.8256412  85.5703993  82.3562751  84.6887951  86.1328526
  70.1680692  85.7952933  75.9616220  69.9226734  84.8915263  76.1596430
  70.3376606  85.7970083  75.0195698  77.8577402  76.6676609  85.3440976
  78.3759346  77.4037636  85.0187464  77.5032535  76.9740602  86.1787735
  69.4376339  81.5281290  73.4602382  68.7445584  81.6025645  72.8042418
  69.1928091  80.7641634  73.9823899  78.1089996  73.0876892  80.8641873
  78.3891750  72.4200081  81.4902299  78.8940603  73.2805987  80.3516536
  75.9123464  92.2635886  72.4266899  75.3397432  92.8826073  71.9737371
  76.4856258  92.8135247  72.9606821  81.9798854  81.5094526  84.6113448
  82.9316277  81.6092623  84.6325672  81.8102305  80.7172794  85.1211532
  80.0013234  78.5950109  84.7972849  79.4063166  78.8755122  84.1019337
  79.7162930  79.0844010  85.5689590  79.1320724  92.5473036  73.5575481
  80.0651397  92.4818597  73.7608357  79.0443937  93.3829303  73.0990014
  81.7608741  91.8638906  70.5179429  81.6822372  91.5298770  71.4115187
  82.5818408  92.3560674  70.5170901  84.4586932  84.7300645  83.7255747
  84.4263252  83.7916646  83.9115431  85.0687556  84.8084682  82.9921572
  76.2970263  83.5996698  69.7682951  77.2429368  83.4702906  69.8371369
  75.9184508  82.8611360  70.2452379  84.6081421  81.5211689  83.7714030
  84.0920469  80.7370145  83.5843959  85.4921369  81.1930405  83.9360550
  82.2692147  75.2652704  79.7309843  82.0716969  74.9567793  80.6153175
  82.8791853  75.9914343  79.8607773  90.2763482  85.7916652  82.8661784
  91.0066870  85.5301940  83.4269487  89.6670427  85.0545374  82.9063852
  88.3578779  83.9324515  83.4636235  87.6311943  83.7980480  82.8552727
  87.9426066  84.2401343  84.2692953  76.1808955  87.6514444  91.2283608
  77.1011965  87.8293043  91.4223655  76.1458538  86.7070490  91.0763308
  74.4813180  81.5246675  69.7037837  73.5744635  81.2279787  69.7800550
  74.7589161  81.2276493  68.8372123  65.3991120  82.8453038  80.1536883
  65.0793905  81.9918346  79.8611257  64.8524549  83.0601616  80.9094850
  69.1771028  85.5615479  83.8706389  69.3957038  86.4932587  83.8894423
  69.5896802  85.2023453  84.6561193  76.0975246  76.0683564  75.8582078
  75.2875974  75.7230649  76.2337324  76.7859663  75.7591108  76.4469689
  78.0265794  75.1461611  77.4806374  78.5796833  75.5657065  78.1396398
  78.2635880  74.2197359  77.5229330  74.0498893  81.1348685  93.2609138
  73.9495620  82.0843042  93.1921229  73.8320435  80.8066924  92.3885208
  73.2511965  78.3833610  69.8449816  74.1131129  78.7088508  70.1045633
  73.4362309  77.5965106  69.3322882  65.2679380  86.4655950  82.1230005
  64.5742852  86.0509902  81.6099959  66.0152371  86.5076486  81.5263423
  81.4044601  77.2562136  76.9885039  80.8243270  77.9146940  76.6063091
  81.1380534  76.4339481  76.5772456  79.8548168  76.6567194  79.1906359
  80.3547946  76.7683729  78.3820678  80.4983775  76.3528247  79.8307167
  73.9130163  84.5645824  92.0774200  73.4297245  85.3646184  92.2838089
  73.9991102  84.5753769  91.1241644  67.1816123  86.3974203  79.9996019
  67.1586811  86.4961891  79.0477902  67.4916759  87.2439354  80.3213186
  69.8403501  88.4550358  84.1142634  70.7946754  88.4234301  84.0472565
  69.6416024  87.9940982  84.9292860  70.4302883  87.0251474  86.6813431
  71.2495772  87.5195553  86.7048269  70.7039691  86.1083443  86.6530999
  80.1869479  79.4162227  76.0441387  79.2995334  79.7011877  75.8261582
  80.6023468  79.2555990  75.1968664  83.5384015  79.4408748  79.7595726
  84.3144405  79.9305200  80.0320343  82.8132149  79.8666802  80.2167596
  85.9756574  80.1536367  80.8169667  86.5701065  79.9132103  80.1062975
  86.0483158  79.4343498  81.4443203  68.1953730  93.9969978  81.1312832
  68.0608198  93.2370379  80.5650830  67.7785792  94.7210878  80.6641621
  79.3312693  89.1806901  70.1389407  80.0348543  89.3856904  70.7547063
  78.6075341  89.7483663  70.4038490  80.1610503  84.9316763  76.2591677
  80.1045704  85.3885314  75.4199310  80.7138845  84.1707447  76.0814520
  83.9715309  80.7206495  77.0841797  83.7152243  80.3203130  77.9150004
  83.3468177  81.4350288  76.9591936  88.2827647  83.4602568  79.5913088
  87.7227205  83.5295757  80.3644650  87.6771150  83.2843552  78.8712584
  71.3522856  94.8939295  81.3431274  71.2355240  95.8384727  81.2409965
  70.5315302  94.5912856  81.7317074  81.2399390  89.6189431  72.1887867
  82.0744994  89.1870629  72.0065342  81.0783733  89.4471444  73.1164762
  80.8945282  86.1221544  73.5544206  80.8394086  85.9565815  72.6132650
  80.2691338  86.8297577  73.7106396  65.6837797  81.3589608  87.3805629
  66.3296661  80.8488562  87.8692854  65.4754948  82.0958290  87.9549054
  74.2041408  75.6229653  73.1329525  74.1920078  76.5671493  73.2897796
  75.0964830  75.4399798  72.8388986  72.3777370  95.5467557  84.5587203
  73.2804616  95.5791167  84.8753698  72.1514740  94.6168008  84.5733539
  74.1330972  94.2998543  81.2197281  73.1826603  94.3000405  81.1061654
  74.4363458  93.5531278  80.7033316  78.0193527  72.2172430  77.3875462
  77.2525923  71.6630916  77.5332144  78.4304232  72.2894298  78.2489613
  70.0235288  78.5057225  91.4780643  70.8866750  78.1494030  91.6883967
  69.4500699  78.1671120  92.1656047  82.5360187 101.9421986  78.2101459
  81.9725052 101.8511923  77.4417747  82.4212582 101.1221891  78.6903952
  88.1159746 105.6092954  73.5215924  87.4647726 106.1947034  73.1349938
  88.9104109 106.1399149  73.5810962  82.0415373 102.6982091  73.9203059
  82.8146249 102.1511078  73.7815934  82.3940772 103.5626340  74.1317520
  84.3781651  98.8574757  71.5521509  84.6307172  98.3356278  70.7904972
  83.4406210  98.6940903  71.6548192  89.4224934  97.8610536  79.3596252
  90.2088023  97.4429959  79.0086669  89.6863638  98.7656628  79.5277900
  89.5935011 103.2983386  74.0584909  88.9580844 103.3718012  74.7705813
  89.2632417 103.8876985  73.3803988  84.0977940 100.7602863  73.7545884
  83.9814198 100.0847767  74.4226968  84.2080199 100.2735237  72.9378037
  86.4409480 100.2213010  77.4592573  86.0767688  99.6943631  78.1705494
  87.2976596  99.8311479  77.2859058  86.0814967  95.2502910  72.4553921
  86.2489370  96.1183146  72.8224392  85.8912137  95.4130192  71.5315211
  82.2902782 100.1633686  80.1556456  81.3653279 100.0309900  80.3634148
  82.5387195 100.9427905  80.6526398  86.0604188  97.7060567  73.4400588
  85.9403814  98.1517618  74.2786068  85.3656777  98.0545885  72.8814126
  79.6511593  99.8066959  80.9900245  79.7803974 100.0601438  81.9039657
  78.9709044 100.3994667  80.6704900  91.7589255  98.1782041  74.2680922
  92.6707111  98.4109427  74.0928620  91.2498902  98.7619085  73.7056001
  89.1025229  94.3540077  82.5170783  88.2409708  94.6521330  82.8087521
  89.1287664  94.5710476  81.5851816  85.9186799 102.8982267  78.9244589
  86.3825144 103.1769970  78.1349211  85.6543597 101.9965712  78.7417679
  84.8555685  99.0205420  75.7334154  85.5579728  99.4726463  76.2008080
  84.5236313  98.3789238  76.3614047  78.5981019  97.2788972  81.0351287
  77.8080073  97.5346501  80.5591398  79.0892266  98.0937310  81.1403328
  80.5495764  97.6433551  77.9934764  79.7526927  97.7552246  78.5118260
  80.3221356  97.9820204  77.1275655  76.8818722  97.5319463  83.4666278
  77.1326760  98.4166473  83.7323854  77.4178270  97.3524064  82.6941370
  86.0949449 105.8346362  75.8096259  85.9595124 106.6797898  76.2381107
  86.6359262 106.0365640  75.0462193  79.5478847 103.3521800  76.3824184
  80.0603367 104.1465050  76.5329749  80.2001560 102.6548091  76.3157786
  81.3573731 106.4687557  78.4646937  81.5340360 107.3905521  78.2767921
  82.1530565 106.1545976  78.8941317  89.4441913  89.3576924  84.3395153
  89.1006182  90.2478566  84.2634263  89.8120876  89.1678582  83.4764738
  77.5127764 101.6810455  77.1583755  78.3502986 102.0907463  76.9417462
  77.6906031 100.7409897  77.1283949  89.4092196  99.3485535  72.8467588
  88.8938819 100.1190140  73.0855975  89.1369504  98.6750671  73.4700649
  86.9939307  94.1935236  77.9052826  86.1380903  93.8042086  77.7258465
  87.4066258  94.2727197  77.0452612  88.5238453  91.7281579  82.3044386
  88.0203249  91.6911714  81.4912191  88.8169060  92.6374322  82.3641042
  84.7681339  91.8120309  81.3110568  85.6334336  91.6163118  80.9516457
  84.8358848  91.5830661  82.2379924  89.1978499  97.2212627  74.6727369
  88.8928634  97.5358776  75.5237512  90.1508941  97.2994047  74.7154702
  87.6424931 103.3802851  76.3220323  87.1146292 102.6455610  76.0093560
  87.1412433 104.1577527  76.0760291  82.3743658  94.0422517  78.6826934
  82.9487410  93.8197698  77.9500127  82.9614641  94.1111211  79.4355536
  82.7013245  96.0726978  72.7022820  81.8650558  96.4101664  73.0232094
  82.5618015  95.9375958  71.7649957  84.6766326  90.9163766  77.4102004
  84.0230738  90.6012783  76.7858619  84.6346800  90.2939506  78.1361827
  85.7877531 101.1983061  69.3255296  84.8804593 100.9672314  69.5246445
  86.2848563 100.4020680  69.5129277  87.9104066  97.4045699  81.7349651
  86.9926628  97.6260646  81.5771339  88.3264210  97.4792010  80.8761359
  88.6939114  98.8037115  76.8652332  89.4410933  99.3158512  76.5559454
  88.9630704  98.4821168  77.7256725  86.9665764 101.2995656  73.8479286
  86.0576984 101.0154689  73.9451756  86.9960848 101.7194734  72.9882593
  91.1417951  95.8394231  78.8471121  90.4040708  95.3271617  79.1781364
  91.3944725  95.3994613  78.0354398  91.2429579  88.6170483  79.4412890
  91.5488455  87.7567847  79.1538805  91.9682183  89.2088103  79.2411884
  77.5353935  99.0201170  77.8294488  77.3378334  98.4270531  77.1045555
  76.9800599  98.7153380  78.5470427  85.5150658  98.9124276  79.9489081
  85.5699268  97.9598113  79.8731558  84.7041860  99.0683715  80.4330380
  86.6641852 102.8404399  71.1867365  86.2261282 102.1240258  70.7273002
  87.4052293 103.0680514  70.6252456  83.4543018  97.5301336  77.7079460
  82.6410884  97.8295507  78.1144652  83.9502012  97.1357025  78.4253942
  82.9457093  95.1019692  83.3240695  83.5856472  94.9608451  82.6263658
  82.1134624  94.8154205  82.9479297  83.7217397 104.4022122  79.4375688
  84.5157995 103.9072442  79.2358263  83.0109089 103.8739985  79.0743393
  80.0300160  98.5465204  75.5135440  79.0997748  98.4849659  75.7305402
  80.1257632  98.0241157  74.7172082  79.9485709  95.0720017  78.1013682
  80.2092527  95.9865350  77.9922842  80.7702882  94.6044459  78.2510295
  90.7853080 101.6988781  70.7799422  90.1682250 100.9735609  70.6832475
  90.3169568 102.4598141  70.4366496  82.5751626  95.9174205  69.9020726
  81.6981092  95.7963006  69.5382973  83.0509379  95.1260284  69.6499615
  74.0953766 100.7051365  79.9962234  74.7824806 100.3913095  79.4083249
  73.9401894 101.6092730  79.7229485  78.8988488  95.5941562  84.4247257
  78.8146677  94.9867231  83.6897667  78.0771194  96.0850580  84.4256754
  89.0712202  94.0795125  79.7917452  89.5680901  93.3265087  79.4718523
  88.2999183  94.1159442  79.2260662  90.1541982 102.8366812  77.3655876
  89.2198261 102.9568275  77.1960580  90.3318651 101.9339279  77.1015886
  85.6547171  96.2212508  79.5189137  85.2844958  95.6683549  80.2070042
  86.1506263  95.6170642  78.9664137  93.5414534  98.6784132  77.9005910
  94.0074986  99.5112123  77.8266212  93.9922034  98.2129113  78.6051168
  91.5131197  91.0464719  81.9396811  90.5994276  91.2768945  82.1079018
  91.9424298  91.1303163  82.7910844  73.6721742  98.7851958  82.2679701
  73.7105841  98.2515549  83.0616819  73.1662035  98.2587164  81.6490678
  81.0512504  93.6316499  85.7642243  81.1153831  94.4931330  85.3519641
  80.9879624  93.0190501  85.0314601  77.3030319  97.5116061  75.3433632
  77.5983761  96.6026739  75.2900686  76.4018355  97.4903800  75.0214634
  80.8324566  95.5872057  81.3261181  80.1111152  96.2008025  81.1868654
  81.6217822  96.1229822  81.2477827  79.0318161  95.1930158  75.4672957
  78.7030867  94.3127537  75.2848063  79.3857532  95.1377827  76.3549346
  82.1459984  95.4803128  75.8348435  82.4856057  96.0089049  75.1127043
  82.5932105  95.8183534  76.6107001  85.4919897  90.9489491  83.7378826
  86.3145966  90.4749969  83.6157716  85.7357960  91.7279975  84.2377512
  84.1328131  93.9777750  74.0341728  84.8536494  94.3559002  73.5305444
  83.5093435  94.6966626  74.1376706  88.2759254  94.6822899  74.9700060
  88.4922869  95.5647536  74.6688888  87.7953321  94.2909112  74.2405702
  83.0158476  97.6408612  81.5470805  82.8703056  97.9548915  82.4395086
  82.5383679  98.2593512  80.9941703  84.8754858  94.6311160  81.5951694
  84.8616427  93.7352253  81.2583992  85.5927287  94.6381824  82.2289980
  84.2791754  93.5125540  76.8639264  84.4007666  92.5842186  77.0630152
  83.9893797  93.5264226  75.9517580  87.1482945  91.1980451  80.0005984
  87.1704642  91.2619784  79.0457964  87.5651004  90.3584959  80.1946490
  78.7226773 107.1949281  79.4099017  79.5484793 106.8953053  79.0297661
  78.3720825 106.4256904  79.8588806  76.9235378 105.1135608  80.3687951
  76.0867287 104.6857782  80.1871952  76.8959024 105.3068051  81.3058742
  83.2521813 105.0979673  74.9555151  83.4009934 105.7815137  74.3021824
  84.0588257 105.0784763  75.4704607  81.0074446 101.1244850  75.9616220
  80.7620488 100.2207180  76.1596430  81.1770361 101.1262001  75.0195698
  80.2770094  96.8573208  73.4602382  79.5839339  96.9317563  72.8042418
  80.0321846  96.0933552  73.9823899  88.9483750  88.4168809  80.8641873
  89.2285504  87.7491998  81.4902299  89.7334357  88.6097905  80.3516536
  87.1364017  98.9288616  69.7682951  88.0823122  98.7994824  69.8371369
  86.7578262  98.1903278  70.2452379  93.1085902  90.5944622  79.7309843
  92.9110723  90.2859710  80.6153175  93.7185608  91.3206261  79.8607773
  85.3206935  96.8538592  69.7037837  84.4138390  96.5571705  69.7800550
  85.5982916  96.5568410  68.8372123  76.2384875  98.1744956  80.1536883
  75.9187659  97.3210264  79.8611257  75.6918303  98.3893534  80.9094850
  86.9369000  91.3975482  75.8582078  86.1269729  91.0522567  76.2337324
  87.6253417  91.0883026  76.4469689  88.8659549  90.4753529  77.4806374
  89.4190587  90.8948982  78.1396398  89.1029635  89.5489277  77.5229330
  84.0905719  93.7125528  69.8449816  84.9524883  94.0380426  70.1045633
  84.2756063  92.9257023  69.3322882  76.1073135 101.7947867  82.1230005
  75.4136606 101.3801820  81.6099959  76.8546126 101.8368404  81.5263423
  92.2438356  92.5854054  76.9885039  91.6637025  93.2438858  76.6063091
  91.9774288  91.7631399  76.5772456  78.0209877 101.7266121  79.9996019
  77.9980566 101.8253808  79.0477902  78.3310514 102.5731272  80.3213186
  91.0263234  94.7454144  76.0441387  90.1389089  95.0303795  75.8261582
  91.4417223  94.5847908  75.1968664  94.3777770  94.7700665  79.7595726
  95.1538160  95.2597118  80.0320343  93.6525904  95.1958720  80.2167596
  90.1706447 104.5098819  70.1389407  90.8742297 104.7148822  70.7547063
  89.4469096 105.0775581  70.4038490  91.0004257 100.2608680  76.2591677
  90.9439459 100.7177232  75.4199310  91.5532600  99.4999365  76.0814520
  94.8109063  96.0498412  77.0841797  94.5545998  95.6495048  77.9150004
  94.1861931  96.7642206  76.9591936  91.7339037 101.4513462  73.5544206
  91.6787841 101.2857733  72.6132650  91.1085092 102.1589495  73.7106396
  85.0435162  90.9521571  73.1329525  85.0313832  91.8963411  73.2897796
  85.9358584  90.7691716  72.8388986  88.8587282  87.5464347  77.3875462
  88.0919677  86.9922834  77.5332144  89.2697987  87.6186216  78.2489613
  35.6714894   0.4961616  69.0088350  36.3093304   0.3768363  68.3051690
  35.5535737   1.4442460  69.0676303  32.4804600   0.4489044  68.9449875
  32.1423112   0.3330109  68.0570410  33.3494368   0.0480209  68.9250881
  28.3391416   2.3024520  64.9346766  27.7756281   2.2114457  64.1663054
  28.2243811   1.4824425  65.4149259  32.9624383   1.6023896  74.9036081
  32.9513024   1.2076694  74.0316584  33.1245023   0.8689968  75.4969852
  25.8855848   3.7975712  67.7730987  26.6777140   3.4566537  67.3577286
  26.1252498   3.9070687  68.6933140  33.9190975   5.9695488  60.2461231
  33.2678954   6.5549569  59.8595245  34.7135337   6.5001683  60.3056268
  27.8446602   3.0584625  60.6448365  28.6177478   2.5113612  60.5061241
  28.1972001   3.9228875  60.8562827  29.6831644   4.3861008  73.8515265
  29.3921510   5.2906638  73.7361931  30.3188629   4.4277535  74.5659334
  30.6087851   1.7637856  70.4416624  31.2051423   1.5393879  69.7273587
  30.6662823   1.0222602  71.0442072  30.1812880  -0.7822709  58.2766815
  30.4338400  -1.3041187  57.5150278  29.2437439  -0.9456563  58.3793499
  35.2256162  -1.7786930  66.0841558  36.0119252  -2.1967507  65.7331975
  35.4894867  -0.8740838  66.2523207  35.3966240   3.6585920  60.7830215
  34.7612073   3.7320547  61.4951120  35.0663646   4.2479519  60.1049295
  40.6264590  -1.8411697  66.9874537  41.3589762  -2.4112480  67.2212366
  39.8703945  -2.2290097  67.4281043  29.9009168   1.1205397  60.4791190
  29.7845426   0.4450301  61.1472274  30.0111428   0.6337771  59.6623343
  32.2440709   0.5815544  64.1837879  31.8798917   0.0546165  64.8950801
  33.1007825   0.1914014  64.0104365  38.1490010  -8.1290123  71.4469146
  37.8173335  -7.2594712  71.2230361  37.5535623  -8.4453839  72.1263176
  31.8846196  -4.3894556  59.1799228  32.0520599  -3.5214319  59.5469699
  31.6943365  -4.2267274  58.2560517  34.6421529   4.0722423  70.8465058
  34.3422253   4.9747462  70.7380866  34.2972589   3.8054606  71.6986211
  28.0934011   0.5236220  66.8801763  27.1684507   0.3912434  67.0879454
  28.3418424   1.3030439  67.3771705  38.0418673  -3.4095037  68.5262496
  37.1335551  -3.4779628  68.2321257  37.9906269  -2.9323092  69.3544321
  31.8635417  -1.9336898  60.1645895  31.7435042  -1.4879848  61.0031375
  31.1688006  -1.5851581  59.6059433  25.4542822   0.1669493  67.7145552
  25.5835203   0.4203972  68.6284964  24.7740273   0.7597201  67.3950207
  29.6242309  10.8366743  63.8136026  29.5466339  11.7874569  63.8924507
  29.0203953  10.4912616  64.4710952  32.1159539  -1.9905391  76.4697393
  31.3392873  -1.4311471  76.4600258  32.7550102  -1.5048608  76.9912263
  39.9080320  -5.2078598  70.3040370  39.2654700  -4.9146065  69.6580164
  39.4035248  -5.3225678  71.1093566  37.5620483  -1.4615425  60.9926229
  38.4738339  -1.2288038  60.8173926  37.0530130  -0.8778381  60.4301307
  30.3705911   0.8180062  76.0315360  31.1120596   1.3565106  75.7550184
  29.6642897   1.4446351  76.1886912  35.8461251   2.9609203  74.6287521
  36.2544607   2.5191613  73.8842154  35.1238512   2.3861830  74.8821714
  32.1992321  -2.1018191  72.0021078  33.0453516  -1.6778777  72.1455727
  32.1390959  -2.7584566  72.6959641  36.1690066   3.5210393  68.3839810
  35.5398928   3.6856107  67.6815878  35.7815728   3.9352003  69.1550774
  40.0479298   4.4564831  65.7384174  39.3630336   4.8363733  65.1881207
  40.1323147   5.0660158  66.4716122  35.3491766  -4.4413822  73.6602252
  35.1052698  -3.6871762  73.1236528  35.6251697  -4.0628475  74.4949499
  37.3030229   2.1024790  72.3379518  37.5147124   2.7456550  71.6613899
  37.2559977   1.2687107  71.8701448  34.9056458  -5.2857389  69.2416090
  34.0440937  -4.9876136  69.5332827  34.9318893  -5.0686990  68.3097122
  31.7218027   3.2584801  65.6489895  32.1856373   3.5372504  64.8594518
  31.4574826   2.3568246  65.4662986  28.6142109   2.8056283  68.5869659
  29.1843466   3.2343551  67.9487143  29.2050220   2.5238868  69.2853844
  30.6586914  -0.6192046  62.4579461  31.3610957  -0.1671003  62.9253387
  30.3267542  -1.2608227  63.0859354  29.1067275  -2.0280290  76.8330670
  28.4765936  -1.3464009  77.0666067  29.0003363  -2.1397208  75.8883808
  38.4176057   4.9796746  70.5101875  39.2393501   4.5776933  70.2284557
  38.4138460   4.8764980  71.4617991  32.1832661   4.5280789  72.6662585
  32.2477093   4.9901196  73.5020757  31.4743584   3.8978154  72.7944895
  46.5082050   1.3235494  66.8586846  45.7545759   0.7542892  66.7030851
  46.6429591   1.2898159  67.8057481  31.8980678   6.1948896  62.5341566
  31.7626353   7.0400432  62.9626414  32.4390491   6.3968174  61.7707500
  25.3510076   3.7124334  63.1069491  25.8634596   4.5067585  63.2575055
  26.0032788   3.0150625  63.0403092  27.1604960   6.8290091  65.1892244
  27.3371589   7.7508055  65.0013228  27.9561794   6.5148510  65.6186624
  26.4457317  -1.1245277  75.0654407  26.3310832  -2.0260020  75.3661506
  25.5901835  -0.8781581  74.7139224  33.5249155   6.8172463  76.6641908
  33.0813009   6.0308841  76.3462812  34.1866368   7.0051613  75.9985799
  28.2836276   8.3468264  71.1902586  28.8343701   8.2185328  70.4179580
  27.4447752   8.6463154  70.8397479  35.6230393   7.0975263  74.6923309
  35.6048868   7.9184144  74.2003578  36.5450313   6.9729338  74.9173450
  32.0803447   4.6119392  75.5346817  32.6131784   3.8507681  75.3046125
  31.5517528   4.3193044  76.2770972  23.3158992   2.0412989  63.8829061
  24.1534214   2.4509997  63.6662769  23.4937260   1.1012431  63.8529255
  35.2123424  -0.2911931  59.5712894  34.6970048   0.4792674  59.8101282
  34.9400733  -0.9646794  60.1945956  32.7970535  -5.4462230  64.6298133
  31.9412132  -5.8355379  64.4503771  33.2097487  -5.3670269  63.7697918
  40.1857699   2.4620424  61.5066068  39.4087141   2.1231584  61.0621230
  40.8649180   2.4673047  60.8321033  35.0009728  -2.4184839  61.3972675
  34.6959863  -2.1038689  62.2482819  35.9540170  -2.3403419  61.4400008
  33.4456159   3.7405385  63.0465629  32.9177521   3.0058144  62.7338867
  32.9443662   4.5180061  62.8005598  38.4249006   1.9354405  68.1632676
  37.7672680   2.6253667  68.2512804  39.2289405   2.3250837  68.5066662
  37.2354464   0.2898778  66.2136618  37.7486346   0.9228770  66.7158327
  37.8855688  -0.3100027  65.8479978  31.5908760   1.5585595  56.0500602
  30.6835821   1.3274849  56.2491751  32.0879792   0.7623214  56.2374584
  34.4976839  10.2683102  58.9697289  33.8238537  10.5714799  59.5782246
  34.8842661  11.0712183  58.6202746  33.7135295  -2.2351766  68.4594958
  32.7957857  -2.0136819  68.3016646  34.1295439  -2.1605456  67.6006665
  34.4970343  -0.8360351  63.5897638  35.2442162  -0.3238954  63.2804760
  34.7661932  -1.1576298  64.4502032  32.7696993   1.6598190  60.5724593
  31.8608212   1.3757223  60.6697062  32.7992077   2.0797268  59.7127899
  38.0016261   5.2704779  64.3415760  37.5478588   4.4295689  64.3980951
  37.3710227   5.9066178  64.6790540  36.9449180  -3.8003235  65.5716428
  36.2071937  -4.3125848  65.9026670  37.1975954  -4.2402853  64.7599704
  36.4449200   7.1081276  65.2765578  36.7372174   7.6686333  64.5577944
  36.9547820   7.4009837  66.0318737  31.3181887  -0.7273189  66.6734388
  31.3730497  -1.6799353  66.5976865  30.5073089  -0.5713750  67.1575686
  32.4673081   3.2006934  57.9112671  32.0292511   2.4842793  57.4518309
  33.2083522   3.4283048  57.3497763  29.2574247  -2.1096130  64.4324767
  28.4442113  -1.8101959  64.8389959  29.7533241  -2.5040441  65.1499249
  31.4082825   7.8861627  66.3659031  31.3659004   8.1122474  65.4367564
  32.3245524   7.6525002  66.5144833  34.8548459  -1.6454305  73.2639661
  35.2097846  -1.4182832  74.1234126  35.5020590  -1.3135928  72.6416916
  40.5846196   1.4764131  63.9688990  40.4464094   1.6665727  63.0410179
  40.2282414   2.2383513  64.4257041  40.6115575   3.5440658  68.9800261
  41.0452082   3.4515947  69.8283315  41.3247156   3.5198158  68.3420277
  29.5248626   4.7624656  66.1620994  30.3189224   4.2674976  65.9603569
  28.8140318   4.2342519  65.7988700  34.3443470   7.1442752  70.5133362
  34.3980492   7.7133688  71.2811078  33.4758252   7.3144637  70.1487399
  41.4731125   3.5864358  71.5133147  41.6667015   4.4910169  71.7592422
  41.3731743   3.1271777  72.3471732  33.1267436  -6.5277751  74.0123474
  32.4795351  -5.8287801  73.9187950  33.8968451  -6.0941607  74.3799722
  36.5346234   3.7371101  77.0874027  36.3831740   3.5081653  76.1704111
  36.5250913   4.6941702  77.1005372  33.3031570   1.3103014  72.0720294
  34.2323630   1.4614173  71.8989261  32.8822600   1.3987035  71.2168940
  32.1019902   5.3353678  69.8418831  31.9630987   4.9672463  70.7144769
  31.3134498   5.8501318  69.6702789  32.6968054  10.4362775  61.1844368
  32.8719809   9.9650818  61.9989991  32.0100842  11.0628541  61.4125629
  33.6525117   4.7135281  67.2307669  33.3174949   4.6736051  68.1265319
  33.1529063   4.0479997  66.7578079  27.6269361   0.1202911  72.7560250
  27.4889159  -0.6116850  73.3571789  28.5374284   0.0311811  72.4744438
  36.5884309   2.0591315  57.5044729  35.9713479   1.3338143  57.4077781
  36.1200797   2.8200676  57.1611803  30.2551661  -0.1677130  72.2443930
  30.9651280  -0.8083938  72.2030548  30.2120970   0.0835765  73.1670111
  38.2438440   6.7690224  75.1650509  38.1850986   6.0849444  74.4981092
  38.6457959   7.5109214  74.7131135  28.9680595  -3.1811912  74.0639569
  28.4317952  -3.6321173  74.7161166  28.3797304  -3.0466003  73.3210034
  27.2629139  13.5852137  67.9584228  27.5025737  14.2170662  68.6363247
  26.4198335  13.2340177  68.2449587  38.2455847   4.7329808  73.3964489
  37.3582626   4.3955729  73.5190888  38.8154399   4.0012839  73.6333254
  31.7757001   9.3931260  70.3625732  31.7027172  10.1986231  70.8745037
  31.3334394   9.5923226  69.5373753  31.5646780   8.6303030  63.8728554
  30.7814302   9.1724710  63.9666778  32.2639526   9.1477010  64.2722795
  34.8743431  -5.5602341  66.5162759  35.3712130  -6.3132378  66.1963829
  34.1030412  -5.5238024  65.9505968  42.7273188   0.1438025  68.1581050
  42.7163064   1.0262740  67.7874984  41.8590567  -0.2090424  67.9635587
  34.2355684   9.2918094  72.5183891  34.9483657   9.9265559  72.4459792
  33.7445713   9.3881960  71.7023892  35.9573211   3.1969347  64.0901182
  35.0229490   3.3170809  63.9205887  36.1349880   2.2941813  63.8261192
  31.4578399  -3.4184958  66.2434444  31.0876187  -3.9713917  66.9315349
  31.9537492  -4.0226824  65.6909444  39.3445763  -0.9613334  64.6251216
  39.8106215  -0.1285343  64.5511519  39.7953263  -1.4268353  65.3296475
  29.2867598   7.0412537  73.3389461  29.9877057   7.6749020  73.4918856
  28.8162713   7.3827269  72.5785101  37.4121994   5.3830487  61.6237368
  37.6881838   5.2687082  62.5331243  36.5426492   4.9847972  61.5849542
  37.3162425  -8.5932747  68.6642118  36.4025505  -8.3628520  68.8324325
  37.7455527  -8.5094303  69.5156150  37.0868884  -0.4042855  71.1642012
  36.4340334  -0.1566948  70.5094465  37.4649264  -1.2178717  70.8304489
  34.0476058   9.6316838  65.2670182  34.2298452   8.8138494  65.7297934
  34.8709044   9.8484530  64.8295072  34.3818223   8.5585023  62.5285231
  34.9105990   8.0477478  61.9155393  34.6446443   8.2427553  63.3930764
  33.1356457   0.3376956  77.6508049  32.4597094   0.2371085  78.3210424
  33.9584091   0.1816170  78.1144046  24.8835316   6.5748892  70.2720564
  25.4688753   5.8292580  70.4048468  24.6860154   6.8852849  71.1557228
  27.7373971   9.6100140  65.2883007  27.0684346  10.0946267  64.8047047
  27.5986841   9.8569360  66.2026385  31.8779240  11.6443883  71.8865665
  32.4297548  11.8075505  72.6514750  32.2185433  12.2348321  71.2145690
  36.7290114   6.4705141  77.7414319  37.2730018   7.0835099  77.2469274
  36.1476959   7.0284719  78.2581332  35.0147627   9.5925859  68.8729347
  34.8898766   8.7915599  68.3640293  35.6726718  10.0872052  68.3843317
  37.0782535   7.3934879  70.5008897  36.1312871   7.2740230  70.4287224
  37.4265309   6.5057377  70.5835159  34.0828969   7.1887595  66.7013249
  33.9353931   6.2604303  66.8820819  34.9082462   7.2107686  66.2170325
  37.6863091   8.0116154  67.7878122  38.6109638   7.8059015  67.6502573
  37.5178394   7.7632555  68.6967464  34.0790483  -4.9574567  61.6945367
  34.2954097  -4.0749929  61.3934195  33.5984550  -5.3488354  60.9651009
  28.8189704  -1.9988854  68.2716111  28.6734285  -1.6848551  69.1640393
  28.3414908  -1.3803954  67.7187010  32.5312218  -4.5748966  70.3650128
  32.2729996  -3.6531895  70.3634459  31.9997258  -4.9718531  71.0550592
  37.4758407   8.5301821  63.1440214  37.6495284   7.9648244  62.3914066
  37.9687298   9.3302716  62.9619704  23.2935367   0.5416490  71.2103772
  22.7488835   1.3176298  71.3424047  24.1714716   0.8887295  71.0522894
  43.3297798   1.2938244  64.7630513  43.7728944   0.5445569  64.3649637
  42.4524308   1.2848381  64.3804245  38.4633579   7.8468586  60.2437112
  39.1584484   8.4675278  60.4624427  38.8056729   6.9963937  60.5189490
  40.3625002   5.2968291  61.7724443  40.8876326   5.6355564  61.0473763
  40.2747355   4.3615307  61.5887577  32.0245051   9.2102365  73.9014319
  32.3332178   8.9651512  74.7737019  32.8220533   9.4149003  73.4133189
  32.0465663  11.3640275  66.1319696  31.6070653  10.8716653  66.8252553
  32.7973780  10.8213242  65.8911771  24.5258002   7.5551815  66.1344324
  25.3516022   7.2555587  65.7542967  24.1752054   6.7859438  66.5834113
  29.4939535   6.9078284  68.2041997  28.8719545   6.2448989  67.9044225
  30.1644402   6.9339416  67.5215645  22.7266607   5.4738142  67.0933257
  21.8898515   5.0460316  66.9117259  22.6990253   5.6670585  68.0304049
  40.0518908   5.9301195  77.0775641  39.2614452   5.9125334  76.5380140
  39.8152263   6.4689489  77.8324677  40.1716783   2.7793661  74.3908369
  40.2214788   2.6143669  75.3323892  40.0630707   1.9120920  74.0006250
  29.0553042   5.4582207  61.6800458  29.2041163   6.1417671  61.0267131
  29.8619486   5.4387297  62.1949914  37.4620546  -1.2375411  75.7067676
  38.3630409  -1.3768946  75.4151674  37.5368520  -1.0720956  76.6465853
  31.7963351  -3.8608556  74.5520862  30.9266661  -3.5674990  74.2803451
  32.0322832  -3.2768111  75.2728126  41.6734980   5.1990603  74.6350391
  41.3819789   5.5620583  75.4713852  41.0607112   4.4857611  74.4563723
  42.8730663   2.7643483  67.1552961  43.7077554   3.2033287  67.3190521
  43.0089791   2.2882136  66.3361207  39.9222169   0.3223217  73.1030449
  40.3976290   0.5150864  72.2949300  38.9987734   0.3782403  72.8573832
  26.8105675   1.4847385  62.6861527  26.5651717   0.5809715  62.8841737
  26.9801590   1.4864535  61.7441005  34.5002385  -7.6428939  72.0686283
  35.0184329  -6.9067912  71.7432771  34.1457518  -7.3364946  72.9033042
  32.5548448   7.9530337  59.1512205  31.9822415   8.5720525  58.6982677
  33.1281241   8.5029699  59.6852127  38.6223838  -2.8011022  71.3358754
  39.5741260  -2.7012925  71.3570978  38.4527288  -3.5932754  71.8456839
  36.6438217  -5.7155439  71.5218155  36.0488149  -5.4350427  70.8264644
  36.3587914  -5.2261538  72.2934896  35.7745708   8.2367488  60.2820788
  36.7076381   8.1713049  60.4853663  35.6868920   9.0723754  59.8235320
  38.4033724   7.5533358  57.2424735  38.3247356   7.2193222  58.1360493
  39.2243391   8.0455126  57.2416208  41.1011915   0.4195097  70.4501054
  41.0688235  -0.5188902  70.6360738  41.7112539   0.4979134  69.7166879
  32.9395246  -0.7108850  56.4928258  33.8854351  -0.8402642  56.5616676
  32.5609491  -1.4494188  56.9697686  41.2506404  -2.7893859  70.4959337
  40.7345452  -3.5735403  70.3089266  42.1346352  -3.1175143  70.6605857
  46.9188465   1.4811104  69.5907091  47.6491854   1.2196392  70.1514794
  46.3095411   0.7439826  69.6309159  45.0003762  -0.3781033  70.1881542
  44.2736926  -0.5125068  69.5798033  44.5851049  -0.0704205  70.9938260
  32.8233939   3.3408896  77.9528915  33.7436948   3.5187495  78.1468961
  32.7883522   2.3964942  77.8008614  31.1238163  -2.7858873  56.4283143
  30.2169619  -3.0825761  56.5045857  31.4014144  -3.0829055  55.5617429
  25.8196011   1.2509931  70.5951696  26.0382021   2.1827039  70.6139730
  26.2321785   0.8917905  71.3806500  21.9104364   2.1550401  68.8475311
  21.2167835   1.7404354  68.3345266  22.6577355   2.1970938  68.2508730
  38.0469584  -7.0543412  63.7130345  37.4668254  -6.3958608  63.3308398
  37.7805517  -7.8766067  63.3017763  36.4973151  -7.6538354  65.9151666
  36.9972929  -7.5421820  65.1065985  37.1408759  -7.9577301  66.5552474
  30.5555147   0.2540276  78.8019507  30.0722228   1.0540636  79.0083396
  30.6416086   0.2648220  77.8486951  23.8241106   2.0868655  66.7241326
  23.8011794   2.1856343  65.7723209  24.1341743   2.9333806  67.0458492
  26.4828484   4.1444810  70.8387940  27.4371738   4.1128753  70.7717872
  26.2841008   3.6835434  71.6538166  27.0727866   2.7145926  73.4058738
  27.8920755   3.2090005  73.4293575  27.3464674   1.7977894  73.3776306
  36.8294462  -4.8943321  62.7686694  35.9420318  -4.6093671  62.5506888
  37.2448452  -5.0549558  61.9213971  40.1808999  -4.8696800  66.4841033
  40.9569389  -4.3800348  66.7565650  39.4557133  -4.4438746  66.9412902
  42.6181557  -4.1569181  67.5414974  43.2126048  -4.3973445  66.8308282
  42.6908141  -4.8762051  68.1688510  24.8378713   9.6864430  67.8558138
  24.7033181   8.9264831  67.2896136  24.4210775  10.4105330  67.3886927
  35.9737676   4.8701353  56.8634714  36.6773526   5.0751356  57.4792369
  35.2500325   5.4378115  57.1283797  36.8035486   0.6211215  62.9836984
  36.7470688   1.0779766  62.1444616  37.3563829  -0.1398101  62.8059827
  40.6140292  -3.5899054  63.8087103  40.3577226  -3.9902418  64.6395311
  39.9893160  -2.8755260  63.6837242  44.9252630  -0.8502980  66.3158395
  44.3652188  -0.7809791  67.0889957  44.3196133  -1.0261996  65.5957891
  27.9947839  10.5833747  68.0676581  27.8780223  11.5279179  67.9655271
  27.1740285  10.2807308  68.4562380  37.8824373   5.3083883  58.9133174
  38.7169977   4.8765081  58.7310648  37.7208716   5.1365896  59.8410068
  37.5370266   1.8115996  60.2789513  37.4819069   1.6460267  59.3377957
  36.9116321   2.5192029  60.4351703  34.8516173   4.1164908  79.6043076
  35.7207332   4.2905560  79.2429711  34.3722924   4.9359325  79.4818805
  29.0202353  11.2362009  71.2832509  29.9229600  11.2685619  71.5999004
  28.7939723  10.3062460  71.2978845  30.7755955   9.9892995  67.9442588
  29.8251586   9.9894857  67.8306960  31.0788441   9.2425730  67.4278623
  46.5108648  15.8253534  69.0088350  47.1487058  15.7060281  68.3051690
  46.3929491  16.7734378  69.0676303  43.3198355  15.7780962  68.9449875
  42.9816866  15.6622026  68.0570410  44.1888123  15.3772127  68.9250881
  39.1785170  17.6316438  64.9346766  38.6150036  17.5406375  64.1663054
  39.0637565  16.8116343  65.4149259  43.8018138  16.9315813  74.9036081
  43.7906778  16.5368612  74.0316584  43.9638777  16.1981886  75.4969852
  36.7249602  19.1267630  67.7730987  37.5170894  18.7858454  67.3577286
  36.9646253  19.2362605  68.6933140  44.7584729  21.2987406  60.2461231
  44.1072709  21.8841486  59.8595245  45.5529092  21.8293601  60.3056268
  38.6840356  18.3876543  60.6448365  39.4571232  17.8405530  60.5061241
  39.0365755  19.2520792  60.8562827  40.5225399  19.7152925  73.8515265
  40.2315265  20.6198556  73.7361931  41.1582383  19.7569453  74.5659334
  41.4481606  17.0929774  70.4416624  42.0445178  16.8685796  69.7273587
  41.5056577  16.3514519  71.0442072  41.0206634  14.5469209  58.2766815
  41.2732155  14.0250730  57.5150278  40.0831193  14.3835355  58.3793499
  46.0649917  13.5504987  66.0841558  46.8513006  13.1324411  65.7331975
  46.3288621  14.4551080  66.2523207  46.2359994  18.9877838  60.7830215
  45.6005827  19.0612464  61.4951120  45.9057401  19.5771437  60.1049295
  51.4658344  13.4880221  66.9874537  52.1983516  12.9179437  67.2212366
  50.7097700  13.1001821  67.4281043  40.7402923  16.4497315  60.4791190
  40.6239181  15.7742218  61.1472274  40.8505183  15.9629689  59.6623343
  43.0834464  15.9107462  64.1837879  42.7192671  15.3838083  64.8950801
  43.9401580  15.5205931  64.0104365  48.9883764   7.2001795  71.4469146
  48.6567089   8.0697206  71.2230361  48.3929378   6.8838079  72.1263176
  42.7239951  10.9397362  59.1799228  42.8914353  11.8077598  59.5469699
  42.5337120  11.1024644  58.2560517  45.4815284  19.4014341  70.8465058
  45.1816007  20.3039380  70.7380866  45.1366343  19.1346524  71.6986211
  38.9327765  15.8528138  66.8801763  38.0078262  15.7204352  67.0879454
  39.1812179  16.6322357  67.3771705  48.8812428  11.9196881  68.5262496
  47.9729305  11.8512289  68.2321257  48.8300024  12.3968826  69.3544321
  42.7029172  13.3955019  60.1645895  42.5828797  13.8412070  61.0031375
  42.0081760  13.7440337  59.6059433  36.2936576  15.4961411  67.7145552
  36.4228958  15.7495890  68.6284964  35.6134028  16.0889119  67.3950207
  40.4636064  26.1658661  63.8136026  40.3860093  27.1166486  63.8924507
  39.8597707  25.8204534  64.4710952  42.9553294  13.3386527  76.4697393
  42.1786628  13.8980447  76.4600258  43.5943857  13.8243310  76.9912263
  50.7474074  10.1213319  70.3040370  50.1048454  10.4145853  69.6580164
  50.2429003  10.0066240  71.1093566  48.4014238  13.8676493  60.9926229
  49.3132094  14.1003879  60.8173926  47.8923885  14.4513537  60.4301307
  41.2099666  16.1471980  76.0315360  41.9514350  16.6857024  75.7550184
  40.5036651  16.7738269  76.1886912  46.6855005  18.2901120  74.6287521
  47.0938362  17.8483531  73.8842154  45.9632267  17.7153748  74.8821714
  43.0386076  13.2273727  72.0021078  43.8847271  13.6513141  72.1455727
  42.9784713  12.5707351  72.6959641  47.0083820  18.8502311  68.3839810
  46.3792683  19.0148025  67.6815878  46.6209482  19.2643921  69.1550774
  50.8873052  19.7856749  65.7384174  50.2024090  20.1655650  65.1881207
  50.9716901  20.3952076  66.4716122  46.1885521  10.8878095  73.6602252
  45.9446453  11.6420156  73.1236528  46.4645451  11.2663443  74.4949499
  48.1423984  17.4316708  72.3379518  48.3540879  18.0748468  71.6613899
  48.0953732  16.5979024  71.8701448  45.7450213  10.0434529  69.2416090
  44.8834692  10.3415782  69.5332827  45.7712647  10.2604927  68.3097122
  42.5611782  18.5876719  65.6489895  43.0250128  18.8664422  64.8594518
  42.2968580  17.6860164  65.4662986  39.4535863  18.1348201  68.5869659
  40.0237220  18.5635469  67.9487143  40.0443975  17.8530785  69.2853844
  41.4980668  14.7099871  62.4579461  42.2004711  15.1620915  62.9253387
  41.1661297  14.0683690  63.0859354  39.9461030  13.3011628  76.8330670
  39.3159690  13.9827909  77.0666067  39.8397117  13.1894710  75.8883808
  35.2406002  12.9683424  67.7596594  34.4505056  13.2240953  67.2836705
  35.7317249  13.7831762  67.8648635  49.2569812  20.3088663  70.5101875
  50.0787255  19.9068851  70.2284557  49.2532214  20.2056897  71.4617991
  37.1920747  13.3328003  64.7180071  36.3951911  13.4446698  65.2363566
  36.9646340  13.6714656  63.8520961  43.0226415  19.8572707  72.6662585
  43.0870848  20.3193114  73.5020757  42.3137339  19.2270072  72.7944895
  33.5243705  13.2213915  70.1911585  33.7751743  14.1060924  70.4569161
  34.0603253  13.0418516  69.4186677  57.3475805  16.6527412  66.8586846
  56.5939513  16.0834810  66.7030851  57.4823346  16.6190076  67.8057481
  42.7374433  21.5240814  62.5341566  42.6020107  22.3692350  62.9626414
  43.2784245  21.7260092  61.7707500  39.2241772   7.6032394  79.1955921
  38.8308718   7.0498592  79.8703565  40.0407913   7.9142972  79.5862438
  36.1903830  19.0416252  63.1069491  36.7028351  19.8359502  63.2575055
  36.8426543  18.3442543  63.0403092  37.9998715  22.1582008  65.1892244
  38.1765343  23.0799973  65.0013228  38.7955548  21.8440428  65.6186624
  42.1409733   9.0190273  76.7876178  42.8819447   9.6197426  76.7080640
  42.3727656   8.2767911  76.2294220  37.2851071  14.2046640  75.0654407
  37.1704586  13.3031898  75.3661506  36.4295589  14.4510337  74.7139224
  44.3642909  22.1464381  76.6641908  43.9206763  21.3600759  76.3462812
  45.0260123  22.3343531  75.9985799  39.1230030  23.6760182  71.1902586
  39.6737455  23.5477246  70.4179580  38.2841506  23.9755071  70.8397479
  46.4624147  22.4267181  74.6923309  46.4442622  23.2476062  74.2003578
  47.3844067  22.3021256  74.9173450  42.9197201  19.9411310  75.5346817
  43.4525538  19.1799598  75.3046125  42.3911282  19.6484962  76.2770972
  46.0866896   5.0471376  71.0640459  45.7431166   5.9373018  70.9879570
  46.4545859   4.8573034  70.2010044  34.1552747  17.3704906  63.8829061
  34.9927969  17.7801915  63.6662769  34.3331015  16.4304349  63.8529255
  46.0517179  15.0379987  59.5712894  45.5363802  15.8084592  59.8101282
  45.7794487  14.3645123  60.1945956  43.6364290   9.8829688  64.6298133
  42.7805886   9.4936538  64.4503771  44.0491242   9.9621649  63.7697918
  45.1663437   7.4176031  69.0289692  44.6628232   7.3806166  68.2157498
  45.4594043   8.3268774  69.0886349  41.4106323   7.5014761  68.0355874
  42.2759319   7.3057570  67.6761764  41.4783831   7.2725113  68.9625231
  51.0251453  17.7912342  61.5066068  50.2480896  17.4523501  61.0621230
  51.7042934  17.7964965  60.8321033  45.8403482  12.9107079  61.3972675
  45.5353618  13.2253228  62.2482819  46.7933924  12.9888499  61.4400008
  44.2849914  19.0697302  63.0465629  43.7571276  18.3350062  62.7338867
  43.7837417  19.8471979  62.8005598  49.2642760  17.2646323  68.1632676
  48.6066434  17.9545584  68.2512804  50.0683159  17.6542755  68.5066662
  39.0168642   9.7316969  65.4072241  39.5912393   9.5092150  64.6745434
  39.6039624   9.8005663  66.1600842  48.0748219  15.6190696  66.2136618
  48.5880101  16.2520687  66.7158327  48.7249443  15.0191891  65.8479978
  39.3438229  11.7621430  59.4268126  38.5075541  12.0996116  59.7477401
  39.2042998  11.6270410  58.4895263  41.3191309   6.6058218  64.1347310
  40.6655722   6.2907235  63.5103925  41.2771783   5.9833958  64.8607133
  42.4302514  16.8877513  56.0500602  41.5229576  16.6566766  56.2491751
  42.9273546  16.0915132  56.2374584  45.3370593  25.5975020  58.9697289
  44.6632292  25.9006717  59.5782246  45.7236415  26.4004100  58.6202746
  44.5529050  13.0940151  68.4594958  43.6351611  13.3155098  68.3016646
  44.9689193  13.1686462  67.6006665  45.3364097  14.4931567  63.5897638
  46.0835916  15.0052964  63.2804760  45.6055687  14.1715620  64.4502032
  43.6090748  16.9890108  60.5724593  42.7001967  16.7049140  60.6697062
  43.6385831  17.4089186  59.7127899  48.8410015  20.5996697  64.3415760
  48.3872342  19.7587607  64.3980951  48.2103982  21.2358095  64.6790540
  47.7842935  11.5288683  65.5716428  47.0465691  11.0166069  65.9026670
  48.0369708  11.0889065  64.7599704  47.2842954  22.4373194  65.2765578
  47.5765929  22.9978251  64.5577944  47.7941575  22.7301755  66.0318737
  47.8854562   4.3064935  66.1658197  48.1913439   3.4462299  65.8784112
  48.6107167   4.8982555  65.9657191  34.1778918  14.7095622  64.5539795
  33.9803318  14.1164982  63.8290861  33.6225582  14.4047832  65.2715734
  42.1575642  14.6018728  66.6734388  42.2124251  13.6492565  66.5976865
  41.3466844  14.7578167  67.1575686  43.3066835  18.5298851  57.9112671
  42.8686265  17.8134710  57.4518309  44.0477276  18.7574966  57.3497763
  40.0968002  13.2195788  64.4324767  39.2835867  13.5189959  64.8389959
  40.5926996  12.8251477  65.1499249  42.2476579  23.2153545  66.3659031
  42.2052758  23.4414391  65.4367564  43.1639278  22.9816919  66.5144833
  45.6942213  13.6837612  73.2639661  46.0491601  13.9109086  74.1234126
  46.3414344  14.0155989  72.6416916  51.4239950  16.8056048  63.9688990
  51.2857849  16.9957644  63.0410179  51.0676169  17.5675431  64.4257041
  39.5882076  10.7914143  70.0486002  40.2281456  10.6502903  69.3508965
  38.7559607  10.5048657  69.6724604  51.4509330  18.8732575  68.9800261
  51.8845836  18.7807864  69.8283315  52.1640910  18.8490076  68.3420277
  40.3642380  20.0916574  66.1620994  41.1582979  19.5966894  65.9603569
  39.6534073  19.5634437  65.7988700  45.1837225  22.4734669  70.5133362
  45.2374247  23.0425606  71.2811078  44.3152006  22.6436554  70.1487399
  36.6725144  14.2359656  62.2380747  35.7422732  14.1744111  62.4550709
  36.7682616  13.7135608  61.4417388  36.5910693  10.7614468  64.8258989
  36.8517510  11.6759802  64.7168149  37.4127865  10.2938911  64.9755601
  38.0635618  12.1752226  71.9957813  38.7358671  11.9669588  71.3470462
  37.2365405  11.9774312  71.5563045  52.3124879  18.9156276  71.5133147
  52.5060769  19.8202086  71.7592422  52.2125498  18.4563695  72.3471732
  43.9661190   8.8014167  74.0123474  43.3189105   9.5004116  73.9187950
  44.7362205   9.2350310  74.3799722  47.3739988  19.0663019  77.0874027
  47.2225494  18.8373570  76.1704111  47.3644667  20.0233620  77.1005372
  44.1425324  16.6394931  72.0720294  45.0717384  16.7906091  71.8989261
  43.7216354  16.7278952  71.2168940  42.9413656  20.6645596  69.8418831
  42.8024742  20.2964380  70.7144769  42.1528252  21.1793235  69.6702789
  43.5361808  25.7654692  61.1844368  43.7113564  25.2942736  61.9989991
  42.8494596  26.3920459  61.4125629  44.4918871  20.0427199  67.2307669
  44.1568704  20.0027969  68.1265319  43.9922817  19.3771914  66.7578079
  38.4663115  15.4494829  72.7560250  38.3282913  14.7175067  73.3571789
  39.3768039  15.3603729  72.4744438  47.4278063  17.3883233  57.5044729
  46.8107234  16.6630061  57.4077781  46.9594551  18.1492593  57.1611803
  41.0945416  15.1614788  72.2443930  41.8045035  14.5207980  72.2030548
  41.0514724  15.4127683  73.1670111  49.0832195  22.0982141  75.1650509
  49.0244741  21.4141361  74.4981092  49.4851713  22.8401131  74.7131135
  39.8074350  12.1480006  74.0639569  39.2711707  11.6970744  74.7161166
  39.2191058  12.2825915  73.3210034  38.1022893  28.9144055  67.9584228
  38.3419492  29.5462579  68.6363247  37.2592090  28.5632095  68.2449587
  39.2176609  11.6068657  56.6266033  38.3406075  11.4857458  56.2628280
  39.6934362  10.8154736  56.3744922  49.0849602  20.0621725  73.3964489
  48.1976381  19.7247647  73.5190888  49.6548153  19.3304756  73.6333254
  30.7378749  16.3945817  66.7207540  31.4249789  16.0807547  66.1328555
  30.5826878  17.2987182  66.4474792  35.5413471  11.2836014  71.1492564
  35.4571660  10.6761683  70.4142974  34.7196178  11.7745032  71.1502060
  42.6150755  24.7223178  70.3625732  42.5420927  25.5278149  70.8745037
  42.1728148  24.9215143  69.5373753  42.4040535  23.9594948  63.8728554
  41.6208057  24.5016628  63.9666778  43.1033280  24.4768927  64.2722795
  45.7137185   9.7689577  66.5162759  46.2105885   9.0159539  66.1963829
  44.9424167   9.8053894  65.9505968  53.5666942  15.4729943  68.1581050
  53.5556819  16.3554658  67.7874984  52.6984322  15.1201493  67.9635587
  45.0749439  24.6210012  72.5183891  45.7877411  25.2557476  72.4459792
  44.5839467  24.7173878  71.7023892  46.7966966  18.5261264  64.0901182
  45.8623244  18.6462727  63.9205887  46.9743634  17.6233731  63.8261192
  42.2972154  11.9106960  66.2434444  41.9269941  11.3578000  66.9315349
  42.7931246  11.3065094  65.6909444  50.1839517  14.3678584  64.6251216
  50.6499969  15.2006575  64.5511519  50.6347018  13.9023565  65.3296475
  40.1261352  22.3704455  73.3389461  40.8270812  23.0040938  73.4918856
  39.6556467  22.7119187  72.5785101  48.2515748  20.7122405  61.6237368
  48.5275592  20.5978999  62.5331243  47.3820247  20.3139890  61.5849542
  48.1556180   6.7359171  68.6642118  47.2419260   6.9663397  68.8324325
  48.5849281   6.8197615  69.5156150  47.9262638  14.9249063  71.1642012
  47.2734089  15.1724970  70.5094465  48.3043018  14.1113201  70.8304489
  44.8869812  24.9608756  65.2670182  45.0692207  24.1430412  65.7297934
  45.7102798  25.1776448  64.8295072  45.2211978  23.8876941  62.5285231
  45.7499744  23.3769395  61.9155393  45.4840197  23.5719471  63.3930764
  43.9750211  15.6668874  77.6508049  43.2990848  15.5663003  78.3210424
  44.7977845  15.5108087  78.1144046  35.7229070  21.9040810  70.2720564
  36.3082507  21.1584498  70.4048468  35.5253909  22.2144767  71.1557228
  38.5767726  24.9392057  65.2883007  37.9078101  25.4238185  64.8047047
  38.4380595  25.1861278  66.2026385  30.3146725  14.4746410  68.9925007
  30.3530825  13.9410001  69.7862125  29.8087018  13.9481616  68.3735984
  42.7172994  26.9735801  71.8865665  43.2691302  27.1367423  72.6514750
  43.0579188  27.5640239  71.2145690  37.6937487   9.3210951  72.4887550
  37.7578814  10.1825782  72.0764947  37.6304608   8.7084952  71.7559908
  37.1689760  11.3934083  76.1360584  37.7961799  11.0111161  76.7498108
  36.3117679  11.1748285  76.5016276  47.5683869  21.7997059  77.7414319
  48.1123773  22.4127017  77.2469274  46.9870713  22.3576637  78.2581332
  33.9455303  13.2010512  62.0678939  34.2408744  12.2921191  62.0145992
  33.0443339  13.1798252  61.7459941  45.8541382  24.9217777  68.8729347
  45.7292521  24.1207516  68.3640293  46.5120473  25.4163970  68.3843317
  37.4749550  11.2766509  68.0506487  36.7536136  11.8902477  67.9113961
  38.2642806  11.8124274  67.9723133  47.9176290  22.7226797  70.5008897
  46.9706625  22.6032148  70.4287224  48.2659063  21.8349295  70.5835159
  40.2775863   8.6120936  74.3247139  40.8010265   8.8583232  75.0873448
  40.0588197   9.4440970  73.9050276  35.6743144  10.8824610  62.1918264
  35.3455851  10.0021989  62.0093370  36.0282515  10.8272279  63.0794653
  44.9222723  22.5179513  66.7013249  44.7747686  21.5896220  66.8820819
  45.7476217  22.5399604  66.2170325  38.7884968  11.1697580  62.5593742
  39.1281040  11.6983501  61.8372350  39.2357088  11.5077986  63.3352308
  48.5256845  23.3408072  67.7878122  49.4503393  23.1350933  67.6502573
  48.3572148  23.0924473  68.6967464  41.4828408   9.5534631  72.0096810
  41.1425229   8.7542444  72.4117489  40.7767415   9.8536341  71.4373643
  42.1344880   6.6383943  70.4624133  42.9570949   6.1644421  70.3403023
  42.3782944   7.4174427  70.9622819  40.7753115   9.6672202  60.7587034
  41.4961477  10.0453454  60.2550751  40.1518419  10.3861078  60.8622012
  44.9184238  10.3717350  61.6945367  45.1347852  11.2541988  61.3934195
  44.4378305   9.9803564  60.9651009  39.6583459  13.3303064  68.2716111
  39.5128040  13.6443367  69.1640393  39.1808663  13.9487964  67.7187010
  41.5179842  10.3205612  68.3197001  41.5041411   9.4246705  67.9829299
  42.2352270  10.3276275  68.9535287  43.3705973  10.7542952  70.3650128
  43.1123750  11.6760023  70.3634459  42.8391013  10.3573386  71.0550592
  48.3152161  23.8593739  63.1440214  48.4889039  23.2940162  62.3914066
  48.8081053  24.6594634  62.9619704  34.1329121  15.8708408  71.2103772
  33.5882589  16.6468216  71.3424047  35.0108471  16.2179213  71.0522894
  40.9216738   9.2019992  63.5884571  41.0432649   8.2736638  63.7875458
  40.6318780   9.2158678  62.6762886  43.7907928   6.8874902  66.7251291
  43.8129625   6.9514236  65.7703270  44.2075987   6.0479411  66.9191797
  54.1691552  16.6230162  64.7630513  54.6122698  15.8737487  64.3649637
  53.2918063  16.6140298  64.3804245  49.3027334  23.1760503  60.2437112
  49.9978238  23.7967196  60.4624427  49.6450484  22.3255855  60.5189490
  34.9195143  14.9978304  74.1033929  34.1776879  15.1460940  74.6898560
  34.5987887  15.2586570  73.2400679  51.2018757  20.6260209  61.7724443
  51.7270081  20.9647482  61.0473763  51.1141109  19.6907224  61.5887577
  42.8638806  24.5394283  73.9014319  43.1725932  24.2943429  74.7737019
  43.6614288  24.7440921  73.4133189  42.8859418  26.6932192  66.1319696
  42.4464408  26.2008571  66.8252553  43.6367535  26.1505160  65.8911771
  35.3651757  22.8843733  66.1344324  36.1909777  22.5847505  65.7542967
  35.0145809  22.1151356  66.5834113  40.3333290  22.2370201  68.2041997
  39.7113299  21.5740906  67.9044225  41.0038157  22.2631333  67.5215645
  33.5660362  20.8030060  67.0933257  32.7292270  20.3752234  66.9117259
  33.5384007  20.9962503  68.0304049  40.4057817  10.7151989  77.7974504
  40.4545973  11.5914112  77.4152273  40.9480331  10.1729382  77.2246147
  50.8912663  21.2593113  77.0775641  50.1008207  21.2417251  76.5380140
  50.6546018  21.7981406  77.8324677  51.0110538  18.1085579  74.3908369
  51.0608543  17.9435586  75.3323892  50.9024461  17.2412838  74.0006250
  39.8946797  20.7874125  61.6800458  40.0434917  21.4709589  61.0267131
  40.7013240  20.7679215  62.1949914  48.3014300  14.0916507  75.7067676
  49.2024163  13.9522972  75.4151674  48.3762275  14.2570962  76.6465853
  42.6357106  11.4683362  74.5520862  41.7660415  11.7616928  74.2803451
  42.8716586  12.0523807  75.2728126  52.5128735  20.5282520  74.6350391
  52.2213543  20.8912501  75.4713852  51.9000866  19.8149529  74.4563723
  53.7124417  18.0935400  67.1552961  54.5471309  18.5325204  67.3190521
  53.8483546  17.6174053  66.3361207  50.7615923  15.6515135  73.1030449
  51.2370045  15.8442781  72.2949300  49.8381488  15.7074321  72.8573832
  37.6499430  16.8139302  62.6861527  37.4045472  15.9101632  62.8841737
  37.8195344  16.8156453  61.7441005  45.3396140   7.6862979  72.0686283
  45.8578083   8.4224006  71.7432771  44.9851272   7.9926972  72.9033042
  36.9195077  12.5467660  60.1847688  36.2264322  12.6212015  59.5287724
  36.6746829  11.7828004  60.7069205  45.5908734   4.1063261  67.5887179
  45.8710487   3.4386450  68.2147606  46.3759341   4.2992357  67.0761843
  43.3942202  23.2822255  59.1512205  42.8216169  23.9012442  58.6982677
  43.9674996  23.8321617  59.6852127  49.4617592  12.5280895  71.3358754
  50.4135015  12.6278993  71.3570978  49.2921042  11.7359164  71.8456839
  47.4831972   9.6136478  71.5218155  46.8881904   9.8941491  70.8264644
  47.1981668  10.1030379  72.2934896  46.6139462  23.5659405  60.2820788
  47.5470135  23.5004967  60.4853663  46.5262675  24.4015672  59.8235320
  49.2427479  22.8825276  57.2424735  49.1641110  22.5485139  58.1360493
  50.0637145  23.3747043  57.2416208  51.9405670  15.7487015  70.4501054
  51.9081990  14.8103016  70.6360738  52.5506293  15.8271052  69.7166879
  43.7789001  14.6183068  56.4928258  44.7248105  14.4889276  56.5616676
  43.4003246  13.8797730  56.9697686  52.0900158  12.5398058  70.4959337
  51.5739207  11.7556515  70.3089266  52.9740107  12.2116775  70.6605857
  49.7510885   6.2839074  66.4555150  49.5535706   5.9754162  67.3398482
  50.3610591   7.0100713  66.5853080  57.7582220  16.8103022  69.5907091
  58.4885608  16.5488310  70.1514794  57.1489165  16.0731744  69.6309159
  55.8397517  14.9510884  70.1881542  55.1130680  14.8166849  69.5798033
  55.4244804  15.2587713  70.9938260  43.6627693  18.6700814  77.9528915
  44.5830703  18.8479413  78.1468961  43.6277276  17.7256859  77.8008614
  41.9631918  12.5433044  56.4283143  41.0563373  12.2466157  56.5045857
  42.2407899  12.2462862  55.5617429  32.8809858  13.8639408  66.8782190
  32.5612643  13.0104716  66.5856564  32.3343286  14.0787986  67.6340157
  36.6589766  16.5801849  70.5951696  36.8775776  17.5118956  70.6139730
  37.0715540  16.2209823  71.3806500  43.5793984   7.0869934  62.5827384
  42.7694712   6.7417019  62.9582631  44.2678401   6.7777478  63.1714996
  45.5084532   6.1647981  64.2051681  46.0615570   6.5843434  64.8641704
  45.7454618   5.2383729  64.2474637  41.5317631  12.1535054  79.9854445
  41.4314358  13.1029411  79.9166536  41.3139173  11.8253293  79.1130515
  40.7330702   9.4019979  56.5695122  41.5949866   9.7274878  56.8290940
  40.9181047   8.6151475  56.0568188  32.7498118  17.4842319  68.8475311
  32.0561590  17.0696272  68.3345266  33.4971109  17.5262856  68.2508730
  48.8863339   8.2748506  63.7130345  48.3062008   8.9333310  63.3308398
  48.6199272   7.4525851  63.3017763  47.3366905   7.6753564  65.9151666
  47.8366684   7.7870098  65.1065985  47.9802513   7.3714616  66.5552474
  41.3948901  15.5832193  78.8019507  40.9115983  16.3832553  79.0083396
  41.4809840  15.5940138  77.8486951  34.6634861  17.4160573  66.7241326
  34.6405549  17.5148260  65.7723209  34.9735497  18.2625724  67.0458492
  37.3222239  19.4736728  70.8387940  38.2765492  19.4420670  70.7717872
  37.1234762  19.0127352  71.6538166  37.9121621  18.0437844  73.4058738
  38.7314510  18.5381923  73.4293575  38.1858428  17.1269812  73.3776306
  47.6688217  10.4348596  62.7686694  46.7814072  10.7198247  62.5506888
  48.0842206  10.2742360  61.9213971  51.0202753  10.4595117  66.4841033
  51.7963143  10.9491570  66.7565650  50.2950887  10.8853171  66.9412902
  53.4575312  11.1722737  67.5414974  54.0519803  10.9318472  66.8308282
  53.5301895  10.4529867  68.1688510  35.6772467  25.0156347  67.8558138
  35.5426935  24.2556748  67.2896136  35.2604530  25.7397247  67.3886927
  46.8131430  20.1993271  56.8634714  47.5167281  20.4043273  57.4792369
  46.0894079  20.7670033  57.1283797  47.6429241  15.9503132  62.9836984
  47.5864442  16.4071684  62.1444616  48.1957583  15.1893817  62.8059827
  51.4534047  11.7392864  63.8087103  51.1970981  11.3389500  64.6395311
  50.8286915  12.4536658  63.6837242  55.7646384  14.4788937  66.3158395
  55.2045942  14.5482127  67.0889957  55.1589888  14.3029922  65.5957891
  38.8341593  25.9125664  68.0676581  38.7173977  26.8571097  67.9655271
  38.0134040  25.6099226  68.4562380  48.7218128  20.6375800  58.9133174
  49.5563732  20.2056999  58.7310648  48.5602471  20.4657814  59.8410068
  48.3764020  17.1407913  60.2789513  48.3212824  16.9752185  59.3377957
  47.7510075  17.8483946  60.4351703  33.1656535  12.3775978  74.1050935
  33.8115399  11.8674932  74.5938160  32.9573686  13.1144660  74.6794360
  45.6909927  19.4456825  79.6043076  46.5601087  19.6197478  79.2429711
  45.2116679  20.2651242  79.4818805  41.6860145   6.6416023  59.8574831
  41.6738815   7.5857862  60.0143102  42.5783567   6.4586168  59.5634293
  39.8596107  26.5653926  71.2832509  40.7623354  26.5977537  71.5999004
  39.6333478  25.6354377  71.2978845  41.6149709  25.3184913  67.9442588
  40.6645340  25.3186775  67.8306960  41.9182196  24.5717647  67.4278623
  45.5012265   3.2358799  64.1120768  44.7344661   2.6817286  64.2577451
  45.9122970   3.3080668  64.9734920  37.5054026   9.5243595  78.2025949
  38.3685488   9.1680400  78.4129274  36.9319437   9.1857490  78.8901354
  57.3502403  31.1545451  69.0088350  57.9880813  31.0352199  68.3051690
  57.2323246  32.1026295  69.0676303  54.1592109  31.1072879  68.9449875
  53.8210621  30.9913944  68.0570410  55.0281877  30.7064044  68.9250881
  50.0178925  32.9608356  64.9346766  49.4543790  32.8698293  64.1663054
  49.9031320  32.1408260  65.4149259  54.6411892  32.2607731  74.9036081
  54.6300533  31.8660529  74.0316584  54.8032532  31.5273804  75.4969852
  47.5643357  34.4559547  67.7730987  48.3564649  34.1150372  67.3577286
  47.8040007  34.5654522  68.6933140  55.5978484  36.6279324  60.2461231
  54.9466463  37.2133404  59.8595245  56.3922846  37.1585518  60.3056268
  49.5234111  33.7168461  60.6448365  50.2964987  33.1697448  60.5061241
  49.8759510  34.5812710  60.8562827  51.3619153  35.0444843  73.8515265
  51.0709019  35.9490474  73.7361931  51.9976138  35.0861371  74.5659334
  52.2875360  32.4221691  70.4416624  52.8838932  32.1977714  69.7273587
  52.3450332  31.6806437  71.0442072  51.8600389  29.8761127  58.2766815
  52.1125909  29.3542648  57.5150278  50.9224948  29.7127272  58.3793499
  56.9043671  28.8796905  66.0841558  57.6906761  28.4616328  65.7331975
  57.1682376  29.7842997  66.2523207  57.0753749  34.3169755  60.7830215
  56.4399582  34.3904382  61.4951120  56.7451155  34.9063354  60.1049295
  62.3052099  28.8172138  66.9874537  63.0377271  28.2471355  67.2212366
  61.5491454  28.4293739  67.4281043  51.5796677  31.7789233  60.4791190
  51.4632935  31.1034136  61.1472274  51.6898937  31.2921607  59.6623343
  53.9228218  31.2399380  64.1837879  53.5586426  30.7130001  64.8950801
  54.7795334  30.8497849  64.0104365  59.8277519  22.5293712  71.4469146
  59.4960844  23.3989123  71.2230361  59.2323132  22.2129996  72.1263176
  53.5633705  26.2689280  59.1799228  53.7308108  27.1369516  59.5469699
  53.3730874  26.4316561  58.2560517  56.3209038  34.7306258  70.8465058
  56.0209762  35.6331297  70.7380866  55.9760098  34.4638442  71.6986211
  49.7721520  31.1820055  66.8801763  48.8472016  31.0496269  67.0879454
  50.0205933  31.9614275  67.3771705  59.7206182  27.2488799  68.5262496
  58.8123060  27.1804207  68.2321257  59.6693778  27.7260744  69.3544321
  53.5422926  28.7246937  60.1645895  53.4222551  29.1703988  61.0031375
  52.8475515  29.0732255  59.6059433  47.1330331  30.8253329  67.7145552
  47.2622712  31.0787808  68.6284964  46.4527782  31.4181037  67.3950207
  53.7947048  28.6678444  76.4697393  53.0180382  29.2272364  76.4600258
  54.4337611  29.1535227  76.9912263  61.5867829  25.4505237  70.3040370
  60.9442209  25.7437770  69.6580164  61.0822757  25.3358157  71.1093566
  59.2407992  29.1968410  60.9926229  60.1525848  29.4295797  60.8173926
  58.7317639  29.7805454  60.4301307  52.0493420  31.4763898  76.0315360
  52.7908105  32.0148942  75.7550184  51.3430406  32.1030186  76.1886912
  57.5248760  33.6193038  74.6287521  57.9332116  33.1775449  73.8842154
  56.8026021  33.0445666  74.8821714  53.8779830  28.5565645  72.0021078
  54.7241025  28.9805058  72.1455727  53.8178468  27.8999269  72.6959641
  57.8477575  34.1794229  68.3839810  57.2186437  34.3439943  67.6815878
  57.4603237  34.5935838  69.1550774  61.7266807  35.1148667  65.7384174
  61.0417845  35.4947568  65.1881207  61.8110656  35.7243993  66.4716122
  57.0279275  26.2170013  73.6602252  56.7840207  26.9712074  73.1236528
  57.3039206  26.5955361  74.4949499  58.9817738  32.7608626  72.3379518
  59.1934633  33.4040385  71.6613899  58.9347486  31.9270942  71.8701448
  56.5843967  25.3726446  69.2416090  55.7228446  25.6707700  69.5332827
  56.6106402  25.5896845  68.3097122  53.4005536  33.9168637  65.6489895
  53.8643882  34.1956340  64.8594518  53.1362335  33.0152081  65.4662986
  50.2929618  33.4640118  68.5869659  50.8630975  33.8927387  67.9487143
  50.8837729  33.1822703  69.2853844  52.3374423  30.0391789  62.4579461
  53.0398466  30.4912833  62.9253387  52.0055051  29.3975608  63.0859354
  50.7854784  28.6303546  76.8330670  50.1553445  29.3119827  77.0666067
  50.6790872  28.5186627  75.8883808  46.0799756  28.2975342  67.7596594
  45.2898810  28.5532870  67.2836705  46.5711004  29.1123680  67.8648635
  60.0963566  35.6380581  70.5101875  60.9181010  35.2360768  70.2284557
  60.0925969  35.5348815  71.4617991  48.0314502  28.6619921  64.7180071
  47.2345665  28.7738615  65.2363566  47.8040094  29.0006573  63.8520961
  53.8620169  35.1864624  72.6662585  53.9264602  35.6485031  73.5020757
  53.1531093  34.5561989  72.7944895  44.3637459  28.5505832  70.1911585
  44.6145498  29.4352842  70.4569161  44.8997008  28.3710434  69.4186677
  68.1869559  31.9819329  66.8586846  67.4333267  31.4126728  66.7030851
  68.3217100  31.9481994  67.8057481  53.5768187  36.8532732  62.5341566
  53.4413862  37.6984267  62.9626414  54.1178000  37.0552009  61.7707500
  50.0635527  22.9324312  79.1955921  49.6702472  22.3790510  79.8703565
  50.8801667  23.2434890  79.5862438  47.0297585  34.3708170  63.1069491
  47.5422105  35.1651420  63.2575055  47.6820297  33.6734460  63.0403092
  48.8392469  37.4873926  65.1892244  49.0159098  38.4091891  65.0013228
  49.6349303  37.1732345  65.6186624  52.9803488  24.3482191  76.7876178
  53.7213201  24.9489344  76.7080640  53.2121411  23.6059828  76.2294220
  48.1244826  29.5338558  75.0654407  48.0098341  28.6323815  75.3661506
  47.2689344  29.7802255  74.7139224  55.2036664  37.4756298  76.6641908
  54.7600518  36.6892677  76.3462812  55.8653877  37.6635449  75.9985799
  49.9623785  39.0052100  71.1902586  50.5131210  38.8769163  70.4179580
  49.1235261  39.3046989  70.8397479  57.3017902  37.7559098  74.6923309
  57.2836377  38.5767979  74.2003578  58.2237822  37.6313173  74.9173450
  53.7590956  35.2703228  75.5346817  54.2919293  34.5091516  75.3046125
  53.2305037  34.9776879  76.2770972  56.9260651  20.3763294  71.0640459
  56.5824920  21.2664935  70.9879570  57.2939613  20.1864951  70.2010044
  44.9946501  32.6996824  63.8829061  45.8321723  33.1093832  63.6662769
  45.1724769  31.7596266  63.8529255  56.8910933  30.3671905  59.5712894
  56.3757557  31.1376509  59.8101282  56.6188242  29.6937041  60.1945956
  54.4758044  25.2121606  64.6298133  53.6199641  24.8228456  64.4503771
  54.8884996  25.2913566  63.7697918  56.0057191  22.7467949  69.0289692
  55.5021987  22.7098084  68.2157498  56.2987798  23.6560692  69.0886349
  52.2500077  22.8306679  68.0355874  53.1153074  22.6349487  67.6761764
  52.3177586  22.6017030  68.9625231  61.8645208  33.1204259  61.5066068
  61.0874650  32.7815419  61.0621230  62.5436689  33.1256883  60.8321033
  56.6797237  28.2398997  61.3972675  56.3747372  28.5545146  62.2482819
  57.6327679  28.3180417  61.4400008  55.1243668  34.3989220  63.0465629
  54.5965030  33.6641980  62.7338867  54.6231171  35.1763896  62.8005598
  60.1036514  32.5938241  68.1632676  59.4460189  33.2837502  68.2512804
  60.9076914  32.9834673  68.5066662  49.8562396  25.0608886  65.4072241
  50.4306148  24.8384068  64.6745434  50.4433379  25.1297581  66.1600842
  58.9141973  30.9482613  66.2136618  59.4273855  31.5812605  66.7158327
  59.5643197  30.3483809  65.8479978  50.1831983  27.0913347  59.4268126
  49.3469295  27.4288034  59.7477401  50.0436753  26.9562327  58.4895263
  52.1585064  21.9350135  64.1347310  51.5049476  21.6199153  63.5103925
  52.1165538  21.3125876  64.8607133  53.2696269  32.2169430  56.0500602
  52.3623330  31.9858684  56.2491751  53.7667301  31.4207050  56.2374584
  55.3922804  28.4232069  68.4594958  54.4745366  28.6447016  68.3016646
  55.8082948  28.4978379  67.6006665  56.1757852  29.8223485  63.5897638
  56.9229671  30.3344882  63.2804760  56.4449441  29.5007537  64.4502032
  54.4484502  32.3182025  60.5724593  53.5395721  32.0341058  60.6697062
  54.4779586  32.7381104  59.7127899  59.6803769  35.9288615  64.3415760
  59.2266097  35.0879525  64.3980951  59.0497736  36.5650013  64.6790540
  58.6236689  26.8580601  65.5716428  57.8859446  26.3457987  65.9026670
  58.8763463  26.4180982  64.7599704  58.1236709  37.7665111  65.2765578
  58.4159683  38.3270169  64.5577944  58.6335329  38.0593672  66.0318737
  58.7248316  19.6356853  66.1658197  59.0307193  18.7754216  65.8784112
  59.4500921  20.2274473  65.9657191  45.0172672  30.0387539  64.5539795
  44.8197072  29.4456900  63.8290861  44.4619336  29.7339750  65.2715734
  52.9969396  29.9310646  66.6734388  53.0518006  28.9784482  66.5976865
  52.1860598  30.0870085  67.1575686  54.1460590  33.8590769  57.9112671
  53.7080020  33.1426628  57.4518309  54.8871031  34.0866884  57.3497763
  50.9361756  28.5487706  64.4324767  50.1229622  28.8481876  64.8389959
  51.4320750  28.1543394  65.1499249  53.0870334  38.5445463  66.3659031
  53.0446513  38.7706309  65.4367564  54.0033033  38.3108837  66.5144833
  56.5335968  29.0129530  73.2639661  56.8885355  29.2401003  74.1234126
  57.1808099  29.3447907  72.6416916  62.2633705  32.1347966  63.9688990
  62.1251603  32.3249562  63.0410179  61.9069923  32.8967349  64.4257041
  50.4275831  26.1206061  70.0486002  51.0675210  25.9794820  69.3508965
  49.5953361  25.8340575  69.6724604  62.2903084  34.2024493  68.9800261
  62.7239591  34.1099782  69.8283315  63.0034665  34.1781993  68.3420277
  51.2036135  35.4208492  66.1620994  51.9976733  34.9258812  65.9603569
  50.4927827  34.8926355  65.7988700  56.0230979  37.8026587  70.5133362
  56.0768001  38.3717523  71.2811078  55.1545761  37.9728472  70.1487399
  47.5118898  29.5651573  62.2380747  46.5816486  29.5036029  62.4550709
  47.6076370  29.0427526  61.4417388  47.4304447  26.0906386  64.8258989
  47.6911265  27.0051719  64.7168149  48.2521620  25.6230829  64.9755601
  48.9029373  27.5044143  71.9957813  49.5752426  27.2961505  71.3470462
  48.0759159  27.3066229  71.5563045  63.1518634  34.2448194  71.5133147
  63.3454524  35.1494004  71.7592422  63.0519252  33.7855613  72.3471732
  54.8054945  24.1306084  74.0123474  54.1582860  24.8296034  73.9187950
  55.5755960  24.5642228  74.3799722  58.2133743  34.3954936  77.0874027
  58.0619249  34.1665488  76.1704111  58.2038422  35.3525538  77.1005372
  54.9819079  31.9686849  72.0720294  55.9111139  32.1198009  71.8989261
  54.5610109  32.0570870  71.2168940  53.7807411  35.9937514  69.8418831
  53.6418496  35.6256298  70.7144769  52.9922007  36.5085153  69.6702789
  55.3312626  35.3719116  67.2307669  54.9962458  35.3319886  68.1265319
  54.8316572  34.7063832  66.7578079  49.3056870  30.7786746  72.7560250
  49.1676668  30.0466985  73.3571789  50.2161793  30.6895646  72.4744438
  58.2671817  32.7175151  57.5044729  57.6500988  31.9921979  57.4077781
  57.7988306  33.4784511  57.1611803  51.9339170  30.4906706  72.2443930
  52.6438789  29.8499898  72.2030548  51.8908479  30.7419600  73.1670111
  59.9225949  37.4274059  75.1650509  59.8638495  36.7433279  74.4981092
  60.3245468  38.1693049  74.7131135  50.6468104  27.4771923  74.0639569
  50.1105461  27.0262662  74.7161166  50.0584813  27.6117832  73.3210034
  50.0570363  26.9360575  56.6266033  49.1799830  26.8149376  56.2628280
  50.5328116  26.1446653  56.3744922  59.9243356  35.3913643  73.3964489
  59.0370135  35.0539565  73.5190888  60.4941907  34.6596674  73.6333254
  41.5772504  31.7237735  66.7207540  42.2643543  31.4099465  66.1328555
  41.4220632  32.6279099  66.4474792  46.3807226  26.6127931  71.1492564
  46.2965414  26.0053601  70.4142974  45.5589932  27.1036950  71.1502060
  53.4544510  40.0515095  70.3625732  53.3814681  40.8570067  70.8745037
  53.0121903  40.2507061  69.5373753  53.2434289  39.2886865  63.8728554
  52.4601811  39.8308545  63.9666778  53.9427035  39.8060845  64.2722795
  56.5530940  25.0981495  66.5162759  57.0499639  24.3451457  66.1963829
  55.7817921  25.1345811  65.9505968  64.4060697  30.8021860  68.1581050
  64.3950573  31.6846576  67.7874984  63.5378076  30.4493411  67.9635587
  55.9143193  39.9501929  72.5183891  56.6271166  40.5849394  72.4459792
  55.4233222  40.0465795  71.7023892  57.6360720  33.8553182  64.0901182
  56.7016999  33.9754644  63.9205887  57.8137389  32.9525649  63.8261192
  53.1365908  27.2398878  66.2434444  52.7663696  26.6869918  66.9315349
  53.6325001  26.6357011  65.6909444  61.0233272  29.6970501  64.6251216
  61.4893724  30.5298493  64.5511519  61.4740772  29.2315483  65.3296475
  50.9655107  37.6996373  73.3389461  51.6664566  38.3332856  73.4918856
  50.4950222  38.0411104  72.5785101  59.0909503  36.0414323  61.6237368
  59.3669347  35.9270917  62.5331243  58.2214001  35.6431807  61.5849542
  58.9949934  22.0651088  68.6642118  58.0813014  22.2955315  68.8324325
  59.4243036  22.1489532  69.5156150  58.7656393  30.2540980  71.1642012
  58.1127843  30.5016888  70.5094465  59.1436773  29.4405118  70.8304489
  55.7263567  40.2900673  65.2670182  55.9085961  39.4722329  65.7297934
  56.5496553  40.5068366  64.8295072  56.0605732  39.2168858  62.5285231
  56.5893499  38.7061313  61.9155393  56.3233952  38.9011389  63.3930764
  54.8143966  30.9960791  77.6508049  54.1384603  30.8954921  78.3210424
  55.6371600  30.8400005  78.1144046  46.5622825  37.2332728  70.2720564
  47.1476262  36.4876416  70.4048468  46.3647663  37.5436684  71.1557228
  41.1540480  29.8038328  68.9925007  41.1924579  29.2701919  69.7862125
  40.6480772  29.2773534  68.3735984  53.5566749  42.3027719  71.8865665
  54.1085057  42.4659340  72.6514750  53.8972942  42.8932157  71.2145690
  48.5331242  24.6502868  72.4887550  48.5972568  25.5117699  72.0764947
  48.4698362  24.0376870  71.7559908  48.0083514  26.7226001  76.1360584
  48.6355553  26.3403078  76.7498108  47.1511433  26.5040203  76.5016276
  58.4077623  37.1288976  77.7414319  58.9517527  37.7418934  77.2469274
  57.8264468  37.6868555  78.2581332  44.7849057  28.5302430  62.0678939
  45.0802498  27.6213109  62.0145992  43.8837093  28.5090170  61.7459941
  56.6935136  40.2509694  68.8729347  56.5686275  39.4499434  68.3640293
  57.3514227  40.7455888  68.3843317  48.3143304  26.6058427  68.0506487
  47.5929890  27.2194394  67.9113961  49.1036560  27.1416192  67.9723133
  58.7570044  38.0518714  70.5008897  57.8100380  37.9324065  70.4287224
  59.1052818  37.1641212  70.5835159  51.1169618  23.9412853  74.3247139
  51.6404020  24.1875150  75.0873448  50.8981951  24.7732888  73.9050276
  46.5136899  26.2116528  62.1918264  46.1849605  25.3313907  62.0093370
  46.8676270  26.1564196  63.0794653  55.7616478  37.8471431  66.7013249
  55.6141440  36.9188138  66.8820819  56.5869971  37.8691521  66.2170325
  49.6278722  26.4989498  62.5593742  49.9674794  27.0275419  61.8372350
  50.0750842  26.8369904  63.3352308  59.3650600  38.6699989  67.7878122
  60.2897147  38.4642851  67.6502573  59.1965903  38.4216390  68.6967464
  52.3222163  24.8826548  72.0096810  51.9818983  24.0834361  72.4117489
  51.6161169  25.1828259  71.4373643  52.9738635  21.9675861  70.4624133
  53.7964704  21.4936339  70.3403023  53.2176698  22.7466345  70.9622819
  51.6146869  24.9964119  60.7587034  52.3355232  25.3745372  60.2550751
  50.9912173  25.7152996  60.8622012  55.7577992  25.7009268  61.6945367
  55.9741606  26.5833906  61.3934195  55.2772059  25.3095482  60.9651009
  50.4977213  28.6594981  68.2716111  50.3521794  28.9735284  69.1640393
  50.0202417  29.2779882  67.7187010  52.3573596  25.6497529  68.3197001
  52.3435165  24.7538623  67.9829299  53.0746024  25.6568193  68.9535287
  54.2099727  26.0834870  70.3650128  53.9517505  27.0051940  70.3634459
  53.6784767  25.6865304  71.0550592  59.1545916  39.1885657  63.1440214
  59.3282793  38.6232079  62.3914066  59.6474807  39.9886552  62.9619704
  44.9722876  31.2000326  71.2103772  44.4276344  31.9760134  71.3424047
  45.8502225  31.5471130  71.0522894  51.7610492  24.5311910  63.5884571
  51.8826403  23.6028556  63.7875458  51.4712535  24.5450596  62.6762886
  54.6301683  22.2166820  66.7251291  54.6523379  22.2806153  65.7703270
  55.0469742  21.3771329  66.9191797  65.0085307  31.9522080  64.7630513
  65.4516453  31.2029405  64.3649637  64.1311817  31.9432216  64.3804245
  60.1421088  38.5052421  60.2437112  60.8371993  39.1259114  60.4624427
  60.4844238  37.6547772  60.5189490  45.7588897  30.3270222  74.1033929
  45.0170633  30.4752857  74.6898560  45.4381642  30.5878488  73.2400679
  53.7032560  39.8686200  73.9014319  54.0119687  39.6235347  74.7737019
  54.5008042  40.0732839  73.4133189  53.7253172  42.0224110  66.1319696
  53.2858162  41.5300489  66.8252553  54.4761289  41.4797078  65.8911771
  51.1727044  37.5662119  68.2041997  50.5507054  36.9032824  67.9044225
  51.8431911  37.5923251  67.5215645  44.4054116  36.1321977  67.0933257
  43.5686024  35.7044152  66.9117259  44.3777762  36.3254421  68.0304049
  51.2451572  26.0443907  77.7974504  51.2939727  26.9206030  77.4152273
  51.7874086  25.5021300  77.2246147  61.7306417  36.5885030  77.0775641
  60.9401961  36.5709169  76.5380140  61.4939772  37.1273324  77.8324677
  61.8504292  33.4377497  74.3908369  61.9002297  33.2727504  75.3323892
  61.7418216  32.5704756  74.0006250  50.7340551  36.1166042  61.6800458
  50.8828672  36.8001507  61.0267131  51.5406995  36.0971132  62.1949914
  59.1408055  29.4208425  75.7067676  60.0417918  29.2814890  75.4151674
  59.2156029  29.5862880  76.6465853  53.4750860  26.7975279  74.5520862
  52.6054170  27.0908845  74.2803451  53.7110341  27.3815724  75.2728126
  63.3522489  35.8574438  74.6350391  63.0607298  36.2204419  75.4713852
  62.7394621  35.1441446  74.4563723  64.5518172  33.4227318  67.1552961
  65.3865063  33.8617122  67.3190521  64.6877300  32.9465971  66.3361207
  61.6009678  30.9807053  73.1030449  62.0763799  31.1734699  72.2949300
  60.6775243  31.0366239  72.8573832  48.4893184  32.1431220  62.6861527
  48.2439226  31.2393550  62.8841737  48.6589099  32.1448370  61.7441005
  56.1789894  23.0154896  72.0686283  56.6971838  23.7515923  71.7432771
  55.8245027  23.3218890  72.9033042  47.7588832  27.8759578  60.1847688
  47.0658077  27.9503933  59.5287724  47.5140584  27.1119921  60.7069205
  56.4302488  19.4355179  67.5887179  56.7104242  18.7678368  68.2147606
  57.2153095  19.6284275  67.0761843  60.3011347  27.8572813  71.3358754
  61.2528769  27.9570911  71.3570978  60.1314797  27.0651081  71.8456839
  58.3225726  24.9428396  71.5218155  57.7275658  25.2233409  70.8264644
  58.0375423  25.4322297  72.2934896  57.4533216  38.8951323  60.2820788
  58.3863890  38.8296885  60.4853663  57.3656429  39.7307590  59.8235320
  60.0821233  38.2117193  57.2424735  60.0034865  37.8777057  58.1360493
  60.9030900  38.7038961  57.2416208  62.7799424  31.0778933  70.4501054
  62.7475744  30.1394933  70.6360738  63.3900048  31.1562969  69.7166879
  54.6182755  29.9474986  56.4928258  55.5641860  29.8181194  56.5616676
  54.2397000  29.2089647  56.9697686  62.9293913  27.8689976  70.4959337
  62.4132961  27.0848433  70.3089266  63.8133861  27.5408693  70.6605857
  60.5904640  21.6130992  66.4555150  60.3929461  21.3046080  67.3398482
  61.2004345  22.3392630  66.5853080  68.5975974  32.1394939  69.5907091
  69.3279363  31.8780228  70.1514794  67.9882920  31.4023661  69.6309159
  66.6791271  30.2802802  70.1881542  65.9524435  30.1458767  69.5798033
  66.2638558  30.5879631  70.9938260  54.5021448  33.9992732  77.9528915
  55.4224457  34.1771331  78.1468961  54.4671031  33.0548777  77.8008614
  52.8025672  27.8724962  56.4283143  51.8957128  27.5758075  56.5045857
  53.0801653  27.5754780  55.5617429  43.7203613  29.1931325  66.8782190
  43.4006397  28.3396634  66.5856564  43.1737041  29.4079903  67.6340157
  47.4983520  31.9093766  70.5951696  47.7169530  32.8410874  70.6139730
  47.9109294  31.5501741  71.3806500  54.4187738  22.4161852  62.5827384
  53.6088466  22.0708937  62.9582631  55.1072155  22.1069395  63.1714996
  56.3478286  21.4939898  64.2051681  56.9009325  21.9135352  64.8641704
  56.5848373  20.5675647  64.2474637  52.3711386  27.4826972  79.9854445
  52.2708112  28.4321329  79.9166536  52.1532928  27.1545211  79.1130515
  51.5724457  24.7311897  56.5695122  52.4343621  25.0566795  56.8290940
  51.7574801  23.9443393  56.0568188  43.5891873  32.8134237  68.8475311
  42.8955344  32.3988190  68.3345266  44.3364864  32.8554773  68.2508730
  59.7257093  23.6040424  63.7130345  59.1455763  24.2625228  63.3308398
  59.4593026  22.7817768  63.3017763  58.1760660  23.0045481  65.9151666
  58.6760438  23.1162016  65.1065985  58.8196268  22.7006534  66.5552474
  52.2342656  30.9124111  78.8019507  51.7509737  31.7124471  79.0083396
  52.3203595  30.9232056  77.8486951  45.5028615  32.7452491  66.7241326
  45.4799303  32.8440178  65.7723209  45.8129252  33.5917641  67.0458492
  48.1615993  34.8028646  70.8387940  49.1159247  34.7712588  70.7717872
  47.9628517  34.3419269  71.6538166  48.7515375  33.3729762  73.4058738
  49.5708264  33.8673840  73.4293575  49.0252183  32.4561730  73.3776306
  58.5081971  25.7640514  62.7686694  57.6207826  26.0490165  62.5506888
  58.9235961  25.6034277  61.9213971  61.8596508  25.7887035  66.4841033
  62.6356898  26.2783487  66.7565650  61.1344642  26.2145089  66.9412902
  64.2969066  26.5014654  67.5414974  64.8913557  26.2610390  66.8308282
  64.3695650  25.7821785  68.1688510  57.6525185  35.5285189  56.8634714
  58.3561035  35.7335191  57.4792369  56.9287834  36.0961951  57.1283797
  58.4822995  31.2795050  62.9836984  58.4258197  31.7363601  62.1444616
  59.0351338  30.5185735  62.8059827  62.2927801  27.0684782  63.8087103
  62.0364735  26.6681417  64.6395311  61.6680669  27.7828576  63.6837242
  66.6040139  29.8080855  66.3158395  66.0439697  29.8774044  67.0889957
  65.9983642  29.6321840  65.5957891  49.6735348  41.2417582  68.0676581
  49.5567732  42.1863015  67.9655271  48.8527794  40.9391144  68.4562380
  59.5611882  35.9667718  58.9133174  60.3957486  35.5348916  58.7310648
  59.3996225  35.7949732  59.8410068  59.2157775  32.4699831  60.2789513
  59.1606578  32.3044103  59.3377957  58.5903830  33.1775864  60.4351703
  44.0050290  27.7067896  74.1050935  44.6509153  27.1966850  74.5938160
  43.7967441  28.4436577  74.6794360  56.5303682  34.7748743  79.6043076
  57.3994841  34.9489395  79.2429711  56.0510433  35.5943160  79.4818805
  52.5253900  21.9707940  59.8574831  52.5132570  22.9149780  60.0143102
  53.4177322  21.7878086  59.5634293  50.6989862  41.8945844  71.2832509
  51.6017109  41.9269454  71.5999004  50.4727232  40.9646295  71.2978845
  52.4543464  40.6476831  67.9442588  51.5039095  40.6478692  67.8306960
  52.7575950  39.9009565  67.4278623  56.3406019  18.5650717  64.1120768
  55.5738415  18.0109204  64.2577451  56.7516724  18.6372586  64.9734920
  48.3447781  24.8535513  78.2025949  49.2079242  24.4972317  78.4129274
  47.7713191  24.5149407  78.8901354  73.1445853  44.1464056  66.9874537
  73.8771025  43.5763273  67.2212366  72.3885209  43.7585656  67.4281043
  70.6671273  37.8585630  71.4469146  70.3354598  38.7281041  71.2230361
  70.0716887  37.5421914  72.1263176  64.6340802  43.9970362  76.4697393
  63.8574137  44.5564282  76.4600258  65.2731366  44.4827145  76.9912263
  72.4261583  40.7797155  70.3040370  71.7835963  41.0729688  69.6580164
  71.9216512  40.6650075  71.1093566  62.8887175  46.8055815  76.0315360
  63.6301859  47.3440859  75.7550184  62.1824160  47.4322104  76.1886912
  67.8673030  41.5461931  73.6602252  67.6233962  42.3003991  73.1236528
  68.1432960  41.9247278  74.4949499  67.4237722  40.7018364  69.2416090
  66.5622201  40.9999617  69.5332827  67.4500156  40.9188763  68.3097122
  61.6248539  43.9595463  76.8330670  60.9947199  44.6411744  77.0666067
  61.5184626  43.8478545  75.8883808  56.9193511  43.6267259  67.7596594
  56.1292565  43.8824788  67.2836705  57.4104758  44.4415597  67.8648635
  55.2031214  43.8797750  70.1911585  55.4539252  44.7644760  70.4569161
  55.7390762  43.7002351  69.4186677  79.0263314  47.3111247  66.8586846
  78.2727022  46.7418645  66.7030851  79.1610855  47.2773912  67.8057481
  60.9029281  38.2616229  79.1955921  60.5096227  37.7082428  79.8703565
  61.7195422  38.5726808  79.5862438  63.8197242  39.6774108  76.7876178
  64.5606956  40.2781262  76.7080640  64.0515165  38.9351746  76.2294220
  67.7654405  35.7055211  71.0640459  67.4218675  36.5956853  70.9879570
  68.1333368  35.5156869  70.2010044  66.8450946  38.0759866  69.0289692
  66.3415741  38.0390002  68.2157498  67.1381552  38.9852609  69.0886349
  63.0893831  38.1598596  68.0355874  63.9546828  37.9641405  67.6761764
  63.1571340  37.9308948  68.9625231  60.6956151  40.3900804  65.4072241
  61.2699902  40.1675986  64.6745434  61.2827133  40.4589499  66.1600842
  69.5642071  34.9648770  66.1658197  69.8700948  34.1046134  65.8784112
  70.2894676  35.5566391  65.9657191  73.1027459  47.4639884  63.9688990
  72.9645358  47.6541480  63.0410179  72.7463678  48.2259266  64.4257041
  61.2669585  41.4497979  70.0486002  61.9068965  41.3086738  69.3508965
  60.4347116  41.1632492  69.6724604  58.2698202  41.4198304  64.8258989
  58.5305019  42.3343637  64.7168149  59.0915374  40.9522746  64.9755601
  59.7423127  42.8336061  71.9957813  60.4146180  42.6253423  71.3470462
  58.9152914  42.6358147  71.5563045  65.6448699  39.4598002  74.0123474
  64.9976614  40.1587952  73.9187950  66.4149714  39.8934146  74.3799722
  69.0527497  49.7246854  77.0874027  68.9013003  49.4957406  76.1704111
  69.0432176  50.6817455  77.1005372  70.7619704  52.7565977  75.1650509
  70.7032250  52.0725197  74.4981092  71.1639222  53.4984967  74.7131135
  61.4861859  42.8063841  74.0639569  60.9499216  42.3554580  74.7161166
  60.8978567  42.9409750  73.3210034  57.2200980  41.9419849  71.1492564
  57.1359169  41.3345518  70.4142974  56.3983687  42.4328867  71.1502060
  69.8343689  37.3943006  68.6642118  68.9206769  37.6247233  68.8324325
  70.2636790  37.4781450  69.5156150  65.6537720  46.3252709  77.6508049
  64.9778357  46.2246838  78.3210424  66.4765354  46.1691923  78.1144046
  59.3724996  39.9794786  72.4887550  59.4366323  40.8409617  72.0764947
  59.3092117  39.3668788  71.7559908  58.8477269  42.0517919  76.1360584
  59.4749308  41.6694996  76.7498108  57.9905188  41.8332121  76.5016276
  69.2471378  52.4580894  77.7414319  69.7911282  53.0710852  77.2469274
  68.6658222  53.0160472  78.2581332  59.1537059  41.9350344  68.0506487
  58.4323644  42.5486312  67.9113961  59.9430315  42.4708109  67.9723133
  61.9563372  39.2704771  74.3247139  62.4797774  39.5167067  75.0873448
  61.7375706  40.1024806  73.9050276  57.3530653  41.5408445  62.1918264
  57.0243359  40.6605824  62.0093370  57.7070024  41.4856114  63.0794653
  60.4672476  41.8281415  62.5593742  60.8068549  42.3567337  61.8372350
  60.9144597  42.1661821  63.3352308  63.1615917  40.2118466  72.0096810
  62.8212738  39.4126279  72.4117489  62.4554924  40.5120177  71.4373643
  63.8132389  37.2967778  70.4624133  64.6358458  36.8228257  70.3403023
  64.0570453  38.0758262  70.9622819  61.3370968  43.9886899  68.2716111
  61.1915549  44.3027202  69.1640393  60.8596172  44.6071799  67.7187010
  63.1967351  40.9789447  68.3197001  63.1828920  40.0830540  67.9829299
  63.9139779  40.9860111  68.9535287  65.0493481  41.4126787  70.3650128
  64.7911259  42.3343858  70.3634459  64.5178522  41.0157222  71.0550592
  65.4695437  37.5458738  66.7251291  65.4917134  37.6098071  65.7703270
  65.8863496  36.7063246  66.9191797  75.8479061  47.2813997  64.7630513
  76.2910207  46.5321323  64.3649637  74.9705572  47.2724134  64.3804245
  62.0845326  41.3735825  77.7974504  62.1333482  42.2497948  77.4152273
  62.6267840  40.8313218  77.2246147  72.5700172  51.9176948  77.0775641
  71.7795716  51.9001087  76.5380140  72.3333526  52.4565242  77.8324677
  69.9801809  44.7500342  75.7067676  70.8811672  44.6106807  75.4151674
  70.0549784  44.9154797  76.6465853  64.3144615  42.1267197  74.5520862
  63.4447924  42.4200763  74.2803451  64.5504095  42.7107642  75.2728126
  74.1916244  51.1866356  74.6350391  73.9001052  51.5496336  75.4713852
  73.5788375  50.4733364  74.4563723  67.0183649  38.3446814  72.0686283
  67.5365592  39.0807841  71.7432771  66.6638781  38.6510807  72.9033042
  67.2696243  34.7647097  67.5887179  67.5497996  34.0970286  68.2147606
  68.0546850  34.9576192  67.0761843  71.1405101  43.1864731  71.3358754
  72.0922524  43.2862828  71.3570978  70.9708551  42.3942999  71.8456839
  69.1619481  40.2720314  71.5218155  68.5669413  40.5525326  70.8264644
  68.8769177  40.7614215  72.2934896  73.7687667  43.1981894  70.4959337
  73.2526716  42.4140350  70.3089266  74.6527616  42.8700610  70.6605857
  71.4298394  36.9422909  66.4555150  71.2323215  36.6337997  67.3398482
  72.0398100  37.6684548  66.5853080  79.4369729  47.4686857  69.5907091
  80.1673117  47.2072145  70.1514794  78.8276674  46.7315579  69.6309159
  77.5185026  45.6094720  70.1881542  76.7918189  45.4750685  69.5798033
  77.1032313  45.9171548  70.9938260  65.3415202  49.3284649  77.9528915
  66.2618212  49.5063248  78.1468961  65.3064785  48.3840695  77.8008614
  54.5597367  44.5223243  66.8782190  54.2400152  43.6688551  66.5856564
  54.0130795  44.7371821  67.6340157  63.2105140  42.8118890  79.9854445
  63.1101867  43.7613247  79.9166536  62.9926682  42.4837129  79.1130515
  63.0736410  46.2416029  78.8019507  62.5903492  47.0416389  79.0083396
  63.1597349  46.2523973  77.8486951  75.1362821  41.8306572  67.5414974
  75.7307312  41.5902308  66.8308282  75.2089404  41.1113702  68.1688510
  77.4433893  45.1372773  66.3158395  76.8833451  45.2065962  67.0889957
  76.8377397  44.9613757  65.5957891  67.3697436  50.1040661  79.6043076
  68.2388596  50.2781313  79.2429711  66.8904188  50.9235078  79.4818805
  67.1799774  33.8942634  64.1120768  66.4132170  33.3401121  64.2577451
  67.5910479  33.9664503  64.9734920  59.1841535  40.1827430  78.2025949
  60.0472997  39.8264235  78.4129274  58.6106946  39.8441325  78.8901354
  79.0289912  61.8129287  69.0088350  79.6668322  61.6936034  68.3051690
  78.9110755  62.7610131  69.0676303  76.3199401  62.9191566  74.9036081
  76.3088042  62.5244365  74.0316584  76.4820041  62.1857639  75.4969852
  77.2765993  67.2863159  60.2461231  76.6253972  67.8717239  59.8595245
  78.0710355  67.8169354  60.3056268  73.0406662  65.7028678  73.8515265
  72.7496528  66.6074309  73.7361931  73.6763647  65.7445206  74.5659334
  73.9662869  63.0805527  70.4416624  74.5626441  62.8561549  69.7273587
  74.0237841  62.3390272  71.0442072  78.7541258  64.9753591  60.7830215
  78.1187091  65.0488217  61.4951120  78.4238664  65.5647190  60.1049295
  83.9839608  59.4755974  66.9874537  84.7164779  58.9055191  67.2212366
  83.2278963  59.0877574  67.4281043  81.5065028  53.1877548  71.4469146
  81.1748353  54.0572959  71.2230361  80.9110641  52.8713832  72.1263176
  77.9996547  65.3890094  70.8465058  77.6997271  66.2915133  70.7380866
  77.6547607  65.1222277  71.6986211  81.3993691  57.9072634  68.5262496
  80.4910569  57.8388042  68.2321257  81.3481287  58.3844579  69.3544321
  75.4734557  59.3262280  76.4697393  74.6967891  59.8856200  76.4600258
  76.1125120  59.8119063  76.9912263  83.2655338  56.1089072  70.3040370
  82.6229718  56.4021606  69.6580164  82.7610266  55.9941993  71.1093566
  80.9195501  59.8552246  60.9926229  81.8313357  60.0879632  60.8173926
  80.4105148  60.4389290  60.4301307  73.7280929  62.1347733  76.0315360
  74.4695614  62.6732777  75.7550184  73.0217915  62.7614022  76.1886912
  79.2036269  64.2776873  74.6287521  79.6119625  63.8359284  73.8842154
  78.4813530  63.7029501  74.8821714  75.5567339  59.2149480  72.0021078
  76.4028534  59.6388894  72.1455727  75.4965977  58.5583104  72.6959641
  79.5265084  64.8378064  68.3839810  78.8973946  65.0023778  67.6815878
  79.1390746  65.2519674  69.1550774  83.4054315  65.7732502  65.7384174
  82.7205354  66.1531403  65.1881207  83.4898165  66.3827829  66.4716122
  78.7066784  56.8753849  73.6602252  78.4627716  57.6295909  73.1236528
  78.9826715  57.2539196  74.4949499  80.6605247  63.4192461  72.3379518
  80.8722142  64.0624221  71.6613899  80.6134995  62.5854777  71.8701448
  78.2631476  56.0310282  69.2416090  77.4015955  56.3291535  69.5332827
  78.2893911  56.2480680  68.3097122  71.9717127  64.1223954  68.5869659
  72.5418484  64.5511222  67.9487143  72.5625238  63.8406538  69.2853844
  72.4642293  59.2887381  76.8330670  71.8340954  59.9703662  77.0666067
  72.3578381  59.1770463  75.8883808  81.7751075  66.2964416  70.5101875
  82.5968519  65.8944604  70.2284557  81.7713478  66.1932650  71.4617991
  75.5407678  65.8448460  72.6662585  75.6052111  66.3068867  73.5020757
  74.8318602  65.2145825  72.7944895  89.8657068  62.6403165  66.8586846
  89.1120776  62.0710563  66.7030851  90.0004609  62.6065829  67.8057481
  71.7423036  53.5908147  79.1955921  71.3489981  53.0374346  79.8703565
  72.5589176  53.9018725  79.5862438  74.6590997  55.0066026  76.7876178
  75.4000710  55.6073179  76.7080640  74.8908920  54.2643664  76.2294220
  69.8032335  60.1922393  75.0654407  69.6885850  59.2907651  75.3661506
  68.9476853  60.4386090  74.7139224  76.8824173  68.1340134  76.6641908
  76.4388027  67.3476512  76.3462812  77.5441386  68.3219284  75.9985799
  78.9805411  68.4142934  74.6923309  78.9623886  69.2351815  74.2003578
  79.9025331  68.2897009  74.9173450  75.4378465  65.9287063  75.5346817
  75.9706802  65.1675351  75.3046125  74.9092546  65.6360715  76.2770972
  78.6048160  51.0347129  71.0640459  78.2612429  51.9248771  70.9879570
  78.9727122  50.8448787  70.2010044  77.6844700  53.4051784  69.0289692
  77.1809496  53.3681919  68.2157498  77.9775307  54.3144527  69.0886349
  83.5432717  63.7788095  61.5066068  82.7662159  63.4399254  61.0621230
  84.2224198  63.7840718  60.8321033  81.7824023  63.2522076  68.1632676
  81.1247698  63.9421337  68.2512804  82.5864423  63.6418508  68.5066662
  80.5929482  61.6066449  66.2136618  81.1061364  62.2396441  66.7158327
  81.2430706  61.0067644  65.8479978  77.8551857  71.5850773  58.9697289
  77.1813555  71.8882470  59.5782246  78.2417678  72.3879853  58.6202746
  76.1272011  62.9765861  60.5724593  75.2183230  62.6924893  60.6697062
  76.1567095  63.3964939  59.7127899  81.3591278  66.5872450  64.3415760
  80.9053606  65.7463360  64.3980951  80.7285245  67.2233849  64.6790540
  80.3024198  57.5164436  65.5716428  79.5646955  57.0041822  65.9026670
  80.5550972  57.0764818  64.7599704  79.8024218  68.4248947  65.2765578
  80.0947192  68.9854004  64.5577944  80.3122838  68.7177508  66.0318737
  80.4035825  50.2940688  66.1658197  80.7094702  49.4338052  65.8784112
  81.1288430  50.8858308  65.9657191  78.2123477  59.6713365  73.2639661
  78.5672864  59.8984839  74.1234126  78.8595608  60.0031742  72.6416916
  83.9421214  62.7931801  63.9688990  83.8039112  62.9833397  63.0410179
  83.5857432  63.5551184  64.4257041  83.9690593  64.8608328  68.9800261
  84.4027100  64.7683617  69.8283315  84.6822174  64.8365829  68.3420277
  77.7018488  68.4610422  70.5133362  77.7555510  69.0301359  71.2811078
  76.8333270  68.6312307  70.1487399  70.5816882  58.1627979  71.9957813
  71.2539935  57.9545341  71.3470462  69.7546668  57.9650065  71.5563045
  84.8306143  64.9032029  71.5133147  85.0242033  65.8077840  71.7592422
  84.7306761  64.4439448  72.3471732  76.4842454  54.7889920  74.0123474
  75.8370369  55.4879869  73.9187950  77.2543469  55.2226064  74.3799722
  79.8921251  65.0538772  77.0874027  79.7406758  64.8249323  76.1704111
  79.8825931  66.0109373  77.1005372  76.6606588  62.6270684  72.0720294
  77.5898648  62.7781844  71.8989261  76.2397618  62.7154705  71.2168940
  75.4594920  66.6521349  69.8418831  75.3206005  66.2840133  70.7144769
  74.6709516  67.1668988  69.6702789  77.0100135  66.0302952  67.2307669
  76.6749967  65.9903722  68.1265319  76.5104081  65.3647668  66.7578079
  70.9844379  61.4370582  72.7560250  70.8464177  60.7050820  73.3571789
  71.8949302  61.3479482  72.4744438  73.6126679  61.1490541  72.2443930
  74.3226298  60.5083733  72.2030548  73.5695988  61.4003436  73.1670111
  81.6013458  68.0857894  75.1650509  81.5426004  67.4017114  74.4981092
  82.0032977  68.8276884  74.7131135  72.3255613  58.1355759  74.0639569
  71.7892970  57.6846497  74.7161166  71.7372322  58.2701668  73.3210034
  81.6030865  66.0497478  73.3964489  80.7157644  65.7123400  73.5190888
  82.1729416  65.3180509  73.6333254  78.2318449  55.7565330  66.5162759
  78.7287148  55.0035292  66.1963829  77.4605430  55.7929647  65.9505968
  86.0848206  61.4605696  68.1581050  86.0738082  62.3430411  67.7874984
  85.2165585  61.1077246  67.9635587  77.5930702  70.6085765  72.5183891
  78.3058675  71.2433229  72.4459792  77.1020731  70.7049631  71.7023892
  79.3148229  64.5137017  64.0901182  78.3804508  64.6338480  63.9205887
  79.4924898  63.6109484  63.8261192  82.7020781  60.3554337  64.6251216
  83.1681233  61.1882328  64.5511519  83.1528281  59.8899318  65.3296475
  72.6442616  68.3580208  73.3389461  73.3452075  68.9916691  73.4918856
  72.1737731  68.6994940  72.5785101  80.7697012  66.6998158  61.6237368
  81.0456856  66.5854752  62.5331243  79.9001510  66.3015643  61.5849542
  80.6737443  52.7234924  68.6642118  79.7600523  52.9539150  68.8324325
  81.1030545  52.8073368  69.5156150  80.4443902  60.9124816  71.1642012
  79.7915352  61.1600723  70.5094465  80.8224282  60.0988954  70.8304489
  77.4051076  70.9484509  65.2670182  77.5873470  70.1306165  65.7297934
  78.2284062  71.1652201  64.8295072  77.7393241  69.8752694  62.5285231
  78.2681008  69.3645148  61.9155393  78.0021461  69.5595224  63.3930764
  76.4931475  61.6544627  77.6508049  75.8172112  61.5538756  78.3210424
  77.3159109  61.4983840  78.1144046  75.2354258  72.9611554  71.8865665
  75.7872566  73.1243176  72.6514750  75.5760451  73.5515992  71.2145690
  69.6871023  57.3809836  76.1360584  70.3143062  56.9986914  76.7498108
  68.8298942  57.1624038  76.5016276  80.0865132  67.7872812  77.7414319
  80.6305036  68.4002770  77.2469274  79.5051977  68.3452390  78.2581332
  78.3722645  70.9093530  68.8729347  78.2473784  70.1083269  68.3640293
  79.0301736  71.4039723  68.3843317  80.4357553  68.7102550  70.5008897
  79.4887889  68.5907901  70.4287224  80.7840326  67.8225048  70.5835159
  72.7957127  54.5996689  74.3247139  73.3191529  54.8458985  75.0873448
  72.5769460  55.4316723  73.9050276  77.4403987  68.5055266  66.7013249
  77.2928949  67.5771973  66.8820819  78.2657480  68.5275357  66.2170325
  81.0438109  69.3283825  67.7878122  81.9684656  69.1226686  67.6502573
  80.8753412  69.0800226  68.6967464  74.0009672  55.5410384  72.0096810
  73.6606492  54.7418197  72.4117489  73.2948678  55.8412095  71.4373643
  75.8887236  56.7418705  70.3650128  75.6305014  57.6635776  70.3634459
  75.3572276  56.3449139  71.0550592  80.8333425  69.8469492  63.1440214
  81.0070302  69.2815915  62.3914066  81.3262316  70.6470387  62.9619704
  86.6872816  62.6105915  64.7630513  87.1303962  61.8613240  64.3649637
  85.8099326  62.6016051  64.3804245  81.8208597  69.1636256  60.2437112
  82.5159502  69.7842949  60.4624427  82.1631747  68.3131608  60.5189490
  83.7200020  66.6135962  61.7724443  84.2451344  66.9523235  61.0473763
  83.6322373  65.6782977  61.5887577  75.3820069  70.5270036  73.9014319
  75.6907195  70.2819182  74.7737019  76.1795551  70.7316674  73.4133189
  72.9239081  56.7027742  77.7974504  72.9727236  57.5789865  77.4152273
  73.4661595  56.1605135  77.2246147  83.4093926  67.2468866  77.0775641
  82.6189470  67.2293004  76.5380140  83.1727281  67.7857159  77.8324677
  83.5291801  64.0961332  74.3908369  83.5789806  63.9311339  75.3323892
  83.4205725  63.2288591  74.0006250  80.8195564  60.0792260  75.7067676
  81.7205427  59.9398725  75.4151674  80.8943538  60.2446715  76.6465853
  75.1538369  57.4559115  74.5520862  74.2841679  57.7492681  74.2803451
  75.3897850  58.0399560  75.2728126  85.0309998  66.5158274  74.6350391
  84.7394807  66.8788254  75.4713852  84.4182130  65.8025282  74.4563723
  86.2305681  64.0811153  67.1552961  87.0652572  64.5200957  67.3190521
  86.3664809  63.6049807  66.3361207  83.2797187  61.6390888  73.1030449
  83.7551308  61.8318534  72.2949300  82.3562752  61.6950074  72.8573832
  77.8577403  53.6738732  72.0686283  78.3759347  54.4099759  71.7432771
  77.5032536  53.9802725  72.9033042  75.9123466  69.2698008  59.1512205
  75.3397433  69.8888195  58.6982677  76.4856259  69.8197370  59.6852127
  81.9798856  58.5156648  71.3358754  82.9316278  58.6154746  71.3570978
  81.8102306  57.7234917  71.8456839  80.0013235  55.6012231  71.5218155
  79.4063167  55.8817244  70.8264644  79.7162932  56.0906132  72.2934896
  79.1320725  69.5535158  60.2820788  80.0651399  69.4880720  60.4853663
  79.0443938  70.3891425  59.8235320  81.7608742  68.8701029  57.2424735
  81.6822374  68.5360892  58.1360493  82.5818409  69.3622797  57.2416208
  84.4586933  61.7362768  70.4501054  84.4263253  60.7978769  70.6360738
  85.0687557  61.8146805  69.7166879  84.6081422  58.5273811  70.4959337
  84.0920470  57.7432268  70.3089266  85.4921370  58.1992528  70.6605857
  82.2692149  52.2714827  66.4555150  82.0716970  51.9629915  67.3398482
  82.8791854  52.9976466  66.5853080  90.2763483  62.7978775  69.5907091
  91.0066872  62.5364063  70.1514794  89.6670429  62.0607497  69.6309159
  88.3578780  60.9386637  70.1881542  87.6311944  60.8042602  69.5798033
  87.9426067  61.2463466  70.9938260  76.1808957  64.6576567  77.9528915
  77.1011966  64.8355166  78.1468961  76.1458540  63.7132612  77.8008614
  74.0498895  58.1410807  79.9854445  73.9495621  59.0905164  79.9166536
  73.8320437  57.8129046  79.1130515  81.4044602  54.2624259  63.7130345
  80.8243271  54.9209063  63.3308398  81.1380535  53.4401604  63.3017763
  79.8548169  53.6629317  65.9151666  80.3547947  53.7745851  65.1065985
  80.4983777  53.3590370  66.5552474  73.9130165  61.5707946  78.8019507
  73.4297246  62.3708306  79.0083396  73.9991104  61.5815891  77.8486951
  69.8403502  65.4612481  70.8387940  70.7946756  65.4296423  70.7717872
  69.6416026  65.0003105  71.6538166  70.4302884  64.0313597  73.4058738
  71.2495773  64.5257676  73.4293575  70.7039692  63.1145565  73.3776306
  80.1869480  56.4224349  62.7686694  79.2995335  56.7074000  62.5506888
  80.6023470  56.2618113  61.9213971  83.5384017  56.4470870  66.4841033
  84.3144407  56.9367323  66.7565650  82.8132151  56.8728925  66.9412902
  85.9756575  57.1598490  67.5414974  86.5701066  56.9194226  66.8308282
  86.0483159  56.4405620  68.1688510  79.3312694  66.1869024  56.8634714
  80.0348544  66.3919027  57.4792369  78.6075343  66.7545786  57.1283797
  80.1610504  61.9378885  62.9836984  80.1045706  62.3947437  62.1444616
  80.7138847  61.1769570  62.8059827  83.9715310  57.7268617  63.8087103
  83.7152244  57.3265253  64.6395311  83.3468178  58.4412411  63.6837242
  88.2827648  60.4664690  66.3158395  87.7227206  60.5357880  67.0889957
  87.6771151  60.2905675  65.5957891  81.2399391  66.6251553  58.9133174
  82.0744995  66.1932752  58.7310648  81.0783734  66.4533567  59.8410068
  80.8945284  63.1283667  60.2789513  80.8394087  62.9627938  59.3377957
  80.2691339  63.8359699  60.4351703  78.2091191  65.4332578  79.6043076
  79.0782350  65.6073231  79.2429711  77.7297942  66.2526995  79.4818805
  70.0235289  55.5119348  78.2025949  70.8866751  55.1556153  78.4129274
  69.4500700  55.1733243  78.8901354  89.8683666  77.1421204  69.0088350
  90.5062076  77.0227952  68.3051690  89.7504509  78.0902048  69.0676303
  86.6773373  77.0948632  68.9449875  86.3391884  76.9789697  68.0570410
  87.5463141  76.6939798  68.9250881  82.5360188  78.9484109  64.9346766
  81.9725054  78.8574046  64.1663054  82.4212583  78.1284013  65.4149259
  87.1593156  78.2483484  74.9036081  87.1481796  77.8536282  74.0316584
  87.3213795  77.5149557  75.4969852  80.0824620  80.4435300  67.7730987
  80.8745912  80.1026125  67.3577286  80.3221270  80.5530275  68.6933140
  88.1159747  82.6155077  60.2461231  87.4647727  83.2009157  59.8595245
  88.9104110  83.1461271  60.3056268  82.0415374  79.7044214  60.6448365
  82.8146250  79.1573201  60.5061241  82.3940773  80.5688463  60.8562827
  83.8800417  81.0320596  73.8515265  83.5890283  81.9366227  73.7361931
  84.5157401  81.0737124  74.5659334  84.8056624  78.4097444  70.4416624
  85.4020196  78.1853467  69.7273587  84.8631595  77.6682190  71.0442072
  84.3781652  75.8636880  58.2766815  84.6307173  75.3418401  57.5150278
  83.4406211  75.7003025  58.3793499  89.4224935  74.8672658  66.0841558
  90.2088024  74.4492081  65.7331975  89.6863639  75.7718750  66.2523207
  89.5935012  80.3045508  60.7830215  88.9580845  80.3780135  61.4951120
  89.2632419  80.8939107  60.1049295  94.8233362  74.8047891  66.9874537
  95.5558534  74.2347108  67.2212366  94.0672718  74.4169492  67.4281043
  84.0977941  77.7664986  60.4791190  83.9814199  77.0909889  61.1472274
  84.2080201  77.2797360  59.6623343  86.4409482  77.2275133  64.1837879
  86.0767689  76.7005754  64.8950801  87.2976598  76.8373602  64.0104365
  92.3458782  68.5169465  71.4469146  92.0142107  69.3864876  71.2230361
  91.7504396  68.2005749  72.1263176  86.0814969  72.2565033  59.1799228
  86.2489371  73.1245269  59.5469699  85.8912138  72.4192314  58.2560517
  88.8390302  80.7182011  70.8465058  88.5391025  81.6207050  70.7380866
  88.4941361  80.4514195  71.6986211  82.2902783  77.1695808  66.8801763
  81.3653280  77.0372022  67.0879454  82.5387197  77.9490028  67.3771705
  92.2387446  73.2364552  68.5262496  91.3304323  73.1679960  68.2321257
  92.1875041  73.7136497  69.3544321  86.0604190  74.7122690  60.1645895
  85.9403815  75.1579741  61.0031375  85.3656778  75.0608008  59.6059433
  79.6511594  76.8129082  67.7145552  79.7803976  77.0663561  68.6284964
  78.9709046  77.4056790  67.3950207  83.8211082  87.4826332  63.8136026
  83.7435111  88.4334157  63.8924507  83.2172725  87.1372204  64.4710952
  86.3128311  74.6554197  76.4697393  85.5361646  75.2148117  76.4600258
  86.9518875  75.1410980  76.9912263  94.1049092  71.4380990  70.3040370
  93.4623472  71.7313523  69.6580164  93.6004021  71.3233910  71.1093566
  91.7589256  75.1844163  60.9926229  92.6707112  75.4171550  60.8173926
  91.2498903  75.7681207  60.4301307  84.5674684  77.4639651  76.0315360
  85.3089368  78.0024695  75.7550184  83.8611669  78.0905939  76.1886912
  90.0430023  79.6068791  74.6287521  90.4513379  79.1651202  73.8842154
  89.3207285  79.0321419  74.8821714  86.3961093  74.5441398  72.0021078
  87.2422289  74.9680811  72.1455727  86.3359731  73.8875022  72.6959641
  90.3658838  80.1669982  68.3839810  89.7367701  80.3315696  67.6815878
  89.9784500  80.5811591  69.1550774  94.2448070  81.1024420  65.7384174
  93.5599108  81.4823321  65.1881207  94.3291919  81.7119746  66.4716122
  89.5460539  72.2045766  73.6602252  89.3021471  72.9587827  73.1236528
  89.8220469  72.5831114  74.4949499  91.4999002  78.7484379  72.3379518
  91.7115897  79.3916138  71.6613899  91.4528750  77.9146695  71.8701448
  89.1025231  71.3602199  69.2416090  88.2409710  71.6583453  69.5332827
  89.1287665  71.5772598  68.3097122  85.9186800  79.9044390  65.6489895
  86.3825145  80.1832093  64.8594518  85.6543598  79.0027834  65.4662986
  82.8110881  79.4515871  68.5869659  83.3812238  79.8803140  67.9487143
  83.4018993  79.1698456  69.2853844  84.8555686  76.0267542  62.4579461
  85.5579729  76.4788586  62.9253387  84.5236315  75.3851361  63.0859354
  83.3036048  74.6179299  76.8330670  82.6734708  75.2995580  77.0666067
  83.1972135  74.5062380  75.8883808  78.5981020  74.2851095  67.7596594
  77.8080074  74.5408623  67.2836705  79.0892267  75.0999433  67.8648635
  92.6144830  81.6256334  70.5101875  93.4362273  81.2236521  70.2284557
  92.6107232  81.5224568  71.4617991  80.5495765  74.6495674  64.7180071
  79.7526929  74.7614368  65.2363566  80.3221358  74.9882326  63.8520961
  86.3801433  81.1740377  72.6662585  86.4445865  81.6360785  73.5020757
  85.6712357  80.5437742  72.7944895  76.8818723  74.5381585  70.1911585
  77.1326761  75.4228595  70.4569161  77.4178271  74.3586187  69.4186677
 100.7050823  77.9695082  66.8586846  99.9514531  77.4002481  66.7030851
 100.8398364  77.9357747  67.8057481  86.0949451  82.8408485  62.5341566
  85.9595125  83.6860021  62.9626414  86.6359263  83.0427762  61.7707500
  82.5816790  68.9200065  79.1955921  82.1883736  68.3666263  79.8703565
  83.3982931  69.2310643  79.5862438  79.5478848  80.3583923  63.1069491
  80.0603369  81.1527173  63.2575055  80.2001561  79.6610213  63.0403092
  81.3573733  83.4749679  65.1892244  81.5340361  84.3967644  65.0013228
  82.1530566  83.1608098  65.6186624  85.4984751  70.3357944  76.7876178
  86.2394465  70.9365097  76.7080640  85.7302674  69.5935582  76.2294220
  80.6426089  75.5214311  75.0654407  80.5279604  74.6199568  75.3661506
  79.7870607  75.7678008  74.7139224  87.7217927  83.4632051  76.6641908
  87.2781781  82.6768430  76.3462812  88.3835141  83.6511202  75.9985799
  82.4805048  84.9927853  71.1902586  83.0312473  84.8644916  70.4179580
  81.6416524  85.2922742  70.8397479  89.8199165  83.7434851  74.6923309
  89.8017640  84.5643732  74.2003578  90.7419085  83.6188926  74.9173450
  86.2772219  81.2578981  75.5346817  86.8100556  80.4967269  75.3046125
  85.7486300  80.9652633  76.2770972  89.4441914  66.3639047  71.0640459
  89.1006184  67.2540688  70.9879570  89.8120877  66.1740704  70.2010044
  77.5127765  78.6872577  63.8829061  78.3502987  79.0969585  63.6662769
  77.6906033  77.7472019  63.8529255  89.4092197  76.3547658  59.5712894
  88.8938820  77.1252262  59.8101282  89.1369505  75.6812794  60.1945956
  86.9939308  71.1997359  64.6298133  86.1380904  70.8104209  64.4503771
  87.4066260  71.2789319  63.7697918  88.5238455  68.7343702  69.0289692
  88.0203250  68.6973837  68.2157498  88.8169061  69.6436445  69.0886349
  84.7681340  68.8182432  68.0355874  85.6334337  68.6225240  67.6761764
  84.8358849  68.5892783  68.9625231  94.3826471  79.1080012  61.5066068
  93.6055914  78.7691172  61.0621230  95.0617952  79.1132636  60.8321033
  89.1978500  74.2274750  61.3972675  88.8928636  74.5420899  62.2482819
  90.1508942  74.3056170  61.4400008  87.6424932  80.3864973  63.0465629
  87.1146294  79.6517733  62.7338867  87.1412435  81.1639650  62.8005598
  92.6217778  78.5813994  68.1632676  91.9641452  79.2713255  68.2512804
  93.4258177  78.9710426  68.5066662  82.3743660  71.0484639  65.4072241
  82.9487411  70.8259821  64.6745434  82.9614642  71.1173334  66.1600842
  91.4323237  76.9358366  66.2136618  91.9455119  77.5688358  66.7158327
  92.0824461  76.3359562  65.8479978  82.7013247  73.0789100  59.4268126
  81.8650559  73.4163787  59.7477401  82.5618016  72.9438080  58.4895263
  84.6766327  67.9225888  64.1347310  84.0230740  67.6074906  63.5103925
  84.6346801  67.3001629  64.8607133  85.7877532  78.2045183  56.0500602
  84.8804594  77.9734437  56.2491751  86.2848564  77.4082803  56.2374584
  88.6945611  86.9142691  58.9697289  88.0207310  87.2174387  59.5782246
  89.0811433  87.7171771  58.6202746  87.9104068  74.4107822  68.4594958
  86.9926629  74.6322769  68.3016646  88.3264211  74.4854132  67.6006665
  88.6939115  75.8099238  63.5897638  89.4410934  76.3220635  63.2804760
  88.9630705  75.4883290  64.4502032  86.9665766  78.3057778  60.5724593
  86.0576985  78.0216811  60.6697062  86.9960849  78.7256857  59.7127899
  92.1985033  81.9164368  64.3415760  91.7447360  81.0755278  64.3980951
  91.5679000  82.5525766  64.6790540  91.1417953  72.8456354  65.5716428
  90.4040709  72.3333740  65.9026670  91.3944726  72.4056735  64.7599704
  90.6417972  83.7540865  65.2765578  90.9340947  84.3145922  64.5577944
  91.1516593  84.0469426  66.0318737  91.2429580  65.6232606  66.1658197
  91.5488457  64.7629969  65.8784112  91.9682185  66.2150226  65.9657191
  77.5353936  76.0263292  64.5539795  77.3378336  75.4332653  63.8290861
  76.9800600  75.7215503  65.2715734  85.5150660  75.9186399  66.6734388
  85.5699269  74.9660235  66.5976865  84.7041862  76.0745838  67.1575686
  86.6641853  79.8466522  57.9112671  86.2261283  79.1302381  57.4518309
  87.4052294  80.0742637  57.3497763  83.4543020  74.5363459  64.4324767
  82.6410885  74.8357629  64.8389959  83.9502014  74.1419147  65.1499249
  85.6051597  84.5321216  66.3659031  85.5627776  84.7582062  65.4367564
  86.5214296  84.2984590  66.5144833  89.0517231  75.0005283  73.2639661
  89.4066619  75.2276756  74.1234126  89.6989362  75.3323660  72.6416916
  94.7814968  78.1223719  63.9688990  94.6432867  78.3125315  63.0410179
  94.4251187  78.8843102  64.4257041  82.9457094  72.1081814  70.0486002
  83.5856474  71.9670573  69.3508965  82.1134625  71.8216328  69.6724604
  94.8084348  80.1900246  68.9800261  95.2420854  80.0975535  69.8283315
  95.5215928  80.1657746  68.3420277  83.7217398  81.4084245  66.1620994
  84.5157997  80.9134565  65.9603569  83.0109091  80.8802108  65.7988700
  88.5412243  83.7902340  70.5133362  88.5949265  84.3593276  71.2811078
  87.6727024  83.9604225  70.1487399  80.0300162  75.5527326  62.2380747
  79.0997750  75.4911782  62.4550709  80.1257634  75.0303279  61.4417388
  79.9485711  72.0782139  64.8258989  80.2092528  72.9927472  64.7168149
  80.7702883  71.6106582  64.9755601  81.4210636  73.4919896  71.9957813
  82.0933689  73.2837258  71.3470462  80.5940423  73.2941982  71.5563045
  95.6699897  80.2323947  71.5133147  95.8635787  81.1369757  71.7592422
  95.5700515  79.7731366  72.3471732  87.3236208  70.1181837  74.0123474
  86.6764123  70.8171787  73.9187950  88.0937223  70.5517981  74.3799722
  90.7315006  80.3830689  77.0874027  90.5800512  80.1541241  76.1704111
  90.7219685  81.3401291  77.1005372  87.5000342  77.9562602  72.0720294
  88.4292402  78.1073762  71.8989261  87.0791372  78.0446623  71.2168940
  86.2988674  81.9813267  69.8418831  86.1599760  81.6132051  70.7144769
  85.5103270  82.4960906  69.6702789  86.8936826  87.0822363  61.1844368
  87.0688582  86.6110406  61.9989991  86.2069614  87.7088129  61.4125629
  87.8493889  81.3594869  67.2307669  87.5143722  81.3195639  68.1265319
  87.3497835  80.6939585  66.7578079  81.8238133  76.7662499  72.7560250
  81.6857931  76.0342738  73.3571789  82.7343057  76.6771399  72.4744438
  90.7853081  78.7050904  57.5044729  90.1682252  77.9797732  57.4077781
  90.3169569  79.4660264  57.1611803  84.4520434  76.4782459  72.2443930
  85.1620052  75.8375651  72.2030548  84.4089742  76.7295353  73.1670111
  92.4407213  83.4149812  75.1650509  92.3819759  82.7309032  74.4981092
  92.8426731  84.1568802  74.7131135  83.1649368  73.4647677  74.0639569
  82.6286725  73.0138415  74.7161166  82.5766076  73.5993585  73.3210034
  81.4597911  90.2311726  67.9584228  81.6994510  90.8630250  68.6363247
  80.6167108  89.8799766  68.2449587  82.5751627  72.9236328  56.6266033
  81.6981093  72.8025129  56.2628280  83.0509380  72.1322406  56.3744922
  92.4424620  81.3789396  73.3964489  91.5551399  81.0415318  73.5190888
  93.0123171  80.6472427  73.6333254  78.8988489  72.6003684  71.1492564
  78.8146678  71.9929354  70.4142974  78.0771196  73.0912703  71.1502060
  85.9725773  86.0390848  70.3625732  85.8995945  86.8445820  70.8745037
  85.5303166  86.2382814  69.5373753  85.7615553  85.2762618  63.8728554
  84.9783075  85.8184298  63.9666778  86.4608298  85.7936598  64.2722795
  89.0712203  71.0857248  66.5162759  89.5680903  70.3327210  66.1963829
  88.2999185  71.1221564  65.9505968  96.9241960  76.7897613  68.1581050
  96.9131837  77.6722329  67.7874984  96.0559340  76.4369164  67.9635587
  88.4324457  85.9377682  72.5183891  89.1452429  86.5725147  72.4459792
  87.9414485  86.0341548  71.7023892  90.1541984  79.8428935  64.0901182
  89.2198262  79.9630397  63.9205887  90.3318652  78.9401402  63.8261192
  85.6547172  73.2274631  66.2434444  85.2844959  72.6745671  66.9315349
  86.1506264  72.6232764  65.6909444  93.5414535  75.6846254  64.6251216
  94.0074987  76.5174246  64.5511519  93.9922036  75.2191236  65.3296475
  83.4836370  83.6872126  73.3389461  84.1845830  84.3208609  73.4918856
  83.0131485  84.0286857  72.5785101  91.6090766  82.0290076  61.6237368
  91.8850610  81.9146670  62.5331243  90.7395265  81.6307560  61.5849542
  91.5131198  68.0526841  68.6642118  90.5994278  68.2831068  68.8324325
  91.9424299  68.1365285  69.5156150  91.2837656  76.2416733  71.1642012
  90.6309107  76.4892641  70.5094465  91.6618036  75.4280871  70.8304489
  88.2444830  86.2776426  65.2670182  88.4267225  85.4598082  65.7297934
  89.0677816  86.4944119  64.8295072  88.5786996  85.2044612  62.5285231
  89.1074762  84.6937066  61.9155393  88.8415215  84.8887142  63.3930764
  87.3325229  76.9836544  77.6508049  86.6565866  76.8830674  78.3210424
  88.1552863  76.8275758  78.1144046  79.0804088  83.2208481  70.2720564
  79.6657525  82.4752169  70.4048468  78.8828927  83.5312438  71.1557228
  81.9342744  86.2559728  65.2883007  81.2653119  86.7405856  64.8047047
  81.7955613  86.5028949  66.2026385  86.0748012  88.2903472  71.8865665
  86.6266320  88.4535093  72.6514750  86.4154206  88.8807910  71.2145690
  81.0512505  70.6378622  72.4887550  81.1153832  71.4993452  72.0764947
  80.9879626  70.0252623  71.7559908  80.5264778  72.7101754  76.1360584
  81.1536817  72.3278831  76.7498108  79.6692697  72.4915956  76.5016276
  90.9258887  83.1164729  77.7414319  91.4698791  83.7294688  77.2469274
  90.3445731  83.6744308  78.2581332  89.2116399  86.2385447  68.8729347
  89.0867539  85.4375187  68.3640293  89.8695491  86.7331641  68.3843317
  80.8324568  72.5934180  68.0506487  80.1111153  73.2070147  67.9113961
  81.6217823  73.1291945  67.9723133  91.2751308  84.0394467  70.5008897
  90.3281643  83.9199819  70.4287224  91.6234081  83.1516965  70.5835159
  83.6350881  69.9288606  74.3247139  84.1585283  70.1750903  75.0873448
  83.4163215  70.7608641  73.9050276  79.0318162  72.1992281  62.1918264
  78.7030868  71.3189660  62.0093370  79.3857533  72.1439950  63.0794653
  88.2797741  83.8347184  66.7013249  88.1322704  82.9063891  66.8820819
  89.1051235  83.8567274  66.2170325  82.1459985  72.4865251  62.5593742
  82.4856058  73.0151172  61.8372350  82.5932106  72.8245657  63.3352308
  91.8831863  84.6575742  67.7878122  92.8078410  84.4518604  67.6502573
  91.7147166  84.4092143  68.6967464  84.8403426  70.8702301  72.0096810
  84.5000247  70.0710114  72.4117489  84.1342433  71.1704012  71.4373643
  85.4919898  67.9551614  70.4624133  86.3145967  67.4812092  70.3403023
  85.7357962  68.7342098  70.9622819  84.1328133  70.9839872  60.7587034
  84.8536495  71.3621125  60.2550751  83.5093437  71.7028749  60.8622012
  88.2759255  71.6885021  61.6945367  88.4922870  72.5709659  61.3934195
  87.7953323  71.2971235  60.9651009  83.0158477  74.6470734  68.2716111
  82.8703058  74.9611037  69.1640393  82.5383681  75.2655635  67.7187010
  84.8754860  71.6373282  68.3197001  84.8616429  70.7414376  67.9829299
  85.5927288  71.6443946  68.9535287  86.7280990  72.0710623  70.3650128
  86.4698768  72.9927693  70.3634459  86.1966031  71.6741057  71.0550592
  91.6727179  85.1761410  63.1440214  91.8464057  84.6107832  62.3914066
  92.1656070  85.9762305  62.9619704  77.4904139  77.1876079  71.2103772
  76.9457607  77.9635887  71.3424047  78.3683489  77.5346883  71.0522894
  84.2791756  70.5187663  63.5884571  84.4007667  69.5904309  63.7875458
  83.9893798  70.5326349  62.6762886  87.1482946  68.2042573  66.7251291
  87.1704643  68.2681906  65.7703270  87.5651005  67.3647082  66.9191797
  97.5266570  77.9397833  64.7630513  97.9697716  77.1905158  64.3649637
  96.6493081  77.9307969  64.3804245  92.6602352  84.4928174  60.2437112
  93.3553256  85.1134867  60.4624427  93.0025502  83.6423525  60.5189490
  78.2770161  76.3145975  74.1033929  77.5351897  76.4628610  74.6898560
  77.9562905  76.5754241  73.2400679  94.5593775  81.9427880  61.7724443
  95.0845099  82.2815152  61.0473763  94.4716127  81.0074895  61.5887577
  86.2213824  85.8561953  73.9014319  86.5300950  85.6111100  74.7737019
  87.0189306  86.0608592  73.4133189  86.2434436  88.0099863  66.1319696
  85.8039426  87.5176242  66.8252553  86.9942553  87.4672831  65.8911771
  78.7226775  84.2011404  66.1344324  79.5484794  83.9015176  65.7542967
  78.3720827  83.4319026  66.5834113  83.6908308  83.5537872  68.2041997
  83.0688317  82.8908577  67.9044225  84.3613175  83.5799004  67.5215645
  76.9235380  82.1197730  67.0933257  76.0867288  81.6919905  66.9117259
  76.8959025  82.3130174  68.0304049  83.7632835  72.0319660  77.7974504
  83.8120991  72.9081783  77.4152273  84.3055349  71.4897053  77.2246147
  94.2487681  82.5760783  77.0775641  93.4583225  82.5584922  76.5380140
  94.0121035  83.1149077  77.8324677  94.3685556  79.4253250  74.3908369
  94.4183561  79.2603257  75.3323892  94.2599479  78.5580509  74.0006250
  83.2521815  82.1041795  61.6800458  83.4009935  82.7877260  61.0267131
  84.0588258  82.0846885  62.1949914  91.6589318  75.4084178  75.7067676
  92.5599181  75.2690643  75.4151674  91.7337293  75.5738633  76.6465853
  85.9932124  72.7851032  74.5520862  85.1235433  73.0784599  74.2803451
  86.2291604  73.3691477  75.2728126  95.8703753  81.8450191  74.6350391
  95.5788561  82.2080172  75.4713852  95.2575884  81.1317199  74.4563723
  97.0699435  79.4103071  67.1552961  97.9046326  79.8492875  67.3190521
  97.2058564  78.9341724  66.3361207  94.1190941  76.9682806  73.1030449
  94.5945063  77.1610452  72.2949300  93.1956506  77.0241992  72.8573832
  81.0074448  78.1306973  62.6861527  80.7620490  77.2269303  62.8841737
  81.1770362  78.1324123  61.7441005  88.6971158  69.0030649  72.0686283
  89.2153101  69.7391676  71.7432771  88.3426290  69.3094643  72.9033042
  80.2770095  73.8635331  60.1847688  79.5839340  73.9379686  59.5287724
  80.0321847  73.0995674  60.7069205  88.9483752  65.4230932  67.5887179
  89.2285505  64.7554121  68.2147606  89.7334359  65.6160028  67.0761843
  86.7517220  84.5989926  59.1512205  86.1791187  85.2180113  58.6982677
  87.3250014  85.1489288  59.6852127  92.8192610  73.8448566  71.3358754
  93.7710033  73.9446664  71.3570978  92.6496060  73.0526834  71.8456839
  90.8406989  70.9304149  71.5218155  90.2456922  71.2109162  70.8264644
  90.5556686  71.4198050  72.2934896  89.9714480  84.8827076  60.2820788
  90.9045153  84.8172638  60.4853663  89.8837693  85.7183343  59.8235320
  92.6002497  84.1992946  57.2424735  92.5216128  83.8652810  58.1360493
  93.4212163  84.6914714  57.2416208  95.2980688  77.0654686  70.4501054
  95.2657008  76.1270686  70.6360738  95.9081311  77.1438722  69.7166879
  87.1364019  75.9350739  56.4928258  88.0823123  75.8056947  56.5616676
  86.7578264  75.1965400  56.9697686  95.4475176  73.8565729  70.4959337
  94.9314225  73.0724186  70.3089266  96.3315125  73.5284446  70.6605857
  93.1085903  67.6006745  66.4555150  92.9110724  67.2921833  67.3398482
  93.7185609  68.3268384  66.5853080 101.1157238  78.1270692  69.5907091
 101.8460626  77.8655981  70.1514794 100.5064183  77.3899414  69.6309159
  99.1972535  76.2678555  70.1881542  98.4705698  76.1334520  69.5798033
  98.7819822  76.5755384  70.9938260  87.0202711  79.9868485  77.9528915
  87.9405721  80.1647084  78.1468961  86.9852294  79.0424530  77.8008614
  85.3206936  73.8600715  56.4283143  84.4138391  73.5633828  56.5045857
  85.5982917  73.5630533  55.5617429  80.0164784  77.8969519  70.5951696
  80.2350794  78.8286627  70.6139730  80.4290558  77.5377494  71.3806500
  86.9369002  68.4037605  62.5827384  86.1269730  68.0584690  62.9582631
  87.6253418  68.0945148  63.1714996  88.8659550  67.4815651  64.2051681
  89.4190588  67.9011105  64.8641704  89.1029636  66.5551400  64.2474637
  84.8892649  73.4702725  79.9854445  84.7889376  74.4197082  79.9166536
  84.6714191  73.1420964  79.1130515  84.0905720  70.7187650  56.5695122
  84.9524884  71.0442548  56.8290940  84.2756065  69.9319146  56.0568188
  76.1073136  78.8009990  68.8475311  75.4136608  78.3863943  68.3345266
  76.8546127  78.8430526  68.2508730  92.2438357  69.5916177  63.7130345
  91.6637026  70.2500981  63.3308398  91.9774290  68.7693521  63.3017763
  90.6941923  68.9921234  65.9151666  91.1941702  69.1037769  65.1065985
  91.3377531  68.6882287  66.5552474  84.7523919  76.8999864  78.8019507
  84.2691001  77.7000224  79.0083396  84.8384858  76.9107809  77.8486951
  78.0209879  78.7328244  66.7241326  77.9980567  78.8315931  65.7723209
  78.3310515  79.5793394  67.0458492  80.6797257  80.7904399  70.8387940
  81.6340510  80.7588341  70.7717872  80.4809780  80.3295022  71.6538166
  81.2696639  79.3605515  73.4058738  82.0889528  79.8549593  73.4293575
  81.5433446  78.4437483  73.3776306  91.0263235  71.7516267  62.7686694
  90.1389090  72.0365918  62.5506888  91.4417224  71.5910030  61.9213971
  94.3777771  71.7762788  66.4841033  95.1538161  72.2659240  66.7565650
  93.6525905  72.2020842  66.9412902  96.8150330  72.4890407  67.5414974
  97.4094821  72.2486143  66.8308282  96.8876913  71.7697538  68.1688510
  79.0347485  86.3324018  67.8558138  78.9001953  85.5724419  67.2896136
  78.6179548  87.0564918  67.3886927  90.1706448  81.5160942  56.8634714
  90.8742299  81.7210944  57.4792369  89.4469097  82.0837704  57.1283797
  91.0004259  77.2670803  62.9836984  90.9439460  77.7239354  62.1444616
  91.5532601  76.5061488  62.8059827  94.8109065  73.0560535  63.8087103
  94.5545999  72.6557170  64.6395311  94.1861933  73.7704329  63.6837242
  99.1221402  75.7956608  66.3158395  98.5620960  75.8649797  67.0889957
  98.5164906  75.6197593  65.5957891  82.1916611  87.2293335  68.0676581
  82.0748995  88.1738768  67.9655271  81.3709058  86.9266897  68.4562380
  92.0793146  81.9543471  58.9133174  92.9138750  81.5224669  58.7310648
  91.9177489  81.7825485  59.8410068  91.7339038  78.4575584  60.2789513
  91.6787842  78.2919856  59.3377957  91.1085093  79.1651617  60.4351703
  76.5231553  73.6943649  74.1050935  77.1690417  73.1842603  74.5938160
  76.3148704  74.4312330  74.6794360  89.0484945  80.7624496  79.6043076
  89.9176105  80.9365148  79.2429711  88.5691697  81.5818913  79.4818805
  85.0435163  67.9583693  59.8574831  85.0313833  68.9025533  60.0143102
  85.9358585  67.7753839  59.5634293  83.2171125  87.8821597  71.2832509
  84.1198372  87.9145207  71.5999004  82.9908495  86.9522048  71.2978845
  84.9724727  86.6352584  67.9442588  84.0220358  86.6354445  67.8306960
  85.2757214  85.8885318  67.4278623  88.8587283  64.5526470  64.1120768
  88.0919679  63.9984957  64.2577451  89.2697988  64.6248339  64.9734920
  80.8629044  70.8411266  78.2025949  81.7260506  70.4848071  78.4129274
  80.2894455  70.5025160  78.8901354 100.7077421  92.4713122  69.0088350
 101.3455831  92.3519869  68.3051690 100.5898264  93.4193966  69.0676303
  97.5167127  92.4240550  68.9449875  97.1785639  92.3081615  68.0570410
  98.3856895  92.0231715  68.9250881  93.3753943  94.2776027  64.9346766
  92.8118808  94.1865963  64.1663054  93.2606338  93.4575931  65.4149259
  97.9986910  93.5775402  74.9036081  97.9875551  93.1828200  74.0316584
  98.1607550  92.8441474  75.4969852  90.9218375  95.7727218  67.7730987
  91.7139667  95.4318043  67.3577286  91.1615025  95.8822193  68.6933140
  98.9553502  97.9446994  60.2461231  98.3041481  98.5301075  59.8595245
  99.7497864  98.4753189  60.3056268  92.8809129  95.0336131  60.6448365
  93.6540005  94.4865118  60.5061241  93.2334528  95.8980381  60.8562827
  94.7194171  96.3612514  73.8515265  94.4284037  97.2658144  73.7361931
  95.3551156  96.4029041  74.5659334  95.6450378  93.7389362  70.4416624
  96.2413950  93.5145385  69.7273587  95.7025350  92.9974108  71.0442072
  95.2175407  91.1928797  58.2766815  95.4700927  90.6710319  57.5150278
  94.2799966  91.0294943  58.3793499 100.2618689  90.1964576  66.0841558
 101.0481779  89.7783999  65.7331975 100.5257394  91.1010668  66.2523207
 100.4328767  95.6337426  60.7830215  99.7974600  95.7072053  61.4951120
 100.1026173  96.2231025  60.1049295 105.6627117  90.1339809  66.9874537
 106.3952288  89.5639026  67.2212366 104.9066472  89.7461410  67.4281043
  94.9371695  93.0956903  60.4791190  94.8207953  92.4201807  61.1472274
  95.0473955  92.6089277  59.6623343  97.2803236  92.5567051  64.1837879
  96.9161443  92.0297672  64.8950801  98.1370352  92.1665520  64.0104365
 103.1852537  83.8461383  71.4469146 102.8535862  84.7156794  71.2230361
 102.5898150  83.5297667  72.1263176  96.9208723  87.5856950  59.1799228
  97.0883126  88.4537187  59.5469699  96.7305892  87.7484232  58.2560517
  99.6784056  96.0473929  70.8465058  99.3784779  96.9498968  70.7380866
  99.3335116  95.7806112  71.6986211  93.1296538  92.4987726  66.8801763
  92.2047034  92.3663940  67.0879454  93.3780951  93.2781945  67.3771705
 103.0781200  88.5656469  68.5262496 102.1698078  88.4971878  68.2321257
 103.0268796  89.0428414  69.3544321  96.8997944  90.0414608  60.1645895
  96.7797569  90.4871659  61.0031375  96.2050532  90.3899925  59.6059433
  90.4905349  92.1421000  67.7145552  90.6197730  92.3955478  68.6284964
  89.8102800  92.7348708  67.3950207  97.1522066  89.9846115  76.4697393
  96.3755400  90.5440035  76.4600258  97.7912629  90.4702898  76.9912263
 104.9442847  86.7672908  70.3040370 104.3017227  87.0605441  69.6580164
 104.4397775  86.6525828  71.1093566 102.5983010  90.5136081  60.9926229
 103.5100866  90.7463468  60.8173926 102.0892657  91.0973125  60.4301307
  95.4068438  92.7931568  76.0315360  96.1483123  93.3316612  75.7550184
  94.7005424  93.4197857  76.1886912 100.8823778  94.9360709  74.6287521
 101.2907134  94.4943119  73.8842154 100.1601039  94.3613336  74.8821714
  97.2354848  89.8733316  72.0021078  98.0816043  90.2972729  72.1455727
  97.1753486  89.2166940  72.6959641 101.2052593  95.4961899  68.3839810
 100.5761455  95.6607614  67.6815878 100.8178255  95.9103509  69.1550774
 100.3854293  87.5337684  73.6602252 100.1415225  88.2879744  73.1236528
 100.6614224  87.9123031  74.4949499 102.3392756  94.0776296  72.3379518
 102.5509651  94.7208056  71.6613899 102.2922504  93.2438613  71.8701448
  99.9418985  86.6894117  69.2416090  99.0803464  86.9875370  69.5332827
  99.9681420  86.9064516  68.3097122  96.7580554  95.2336307  65.6489895
  97.2218900  95.5124010  64.8594518  96.4937353  94.3319752  65.4662986
  93.6504636  94.7807789  68.5869659  94.2205993  95.2095057  67.9487143
  94.2412747  94.4990374  69.2853844  95.6949441  91.3559460  62.4579461
  96.3973484  91.8080504  62.9253387  95.3630069  90.7143279  63.0859354
  94.1429802  89.9471216  76.8330670  93.5128463  90.6287497  77.0666067
  94.0365890  89.8354298  75.8883808  89.4374774  89.6143012  67.7596594
  88.6473828  89.8700541  67.2836705  89.9286022  90.4291350  67.8648635
  91.3889520  89.9787592  64.7180071  90.5920683  90.0906286  65.2363566
  91.1615112  90.3174244  63.8520961  97.2195187  96.5032295  72.6662585
  97.2839620  96.9652702  73.5020757  96.5106111  95.8729660  72.7944895
  87.7212477  89.8673503  70.1911585  87.9720516  90.7520513  70.4569161
  88.2572026  89.6878104  69.4186677  96.9343205  98.1700402  62.5341566
  96.7988880  99.0151938  62.9626414  97.4753018  98.3719680  61.7707500
  93.4210545  84.2491982  79.1955921  93.0277490  83.6958181  79.8703565
  94.2376685  84.5602561  79.5862438  90.3872603  95.6875840  63.1069491
  90.8997123  96.4819091  63.2575055  91.0395315  94.9902131  63.0403092
  92.1967487  98.8041597  65.1892244  92.3734116  99.7259561  65.0013228
  92.9924321  98.4900016  65.6186624  96.3378506  85.6649861  76.7876178
  97.0788219  86.2657015  76.7080640  96.5696429  84.9227499  76.2294220
  91.4819844  90.8506229  75.0654407  91.3673359  89.9491486  75.3661506
  90.6264362  91.0969925  74.7139224  93.3198803 100.3219771  71.1902586
  93.8706228 100.1936834  70.4179580  92.4810279 100.6214660  70.8397479
  97.1165974  96.5870898  75.5346817  97.6494311  95.8259187  75.3046125
  96.5880055  96.2944550  76.2770972 100.2835669  81.6930964  71.0640459
  99.9399938  82.5832606  70.9879570 100.6514631  81.5032622  70.2010044
  88.3521519  94.0164495  63.8829061  89.1896741  94.4261503  63.6662769
  88.5299787  93.0763937  63.8529255 100.2485951  91.6839575  59.5712894
  99.7332575  92.4544180  59.8101282  99.9763260  91.0104712  60.1945956
  97.8333062  86.5289276  64.6298133  96.9774659  86.1396127  64.4503771
  98.2460014  86.6081237  63.7697918  99.3632209  84.0635619  69.0289692
  98.8597005  84.0265755  68.2157498  99.6562816  84.9728362  69.0886349
  95.6075095  84.1474349  68.0355874  96.4728092  83.9517158  67.6761764
  95.6752604  83.9184701  68.9625231 100.0372255  89.5566668  61.3972675
  99.7322390  89.8712817  62.2482819 100.9902697  89.6348087  61.4400008
  98.4818686  95.7156891  63.0465629  97.9540048  94.9809650  62.7338867
  97.9806189  96.4931567  62.8005598 103.4611532  93.9105911  68.1632676
 102.8035207  94.6005173  68.2512804 104.2651932  94.3002343  68.5066662
  93.2137414  86.3776557  65.4072241  93.7881166  86.1551739  64.6745434
  93.8008396  86.4465252  66.1600842 102.2716991  92.2650284  66.2136618
 102.7848873  92.8980276  66.7158327 102.9218215  91.6651480  65.8479978
  93.5407001  88.4081018  59.4268126  92.7044313  88.7455705  59.7477401
  93.4011771  88.2729998  58.4895263  95.5160082  83.2517806  64.1347310
  94.8624494  82.9366823  63.5103925  95.4740556  82.6293547  64.8607133
  96.6271287  93.5337101  56.0500602  95.7198348  93.3026355  56.2491751
  97.1242319  92.7374720  56.2374584  98.7497822  89.7399740  68.4594958
  97.8320383  89.9614687  68.3016646  99.1657966  89.8146050  67.6006665
  99.5332870  91.1391155  63.5897638 100.2804689  91.6512552  63.2804760
  99.8024459  90.8175208  64.4502032  97.8059520  93.6349696  60.5724593
  96.8970739  93.3508729  60.6697062  97.8354604  94.0548775  59.7127899
 101.9811707  88.1748272  65.5716428 101.2434464  87.6625658  65.9026670
 102.2338481  87.7348653  64.7599704 102.0823334  80.9524524  66.1658197
 102.3882211  80.0921887  65.8784112 102.8075939  81.5442144  65.9657191
  88.3747690  91.3555210  64.5539795  88.1772090  90.7624571  63.8290861
  87.8194354  91.0507420  65.2715734  96.3544414  91.2478317  66.6734388
  96.4093024  90.2952153  66.5976865  95.5435616  91.4037756  67.1575686
  97.5035608  95.1758440  57.9112671  97.0655038  94.4594299  57.4518309
  98.2446049  95.4034554  57.3497763  94.2936774  89.8655376  64.4324767
  93.4804640  90.1649547  64.8389959  94.7895768  89.4711065  65.1499249
  96.4445352  99.8613133  66.3659031  96.4021531 100.0873980  65.4367564
  97.3608051  99.6276508  66.5144833  99.8910986  90.3297201  73.2639661
 100.2460373  90.5568674  74.1234126 100.5383117  90.6615578  72.6416916
 105.6208723  93.4515637  63.9688990 105.4826621  93.6417233  63.0410179
 105.2644941  94.2135020  64.4257041  93.7850849  87.4373732  70.0486002
  94.4250228  87.2962491  69.3508965  92.9528379  87.1508245  69.6724604
  94.5611153  96.7376162  66.1620994  95.3551751  96.2426482  65.9603569
  93.8502845  96.2094025  65.7988700  90.8693916  90.8819244  62.2380747
  89.9391504  90.8203700  62.4550709  90.9651388  90.3595197  61.4417388
  90.7879465  87.4074057  64.8258989  91.0486282  88.3219390  64.7168149
  91.6096638  86.9398499  64.9755601  92.2604391  88.8211814  71.9957813
  92.9327444  88.6129176  71.3470462  91.4334177  88.6233900  71.5563045
  98.1629963  85.4473755  74.0123474  97.5157878  86.1463705  73.9187950
  98.9330978  85.8809899  74.3799722  98.3394097  93.2854520  72.0720294
  99.2686157  93.4365679  71.8989261  97.9185127  93.3738541  71.2168940
  97.1382429  97.3105184  69.8418831  96.9993514  96.9423969  70.7144769
  96.3497025  97.8252824  69.6702789  98.6887644  96.6886787  67.2307669
  98.3537476  96.6487557  68.1265319  98.1891589  96.0231503  66.7578079
  92.6631888  92.0954417  72.7560250  92.5251686  91.3634656  73.3571789
  93.5736811  92.0063317  72.4744438 101.6246835  94.0342821  57.5044729
 101.0076006  93.3089649  57.4077781 101.1563324  94.7952182  57.1611803
  95.2914188  91.8074376  72.2443930  96.0013807  91.1667569  72.2030548
  95.2483497  92.0587271  73.1670111  94.0043122  88.7939594  74.0639569
  93.4680479  88.3430333  74.7161166  93.4159831  88.9285503  73.3210034
  93.4145381  88.2528246  56.6266033  92.5374848  88.1317046  56.2628280
  93.8903134  87.4614324  56.3744922  84.9347522  93.0405405  66.7207540
  85.6218561  92.7267135  66.1328555  84.7795650  93.9446770  66.4474792
  89.7382244  87.9295602  71.1492564  89.6540432  87.3221271  70.4142974
  88.9164950  88.4204620  71.1502060  99.9105958  86.4149165  66.5162759
 100.4074657  85.6619128  66.1963829  99.1392939  86.4513482  65.9505968
 100.9935738  95.1720853  64.0901182 100.0592017  95.2922315  63.9205887
 101.1712407  94.2693319  63.8261192  96.4940926  88.5566548  66.2434444
  96.1238714  88.0037589  66.9315349  96.9900019  87.9524682  65.6909444
 104.3808290  91.0138172  64.6251216 104.8468742  91.8466164  64.5511519
 104.8315790  90.5483154  65.3296475  94.3230125  99.0164043  73.3389461
  95.0239584  99.6500526  73.4918856  93.8525240  99.3578775  72.5785101
 102.3524952  83.3818759  68.6642118 101.4388032  83.6122986  68.8324325
 102.7818054  83.4657203  69.5156150 102.1231411  91.5708651  71.1642012
 101.4702861  91.8184558  70.5094465 102.5011791  90.7572789  70.8304489
  98.1718984  92.3128462  77.6508049  97.4959621  92.2122591  78.3210424
  98.9946618  92.1567676  78.1144046  89.9197843  98.5500398  70.2720564
  90.5051280  97.8044086  70.4048468  89.7222681  98.8604355  71.1557228
  92.7736498 101.5851646  65.2883007  92.1046873 102.0697774  64.8047047
  92.6349368 101.8320866  66.2026385  84.5115498  91.1205999  68.9925007
  84.5499597  90.5869589  69.7862125  84.0055790  90.5941204  68.3735984
  91.8906260  85.9670539  72.4887550  91.9547586  86.8285370  72.0764947
  91.8273380  85.3544541  71.7559908  91.3658532  88.0393672  76.1360584
  91.9930571  87.6570749  76.7498108  90.5086451  87.8207874  76.5016276
  88.1424075  89.8470101  62.0678939  88.4377516  88.9380779  62.0145992
  87.2412111  89.8257840  61.7459941  91.6718322  87.9226097  68.0506487
  90.9504908  88.5362065  67.9113961  92.4611578  88.4583862  67.9723133
  94.4744636  85.2580524  74.3247139  94.9979038  85.5042820  75.0873448
  94.2556969  86.0900559  73.9050276  89.8711917  87.5284199  62.1918264
  89.5424623  86.6481577  62.0093370  90.2251287  87.4731867  63.0794653
  92.9853740  87.8157168  62.5593742  93.3249812  88.3443090  61.8372350
  93.4325860  88.1537574  63.3352308  95.6797181  86.1994219  72.0096810
  95.3394001  85.4002032  72.4117489  94.9736187  86.4995930  71.4373643
  96.3313653  83.2843531  70.4624133  97.1539722  82.8104010  70.3403023
  96.5751716  84.0634015  70.9622819  94.9721887  86.3131790  60.7587034
  95.6930250  86.6913043  60.2550751  94.3487191  87.0320667  60.8622012
  99.1153010  87.0176939  61.6945367  99.3316624  87.9001577  61.3934195
  98.6347077  86.6263152  60.9651009  93.8552231  89.9762652  68.2716111
  93.7096812  90.2902955  69.1640393  93.3777435  90.5947552  67.7187010
  95.7148614  86.9665200  68.3197001  95.7010183  86.0706293  67.9829299
  96.4321042  86.9735864  68.9535287  97.5674745  87.4002540  70.3650128
  97.3092523  88.3219611  70.3634459  97.0359785  87.0032975  71.0550592
  88.3297894  92.5167996  71.2103772  87.7851362  93.2927804  71.3424047
  89.2077243  92.8638801  71.0522894  95.1185510  85.8479580  63.5884571
  95.2401421  84.9196227  63.7875458  94.8287553  85.8618266  62.6762886
  97.9876701  83.5334491  66.7251291  98.0098397  83.5973824  65.7703270
  98.4044760  82.6938999  66.9191797  89.1163915  91.6437893  74.1033929
  88.3745651  91.7920528  74.6898560  88.7956660  91.9046158  73.2400679
  89.5620529  99.5303321  66.1344324  90.3878549  99.2307093  65.7542967
  89.2114581  98.7610944  66.5834113  94.5302062  98.8829790  68.2041997
  93.9082072  98.2200495  67.9044225  95.2006929  98.9090922  67.5215645
  87.7629134  97.4489648  67.0933257  86.9261042  97.0211822  66.9117259
  87.7352780  97.6422091  68.0304049  94.6026590  87.3611578  77.7974504
  94.6514745  88.2373701  77.4152273  95.1449104  86.8188971  77.2246147
  94.0915569  97.4333713  61.6800458  94.2403690  98.1169177  61.0267131
  94.8982013  97.4138803  62.1949914 102.4983073  90.7376095  75.7067676
 103.3992936  90.5982560  75.4151674 102.5731047  90.9030550  76.6465853
  96.8325878  88.1142950  74.5520862  95.9629188  88.4076516  74.2803451
  97.0685359  88.6983395  75.2728126 104.9584696  92.2974723  73.1030449
 105.4338817  92.4902370  72.2949300 104.0350261  92.3533909  72.8573832
  91.8468202  93.4598891  62.6861527  91.6014244  92.5561221  62.8841737
  92.0164117  93.4616041  61.7441005  99.5364912  84.3322567  72.0686283
 100.0546856  85.0683594  71.7432771  99.1820045  84.6386560  72.9033042
  91.1163850  89.1927248  60.1847688  90.4233095  89.2671603  59.5287724
  90.8715602  88.4287592  60.7069205  99.7877506  80.7522850  67.5887179
 100.0679260  80.0846039  68.2147606 100.5728113  80.9451945  67.0761843
 103.6586365  89.1740484  71.3358754 104.6103787  89.2738581  71.3570978
 103.4889815  88.3818752  71.8456839 101.6800744  86.2596067  71.5218155
 101.0850676  86.5401080  70.8264644 101.3950441  86.7489968  72.2934896
 106.1374442  92.3946603  70.4501054 106.1050762  91.4562604  70.6360738
 106.7475066  92.4730640  69.7166879  97.9757773  91.2642656  56.4928258
  98.9216878  91.1348864  56.5616676  97.5972018  90.5257318  56.9697686
 106.2868931  89.1857647  70.4959337 105.7707979  88.4016103  70.3089266
 107.1708879  88.8576363  70.6605857 103.9479658  82.9298662  66.4555150
 103.7504479  82.6213750  67.3398482 104.5579363  83.6560301  66.5853080
  97.8596466  95.3160402  77.9528915  98.7799475  95.4939001  78.1468961
  97.8246049  94.3716448  77.8008614  96.1600690  89.1892633  56.4283143
  95.2532146  88.8925745  56.5045857  96.4376671  88.8922451  55.5617429
  87.0778631  90.5098996  66.8782190  86.7581415  89.6564304  66.5856564
  86.5312059  90.7247574  67.6340157  90.8558538  93.2261437  70.5951696
  91.0744548  94.1578545  70.6139730  91.2684312  92.8669411  71.3806500
  97.7762756  83.7329522  62.5827384  96.9663484  83.3876607  62.9582631
  98.4647173  83.4237066  63.1714996  99.7053304  82.8107569  64.2051681
 100.2584343  83.2303023  64.8641704  99.9423391  81.8843317  64.2474637
  95.7286404  88.7994643  79.9854445  95.6283130  89.7489000  79.9166536
  95.5107946  88.4712882  79.1130515  94.9299475  86.0479568  56.5695122
  95.7918639  86.3734466  56.8290940  95.1149819  85.2611064  56.0568188
  86.9466891  94.1301908  68.8475311  86.2530362  93.7155860  68.3345266
  87.6939882  94.1722444  68.2508730 103.0832111  84.9208094  63.7130345
 102.5030780  85.5792898  63.3308398 102.8168044  84.0985439  63.3017763
 101.5335678  84.3213152  65.9151666 102.0335456  84.4329687  65.1065985
 102.1771286  84.0174205  66.5552474  95.5917674  92.2291782  78.8019507
  95.1084755  93.0292142  79.0083396  95.6778613  92.2399727  77.8486951
  88.8603633  94.0620161  66.7241326  88.8374321  94.1607849  65.7723209
  89.1704270  94.9085312  67.0458492  91.5191011  96.1196316  70.8387940
  92.4734265  96.0880259  70.7717872  91.3203535  95.6586940  71.6538166
  92.1090393  94.6897432  73.4058738  92.9283282  95.1841511  73.4293575
  92.3827201  93.7729401  73.3776306 101.8656989  87.0808185  62.7686694
 100.9782844  87.3657835  62.5506888 102.2810979  86.9201948  61.9213971
 105.2171526  87.1054706  66.4841033 105.9931916  87.5951158  66.7565650
 104.4919660  87.5312760  66.9412902 107.6544084  87.8182325  67.5414974
 108.2488575  87.5778061  66.8308282 107.7270668  87.0989455  68.1688510
  89.8741240 101.6615936  67.8558138  89.7395708 100.9016337  67.2896136
  89.4573302 102.3856836  67.3886927 101.0100203  96.8452859  56.8634714
 101.7136053  97.0502862  57.4792369 100.2862852  97.4129621  57.1283797
 101.8398013  92.5962721  62.9836984 101.7833215  93.0531272  62.1444616
 102.3926356  91.8353405  62.8059827 105.6502819  88.3852452  63.8087103
 105.3939753  87.9849088  64.6395311 105.0255687  89.0996246  63.6837242
 102.5732792  93.7867502  60.2789513 102.5181596  93.6211773  59.3377957
 101.9478848  94.4943535  60.4351703  87.3625307  89.0235566  74.1050935
  88.0084171  88.5134520  74.5938160  87.1542459  89.7604248  74.6794360
  95.8828918  83.2875611  59.8574831  95.8707588  84.2317451  60.0143102
  96.7752340  83.1045756  59.5634293  99.6981037  79.8818388  64.1120768
  98.9313433  79.3276874  64.2577451 100.1091742  79.9540256  64.9734920
  91.7022798  86.1703183  78.2025949  92.5654260  85.8139988  78.4129274
  91.1288209  85.8317078  78.8901354  39.1785172  -5.3621439  51.6592073
  38.6150037  -5.4531502  50.8908360  39.0637567  -6.1821535  52.1394565
  36.7249604  -3.8670248  54.4976293  37.5170896  -4.2079423  54.0822592
  36.9646254  -3.7575273  55.4178446  44.7584730  -1.6950472  46.9706538
  44.1072710  -1.1096391  46.5840551  45.5529093  -1.1644277  47.0301575
  38.6840358  -4.6061334  47.3693672  39.4571234  -5.1532347  47.2306548
  39.0365756  -3.7417085  47.5808133  40.5225400  -3.2784952  60.5760571
  40.2315266  -2.3739321  60.4607238  41.1582384  -3.2368425  61.2904641
  41.4481607  -5.9008104  57.1661931  42.0445179  -6.1252081  56.4518894
  41.5056579  -6.6423358  57.7687379  46.2359996  -4.0060040  47.5075522
  45.6005829  -3.9325413  48.2196427  45.9057402  -3.4166441  46.8294601
  40.7402924  -6.5440562  47.2036497  40.6239182  -7.2195659  47.8717581
  40.8505184  -7.0308188  46.3868650  45.4815285  -3.5923537  57.5710365
  45.1816008  -2.6898498  57.4626172  45.1366345  -3.8591353  58.4231518
  38.9327767  -7.1409740  53.6047069  38.0078263  -7.2733526  53.8124761
  39.1812180  -6.3615521  54.1017012  36.2936578  -7.4976466  54.4390858
  36.4228959  -7.2441987  55.3530270  35.6134029  -6.9048758  54.1195513
  40.4636065   3.1720784  50.5381333  40.3860095   4.1228609  50.6169813
  39.8597709   2.8266656  51.1956259  41.2099667  -6.8465897  62.7560667
  41.9514351  -6.3080854  62.4795490  40.5036653  -6.2199609  62.9132218
  46.6855007  -4.7036757  61.3532828  47.0938363  -5.1454347  60.6087460
  45.9632268  -5.2784130  61.6067021  47.0083821  -4.1435566  55.1085117
  46.3792684  -3.9789852  54.4061185  46.6209483  -3.7293957  55.8796081
  50.8873053  -3.2081129  52.4629481  50.2024091  -2.8282227  51.9126514
  50.9716903  -2.5985802  53.1961428  42.5611783  -4.4061158  52.3735202
  43.0250129  -4.1273455  51.5839824  42.2968581  -5.3077714  52.1908293
  39.4535864  -4.8589677  55.3114965  40.0237221  -4.4302408  54.6732450
  40.0443976  -5.1407092  56.0099151  49.2569813  -2.6849214  57.2347182
  50.0787257  -3.0869027  56.9529863  49.2532216  -2.7880980  58.1863297
  43.0226416  -3.1365171  59.3907892  43.0870849  -2.6744764  60.2266064
  42.3137340  -3.7667806  59.5190202  42.7374434  -1.4697063  49.2586872
  42.6020109  -0.6245528  49.6871720  43.2784246  -1.2677786  48.4952806
  36.1903831  -3.9521625  49.8314797  36.7028352  -3.1578375  49.9820362
  36.8426544  -4.6495335  49.7648399  37.9998716  -0.8355869  51.9137551
  38.1765344   0.0862096  51.7258535  38.7955550  -1.1497450  52.3431930
  44.3642910  -0.8473497  63.3887214  43.9206764  -1.6337118  63.0708119
  45.0260124  -0.6594346  62.7231105  39.1230031   0.6822305  57.9147893
  39.6737457   0.5539368  57.1424887  38.2841507   0.9817194  57.5642786
  46.4624148  -0.5670697  61.4168616  46.4442624   0.2538184  60.9248885
  47.3844068  -0.6916622  61.6418757  42.9197203  -3.0526567  62.2592124
  43.4525539  -3.8138279  62.0291432  42.3911284  -3.3452916  63.0016279
  34.1552748  -5.6232971  50.6074368  34.9927970  -5.2135963  50.3908076
  34.3331016  -6.5633529  50.5774562  44.2849915  -3.9240575  49.7710936
  43.7571277  -4.6587815  49.4584174  43.7837418  -3.1465899  49.5250904
  42.4302515  -6.1060365  42.7745909  41.5229577  -6.3371111  42.9737058
  42.9273547  -6.9022745  42.9619891  45.3370594   2.6037143  45.6942595
  44.6632293   2.9068839  46.3027553  45.7236416   3.4066223  45.3448052
  43.6090749  -6.0047770  47.2969899  42.7001968  -6.2888737  47.3942369
  43.6385833  -5.5848691  46.4373206  48.8410016  -2.3941180  51.0661067
  48.3872343  -3.2350270  51.1226257  48.2103983  -1.7579782  51.4035847
  47.2842956  -0.5564684  52.0010885  47.5765930   0.0040373  51.2823251
  47.7941576  -0.2636123  52.7564044  43.3066837  -4.4639026  44.6357978
  42.8686267  -5.1803167  44.1763615  44.0477278  -4.2362911  44.0743069
  42.2476581   0.2215667  53.0904338  42.2052759   0.4476514  52.1612870
  43.1639280  -0.0120958  53.2390139  40.3642381  -2.9021304  52.8866301
  41.1582980  -3.3970983  52.6848876  39.6534074  -3.4303440  52.5234006
  45.1837226  -0.5203208  57.2378668  45.2374248   0.0487728  58.0056384
  44.3152007  -0.3501323  56.8732706  47.3739989  -3.9274859  63.8119334
  47.2225496  -4.1564307  62.8949418  47.3644669  -2.9704257  63.8250679
  44.1425326  -6.3542946  58.7965600  45.0717386  -6.2031786  58.6234568
  43.7216356  -6.2658925  57.9414247  42.9413657  -2.3292282  56.5664138
  42.8024743  -2.6973497  57.4390076  42.1528254  -1.8144642  56.3948096
  43.5361809   2.7716815  47.9089674  43.7113565   2.3004858  48.7235297
  42.8494597   3.3982581  48.1370935  44.4918873  -2.9510679  53.9552976
  44.1568705  -2.9909909  54.8510626  43.9922818  -3.6165963  53.4823386
  38.4663117  -7.5443049  59.4805557  38.3282915  -8.2762810  60.0817096
  39.3768040  -7.6334149  59.1989745  49.0832196  -0.8955736  61.8895816
  49.0244742  -1.5796516  61.2226399  49.4851714  -0.1536746  61.4376442
  38.1022895   5.9206178  54.6829535  38.3419493   6.5524702  55.3608553
  37.2592091   5.5694218  54.9694894  49.0849603  -2.9316152  60.1209795
  48.1976382  -3.2690230  60.2436194  49.6548154  -3.6633121  60.3578561
  42.6150757   1.7285300  57.0871039  42.5420928   2.5340272  57.5990343
  42.1728150   1.9277266  56.2619060  42.4040536   0.9657070  50.5973860
  41.6208058   1.5078750  50.6912085  43.1033281   1.4831050  50.9968101
  45.0749440   1.6272134  59.2429197  45.7877412   2.2619599  59.1705099
  44.5839469   1.7236000  58.4269199  46.7966967  -4.4676613  50.8146489
  45.8623246  -4.3475151  50.6451193  46.9743635  -5.3704146  50.5506499
  40.1261354  -0.6233422  60.0634768  40.8270813   0.0103061  60.2164162
  39.6556469  -0.2818691  59.3030407  48.2515749  -2.2815473  48.3482675
  48.5275593  -2.3958878  49.2576549  47.3820248  -2.6797988  48.3094848
  44.8869813   1.9670878  51.9915489  45.0692208   1.1492534  52.4543241
  45.7102800   2.1838571  51.5540379  45.2211979   0.8939063  49.2530537
  45.7499745   0.3831518  48.6400699  45.4840199   0.5781594  50.1176070
  35.7229072  -1.0897067  56.9965871  36.3082509  -1.8353379  57.1293775
  35.5253910  -0.7793111  57.8802535  38.5767727   1.9454180  52.0128313
  37.9078102   2.4300308  51.5292353  38.4380597   2.1923401  52.9271692
  42.7172996   3.9797924  58.6110972  43.2691304   4.1429545  59.3760057
  43.0579189   4.5702361  57.9390996  47.5683870  -1.1940819  64.4659626
  48.1123774  -0.5810861  63.9714581  46.9870715  -0.6361240  64.9826639
  45.8541383   1.9279899  55.5974654  45.7292522   1.1269639  55.0885599
  46.5120474   2.4226093  55.1088624  47.9176291  -0.2711081  57.2254204
  46.9706627  -0.3905730  57.1532531  48.2659064  -1.1588583  57.3080465
  44.9222724  -0.4758365  53.4258556  44.7747687  -1.4041657  53.6066126
  45.7476218  -0.4538274  52.9415631  48.5256846   0.3470194  54.5123429
  49.4503394   0.1413056  54.3747880  48.3572150   0.0986595  55.4212770
  48.3152163   0.8655862  49.8685520  48.4889040   0.3002284  49.1159373
  48.8081054   1.6656757  49.6865010  34.1329122  -7.1229469  57.9349079
  33.5882590  -6.3469661  58.0669353  35.0108472  -6.7758665  57.7768200
  49.3027335   0.1822626  46.9682418  49.9978240   0.8029319  47.1869733
  49.6450485  -0.6682023  47.2434796  51.2018758  -2.3677668  48.4969749
  51.7270082  -2.0290396  47.7719069  51.1141111  -3.3030653  48.3132884
  42.8638807   1.5456405  60.6259626  43.1725933   1.3005552  61.4982325
  43.6614289   1.7503044  60.1378496  42.8859419   3.6994315  52.8565002
  42.4464409   3.2070694  53.5497859  43.6367536   3.1567282  52.6157078
  35.3651758  -0.1094144  52.8589631  36.1909778  -0.4090372  52.4788274
  35.0145810  -0.8786522  53.3079419  40.3333291  -0.7567676  54.9287304
  39.7113300  -1.4196971  54.6289532  41.0038158  -0.7306544  54.2460952
  33.5660363  -2.1907818  53.8178564  32.7292271  -2.6185643  53.6362565
  33.5384008  -1.9975375  54.7549355  50.8912664  -1.7344765  63.8020947
  50.1008208  -1.7520626  63.2625447  50.6546019  -1.1956471  64.5569984
  39.8946798  -2.2063753  48.4045765  40.0434918  -1.5228288  47.7512437
  40.7013241  -2.2258663  48.9195220  52.5128736  -2.4655357  61.3595697
  52.2213544  -2.1025376  62.1959158  51.9000867  -3.1788349  61.1809029
  37.6499431  -6.1798575  49.4106834  37.4045473  -7.0836245  49.6087044
  37.8195345  -6.1781425  48.4686312  43.3942203   0.2884378  45.8757512
  42.8216171   0.9074565  45.4227984  43.9674997   0.8383739  46.4097434
  46.6139463   0.5721528  47.0066094  47.5470136   0.5067090  47.2098970
  46.5262676   1.4077795  46.5480627  49.2427480  -0.1112602  43.9670042
  49.1641111  -0.4452738  44.8605800  50.0637147   0.3809166  43.9661514
  43.6627694  -4.3237063  64.6774222  44.5830704  -4.1458464  64.8714268
  43.6277278  -5.2681018  64.5253921  36.6589767  -6.4136029  57.3197003
  36.8775777  -5.4818921  57.3385037  37.0715541  -6.7728054  58.1051807
  32.7498120  -5.5095558  55.5720618  32.0561591  -5.9241605  55.0590572
  33.4971111  -5.4675022  54.9754037  41.3948902  -7.4105684  65.5264813
  40.9115984  -6.6105324  65.7328702  41.4809841  -7.3997739  64.5732257
  34.6634862  -5.5777304  53.4486633  34.6405550  -5.4789617  52.4968516
  34.9735499  -4.7312154  53.7703799  37.3222240  -3.5201149  57.5633247
  38.2765493  -3.5517207  57.4963179  37.1234763  -3.9810526  58.3783473
  37.9121622  -4.9500033  60.1304045  38.7314511  -4.4555955  60.1538882
  38.1858430  -5.8668065  60.1021612  35.6772469   2.0218470  54.5803445
  35.5426937   1.2618871  54.0141443  35.2604531   2.7459370  54.1132234
  46.8131432  -2.7944606  43.5880020  47.5167282  -2.5894604  44.2037676
  46.0894080  -2.2267845  43.8529104  38.8341595   2.9187787  54.7921888
  38.7173979   3.8633220  54.6900578  38.0134041   2.6161349  55.1807687
  48.7218129  -2.3562077  45.6378480  49.5563733  -2.7880879  45.4555955
  48.5602472  -2.5280064  46.5655375  45.6909928  -3.5481052  66.3288382
  46.5601088  -3.3740400  65.9675017  45.2116680  -2.7286635  66.2064112
  39.8596109   3.5716049  58.0077816  40.7623355   3.6039659  58.3244311
  39.6333479   2.6416500  58.0224152  41.6149711   2.3247036  54.6687895
  40.6645342   2.3248897  54.5552267  41.9182197   1.5779770  54.1523929
  57.3502404   8.1607574  55.7333657  57.9880814   8.0414321  55.0296997
  57.2323247   9.1088418  55.7921609  54.1592110   8.1135002  55.6695182
  53.8210622   7.9976067  54.7815717  55.0281879   7.7126167  55.6496188
  50.0178926   9.9670478  51.6592073  49.4543791   9.8760415  50.8908360
  49.9031321   9.1470383  52.1394565  54.6411893   9.2669854  61.6281387
  54.6300534   8.8722652  60.7561891  54.8032533   8.5335926  62.2215159
  47.5643358  11.4621670  54.4976293  48.3564650  11.1212495  54.0822592
  47.8040008  11.5716645  55.4178446  55.5978485  13.6341446  46.9706538
  54.9466465  14.2195527  46.5840551  56.3922848  14.1647641  47.0301575
  49.5234112  10.7230583  47.3693672  50.2964988  10.1759570  47.2306548
  49.8759511  11.5874833  47.5808133  51.3619155  12.0506966  60.5760571
  51.0709021  12.9552596  60.4607238  51.9976139  12.0923493  61.2904641
  52.2875361   9.4283814  57.1661931  52.8838934   9.2039836  56.4518894
  52.3450333   8.6868560  57.7687379  51.8600390   6.8823249  45.0012122
  52.1125911   6.3604771  44.2395585  50.9224949   6.7189395  45.1038805
  56.9043673   5.8859028  52.8086865  57.6906762   5.4678451  52.4577282
  57.1682377   6.7905120  52.9768513  57.0753750  11.3231878  47.5075522
  56.4399583  11.3966505  48.2196427  56.7451156  11.9125477  46.8294601
  62.3052100   5.8234261  53.7119844  63.0377272   5.2533478  53.9457673
  61.5491456   5.4355861  54.1526349  51.5796679   8.7851355  47.2036497
  51.4632937   8.1096259  47.8717581  51.6898939   8.2983729  46.3868650
  53.9228220   8.2461502  50.9083186  53.5586427   7.7192123  51.6196108
  54.7795335   7.8559971  50.7349671  59.8277520  -0.4644165  58.1714452
  59.4960845   0.4051246  57.9475667  59.2323134  -0.7807881  58.8508483
  53.5633707   3.2751402  45.9044535  53.7308109   4.1431639  46.2715006
  53.3730876   3.4378684  44.9805824  56.3209040  11.7368381  57.5710365
  56.0209763  12.6393420  57.4626172  55.9760099  11.4700564  58.4231518
  49.7721521   8.1882178  53.6047069  48.8472018   8.0558392  53.8124761
  50.0205934   8.9676397  54.1017012  59.7206183   4.2550921  55.2507802
  58.8123061   4.1866330  54.9566563  59.6693779   4.7322866  56.0789628
  53.5422927   5.7309060  46.8891201  53.4222553   6.1766110  47.7276682
  52.8475516   6.0794377  46.3304740  47.1330332   7.8315451  54.4390858
  47.2622713   8.0849930  55.3530270  46.4527784   8.4243159  54.1195513
  51.3029820  18.5012701  50.5381333  51.2253849  19.4520526  50.6169813
  50.6991463  18.1558574  51.1956259  53.7947049   5.6740567  63.1942700
  53.0180383   6.2334487  63.1845564  54.4337612   6.1597350  63.7157570
  61.5867830   2.4567360  57.0285676  60.9442210   2.7499893  56.3825471
  61.0822758   2.3420280  57.8338873  59.2407994   6.2030533  47.7171535
  60.1525850   6.4357920  47.5419233  58.7317641   6.7867577  47.1546614
  52.0493422   8.4826020  62.7560667  52.7908106   9.0211064  62.4795490
  51.3430407   9.1092309  62.9132218  57.5248761  10.6255161  61.3532828
  57.9332117  10.1837571  60.6087460  56.8026023  10.0507788  61.6067021
  53.8779831   5.5627767  58.7266385  54.7241026   5.9867181  58.8701034
  53.8178469   4.9061392  59.4204948  57.8477576  11.1856351  55.1085117
  57.2186438  11.3502065  54.4061185  57.4603238  11.5997961  55.8796081
  61.7266808  12.1210789  52.4629481  61.0417846  12.5009690  51.9126514
  61.8110657  12.7306116  53.1961428  57.0279277   3.2232136  60.3847559
  56.7840208   3.9774196  59.8481834  57.3039207   3.6017483  61.2194806
  58.9817739   9.7670748  59.0624824  59.1934635  10.4102508  58.3859205
  58.9347488   8.9333065  58.5946754  56.5843968   2.3788569  55.9661396
  55.7228447   2.6769822  56.2578134  56.6106403   2.5958968  55.0342429
  53.4005538  10.9230759  52.3735202  53.8643883  11.2018462  51.5839824
  53.1362336  10.0214204  52.1908293  50.2929619  10.4702241  55.3114965
  50.8630976  10.8989509  54.6732450  50.8837731  10.1884826  56.0099151
  52.3374424   7.0453912  49.1824767  53.0398467   7.4974955  49.6498694
  52.0055052   6.4037731  49.8104660  50.7854785   5.6365668  63.5575977
  50.1553446   6.3181949  63.7911373  50.6790873   5.5248750  62.6129115
  46.0799758   5.3037464  54.4841901  45.2898812   5.5594993  54.0082011
  46.5711005   6.1185802  54.5893941  60.0963567  12.6442704  57.2347182
  60.9181011  12.2422891  56.9529863  60.0925970  12.5410938  58.1863297
  48.0314503   5.6682044  51.4425377  47.2345666   5.7800738  51.9608873
  47.8040095   6.0068696  50.5766268  53.8620171  12.1926747  59.3907892
  53.9264603  12.6547154  60.2266064  53.1531095  11.5624112  59.5190202
  44.3637461   5.5567955  56.9156892  44.6145499   6.4414965  57.1814467
  44.8997009   5.3772556  56.1431983  68.1869560   8.9881452  53.5832153
  67.4333269   8.4188850  53.4276157  68.3217102   8.9544117  54.5302788
  53.5768188  13.8594854  49.2586872  53.4413863  14.7046390  49.6871720
  54.1178001  14.0614132  48.4952806  50.0635528  -0.0613566  65.9201228
  49.6702474  -0.6147367  66.5948872  50.8801668   0.2497013  66.3107745
  47.0297586  11.3770292  49.8314797  47.5422106  12.1713543  49.9820362
  47.6820299  10.6796583  49.7648399  48.8392471  14.4936049  51.9137551
  49.0159099  15.4154013  51.7258535  49.6349304  14.1794468  52.3431930
  52.9803489   1.3544313  63.5121484  53.7213202   1.9551466  63.4325947
  53.2121412   0.6121951  62.9539527  48.1244827   6.5400681  61.7899714
  48.0098342   5.6385938  62.0906813  47.2689345   6.7864377  61.4384530
  55.2036665  14.4818421  63.3887214  54.7600519  13.6954799  63.0708119
  55.8653878  14.6697571  62.7231105  49.9623786  16.0114222  57.9147893
  50.5131211  15.8831286  57.1424887  49.1235262  16.3109111  57.5642786
  57.3017903  14.7621221  61.4168616  57.2836378  15.5830102  60.9248885
  58.2237823  14.6375296  61.6418757  53.7590957  12.2765350  62.2592124
  54.2919294  11.5153638  62.0291432  53.2305038  11.9839002  63.0016279
  44.9946503   9.7058947  50.6074368  45.8321725  10.1155955  50.3908076
  45.1724770   8.7658389  50.5774562  56.8910935   7.3734027  46.2958201
  56.3757558   8.1438632  46.5346588  56.6188243   6.6999163  46.9191262
  54.4758046   2.2183728  51.3543439  53.6199642   1.8290579  51.1749078
  54.8884998   2.2975689  50.4943225  56.0057192  -0.2469929  55.7534999
  55.5021988  -0.2839793  54.9402804  56.2987799   0.6622814  55.8131656
  52.2500078  -0.1631199  54.7601181  53.1153075  -0.3588390  54.4007070
  52.3177587  -0.3920847  55.6870538  61.8645209  10.1266382  48.2311374
  61.0874652   9.7877541  47.7866536  62.5436690  10.1319005  47.5566339
  56.6797238   5.2461119  48.1217982  56.3747373   5.5607269  48.9728125
  57.6327680   5.3242539  48.1645315  55.1243670  11.4051343  49.7710936
  54.5965031  10.6704102  49.4584174  54.6231172  12.1826019  49.5250904
  60.1036516   9.6000363  54.8877982  59.4460190  10.2899625  54.9758111
  60.9076915   9.9896795  55.2311969  49.8562397   2.0671009  52.1317548
  50.4306149   1.8446191  51.3990741  50.4433380   2.1359704  52.8846149
  58.9141975   7.9544736  52.9381924  59.4273856   8.5874728  53.4403634
  59.5643198   7.3545931  52.5725284  50.1831984   4.0975470  46.1513433
  49.3469297   4.4350157  46.4722708  50.0436754   3.9624450  45.2140570
  52.1585065  -1.0587742  50.8592617  51.5049477  -1.3738725  50.2349232
  52.1165539  -1.6812002  51.5852440  53.2696270   9.2231553  42.7745909
  52.3623332   8.9920806  42.9737058  53.7667302   8.4269172  42.9619891
  56.1764349  17.9329060  45.6942595  55.5026048  18.2360757  46.3027553
  56.5630171  18.7358141  45.3448052  55.3922805   5.4294191  55.1840265
  54.4745367   5.6509138  55.0261953  55.8082949   5.5040502  54.3251972
  56.1757853   6.8285607  50.3142945  56.9229672   7.3407004  50.0050067
  56.4449443   6.5069660  51.1747338  54.4484503   9.3244148  47.2969899
  53.5395723   9.0403181  47.3942369  54.4779587   9.7443226  46.4373206
  59.6803771  12.9350737  51.0661067  59.2266098  12.0941647  51.1226257
  59.0497737  13.5712136  51.4035847  58.6236690   3.8642723  52.2961734
  57.8859447   3.3520110  52.6271977  58.8763464   3.4243105  51.4845011
  58.1236710  14.7727234  52.0010885  58.4159684  15.3332291  51.2823251
  58.6335331  15.0655795  52.7564044  45.0172674   7.0449662  51.2785101
  44.8197074   6.4519023  50.5536168  44.4619338   6.7401872  51.9961040
  52.9969397   6.9372768  53.3979695  53.0518007   5.9846605  53.3222171
  52.1860599   7.0932208  53.8820993  54.1460591  10.8652892  44.6357978
  53.7080021  10.1488750  44.1763615  54.8871032  11.0929006  44.0743069
  50.9361757   5.5549828  51.1570073  50.1229623   5.8543999  51.5635266
  51.4320751   5.1605517  51.8744556  53.0870335  15.5507585  53.0904338
  53.0446514  15.7768431  52.1612870  54.0033034  15.3170960  53.2390139
  56.5335969   6.0191653  59.9884967  56.8885357   6.2463126  60.8479433
  57.1808100   6.3510029  59.3662223  62.2633706   9.1410089  50.6934296
  62.1251605   9.3311685  49.7655486  61.9069925   9.9029471  51.1502347
  50.4275832   3.1268184  56.7731308  51.0675211   2.9856943  56.0754272
  49.5953363   2.8402697  56.3969910  62.2903086  11.2086616  55.7045568
  62.7239592  11.1161905  56.5528622  63.0034666  11.1844116  55.0665584
  51.2036136  12.4270614  52.8866301  51.9976734  11.9320934  52.6848876
  50.4927828  11.8988477  52.5234006  56.0230980  14.8088710  57.2378668
  56.0768003  15.3779646  58.0056384  55.1545762  14.9790595  56.8732706
  47.5118899   6.5713696  48.9626054  46.5816488   6.5098151  49.1796016
  47.6076371   6.0489649  48.1662695  47.4304448   3.0968509  51.5504295
  47.6911266   4.0113842  51.4413456  48.2521621   2.6292951  51.7000908
  48.9029374   4.5106266  58.7203120  49.5752427   4.3023628  58.0715769
  48.0759160   4.3128352  58.2808352  63.1518635  11.2510316  58.2378453
  63.3454525  12.1556127  58.4837728  63.0519253  10.7917735  59.0717038
  54.8054946   1.1368207  60.7368781  54.1582861   1.8358156  60.6433257
  55.5755961   1.5704351  61.1045029  58.2133744  11.4017059  63.8119334
  58.0619250  11.1727611  62.8949418  58.2038423  12.3587660  63.8250679
  54.9819080   8.9748972  58.7965600  55.9111140   9.1260131  58.6234568
  54.5610110   9.0632993  57.9414247  53.7807412  12.9999636  56.5664138
  53.6418498  12.6318421  57.4390076  52.9922008  13.5147276  56.3948096
  54.3755564  18.1008733  47.9089674  54.5507320  17.6296776  48.7235297
  53.6888352  18.7274499  48.1370935  55.3312627  12.3781239  53.9552976
  54.9962460  12.3382009  54.8510626  54.8316573  11.7125955  53.4823386
  49.3056871   7.7848869  59.4805557  49.1676669   7.0529108  60.0817096
  50.2161795   7.6957769  59.1989745  58.2671819   9.7237273  44.2290035
  57.6500989   8.9984101  44.1323088  57.7988307  10.4846633  43.8857110
  51.9339172   7.4968828  58.9689237  52.6438790   6.8562020  58.9275855
  51.8908480   7.7481723  59.8915417  59.9225950  14.4336182  61.8895816
  59.8638497  13.7495402  61.2226399  60.3245469  15.1755172  61.4376442
  50.6468106   4.4834046  60.7884876  50.1105463   4.0324785  61.4406472
  50.0584814   4.6179955  60.0455340  48.9416649  21.2498095  54.6829535
  49.1813247  21.8816620  55.3608553  48.0985846  20.8986135  54.9694894
  50.0570365   3.9422698  43.3511340  49.1799831   3.8211498  42.9873586
  50.5328118   3.1508776  43.0990228  59.9243358  12.3975765  60.1209795
  59.0370136  12.0601687  60.2436194  60.4941909  11.6658797  60.3578561
  41.5772505   8.7299857  53.4452847  42.2643545   8.4161587  52.8573862
  41.4220633   9.6341222  53.1720098  46.3807227   3.6190054  57.8737871
  46.2965416   3.0115723  57.1388280  45.5589933   4.1099072  57.8747367
  53.4544511  17.0577218  57.0871039  53.3814683  17.8632189  57.5990343
  53.0121904  17.2569184  56.2619060  53.2434291  16.2948988  50.5973860
  52.4601813  16.8370668  50.6912085  53.9427036  16.8122968  50.9968101
  56.5530941   2.1043617  53.2408066  57.0499640   1.3513580  52.9209136
  55.7817922   2.1407934  52.6751275  64.4060698   7.8083983  54.8826357
  64.3950574   8.6908698  54.5120290  63.5378078   7.4555534  54.6880894
  55.9143195  16.9564052  59.2429197  56.6271167  17.5911517  59.1705099
  55.4233223  17.0527918  58.4269199  57.6360722  10.8615305  50.8146489
  56.7017000  10.9816767  50.6451193  57.8137390   9.9587771  50.5506499
  53.1365910   4.2461000  52.9679750  52.7663697   3.6932041  53.6560656
  53.6325002   3.6419134  52.4154750  61.0233273   6.7032624  51.3496523
  61.4893725   7.5360615  51.2756826  61.4740773   6.2377605  52.0541782
  50.9655108  14.7058495  60.0634768  51.6664568  15.3394978  60.2164162
  50.4950223  15.0473227  59.3030407  59.0909504  13.0476445  48.3482675
  59.3669348  12.9333040  49.2576549  58.2214003  12.6493930  48.3094848
  58.9949936  -0.9286789  55.3887424  58.0813015  -0.6982562  55.5569631
  59.4243037  -0.8448345  56.2401457  58.7656394   7.2603103  57.8887318
  58.1127844   7.5079010  57.2339771  59.1436774   6.4467241  57.5549796
  55.7263568  17.2962796  51.9915489  55.9085963  16.4784452  52.4543241
  56.5496554  17.5130488  51.5540379  56.0605733  16.2230981  49.2530537
  56.5893500  15.7123436  48.6400699  56.3233953  15.9073511  50.1176070
  54.8143967   8.0022914  64.3753356  54.1384604   7.9017043  65.0455731
  55.6371601   7.8462128  64.8389353  46.5622826  14.2394850  56.9965871
  47.1476263  13.4938538  57.1293775  46.3647665  14.5498807  57.8802535
  49.4161481  17.2746098  52.0128313  48.7471857  17.7592225  51.5292353
  49.2774351  17.5215318  52.9271692  41.1540481   6.8100451  55.7170314
  41.1924580   6.2764041  56.5107432  40.6480774   6.2835656  55.0981291
  53.5566750  19.3089841  58.6110972  54.1085058  19.4721463  59.3760057
  53.8972943  19.8994279  57.9390996  48.5331243   1.6564991  59.2132856
  48.5972570   2.5179822  58.8010254  48.4698363   1.0438993  58.4805215
  48.0083516   3.7288124  62.8605891  48.6355555   3.3465201  63.4743415
  47.1511435   3.5102326  63.2261583  58.4077624  14.1351099  64.4659626
  58.9517528  14.7481057  63.9714581  57.8264469  14.6930677  64.9826639
  44.7849059   5.5364553  48.7924245  45.0802500   4.6275231  48.7391299
  43.8837094   5.5152292  48.4705248  56.6935137  17.2571817  55.5974654
  56.5686277  16.4561557  55.0885599  57.3514228  17.7518010  55.1088624
  48.3143306   3.6120549  54.7751794  47.5929891   4.2256517  54.6359267
  49.1036561   4.1478314  54.6968440  58.7570046  15.0580837  57.2254204
  57.8100381  14.9386188  57.1532531  59.1052819  14.1703335  57.3080465
  51.1169619   0.9474976  61.0492446  51.6404021   1.1937272  61.8118755
  50.8981952   1.7795011  60.6295583  46.5136900   3.2178650  48.9163570
  46.1849606   2.3376029  48.7338676  46.8676271   3.1626319  49.8039960
  55.7616479  14.8533553  53.4258556  55.6141441  13.9250261  53.6066126
  56.5869972  14.8753644  52.9415631  49.6278723   3.5051620  49.2839048
  49.9674796   4.0337541  48.5617657  50.0750844   3.8432026  50.0597615
  59.3650601  15.6762112  54.5123429  60.2897148  15.4704973  54.3747880
  59.1965904  15.4278513  55.4212770  52.3222164   1.8888671  58.7342116
  51.9818984   1.0896484  59.1362796  51.6161170   2.1890382  58.1618949
  52.9738636  -1.0262017  57.1869439  53.7964705  -1.5001538  57.0648330
  53.2176699  -0.2471533  57.6868126  51.6146870   2.0026242  47.4832341
  52.3355233   2.3807495  46.9796058  50.9912175   2.7215119  47.5867319
  55.7577993   2.7071391  48.4190673  55.9741608   3.5896029  48.1179501
  55.2772060   2.3157604  47.6896315  50.4977215   5.6657104  54.9961418
  50.3521795   5.9797407  55.8885699  50.0202418   6.2842004  54.4432316
  52.3573598   2.6559652  55.0442307  52.3435166   1.7600745  54.7074605
  53.0746026   2.6630316  55.6780593  54.2099728   3.0896992  57.0895435
  53.9517506   4.0114063  57.0879765  53.6784769   2.6927427  57.7795899
  59.1545917  16.1947779  49.8685520  59.3282795  15.6294202  49.1159373
  59.6474808  16.9948674  49.6865010  44.9722877   8.2062448  57.9349079
  44.4276345   8.9822256  58.0669353  45.8502227   8.5533253  57.7768200
  51.7610493   1.5374032  50.3129878  51.8826405   0.6090678  50.5120765
  51.4712536   1.5512718  49.4008193  54.6301684  -0.7771057  53.4496597
  54.6523381  -0.7131724  52.4948577  55.0469743  -1.6166549  53.6437104
  65.0085308   8.9584202  51.4875820  65.4516454   8.2091527  51.0894943
  64.1311818   8.9494339  51.1049552  60.1421090  15.5114544  46.9682418
  60.8371994  16.1321236  47.1869733  60.4844240  14.6609895  47.2434796
  45.7588899   7.3332345  60.8279236  45.0170635   7.4814980  61.4143866
  45.4381643   7.5940610  59.9645985  62.0412513  12.9614249  48.4969749
  62.5663837  13.3001522  47.7719069  61.9534865  12.0261265  48.3132884
  53.7032561  16.8748323  60.6259626  54.0119688  16.6297470  61.4982325
  54.5008043  17.0794961  60.1378496  53.7253173  19.0286233  52.8565002
  53.2858164  18.5362611  53.5497859  54.4761290  18.4859200  52.6157078
  46.2045512  15.2197773  52.8589631  47.0303532  14.9201545  52.4788274
  45.8539564  14.4505396  53.3079419  51.1727046  14.5724242  54.9287304
  50.5507055  13.9094947  54.6289532  51.8431912  14.5985373  54.2460952
  44.4054117  13.1384100  53.8178564  43.5686026  12.7106274  53.6362565
  44.3777763  13.3316543  54.7549355  51.2451573   3.0506030  64.5219810
  51.2939728   3.9268152  64.1397580  51.7874087   2.5083423  63.9491453
  61.7306419  13.5947153  63.8020947  60.9401962  13.5771292  63.2625447
  61.4939773  14.1335447  64.5569984  61.8504294  10.4439619  61.1153676
  61.9002299  10.2789627  62.0569199  61.7418217   9.5766878  60.7251557
  50.7340552  13.1228165  48.4045765  50.8828673  13.8063629  47.7512437
  51.5406996  13.1033255  48.9195220  59.1408056   6.4270547  62.4312982
  60.0417919   6.2877012  62.1396980  59.2156031   6.5925002  63.3711160
  53.4750861   3.8037402  61.2766169  52.6054171   4.0970968  61.0048757
  53.7110342   4.3877847  61.9973432  63.3522491  12.8636561  61.3595697
  63.0607299  13.2266541  62.1959158  62.7394622  12.1503569  61.1809029
  64.5518173  10.4289441  53.8798268  65.3865064  10.8679245  54.0435828
  64.6877302   9.9528094  53.0606513  61.6009679   7.9869175  59.8275755
  62.0763800   8.1796822  59.0194607  60.6775244   8.0428361  59.5819139
  48.4893185   9.1493343  49.4106834  48.2439227   8.2455673  49.6087044
  48.6589100   9.1510493  48.4686312  56.1789895   0.0217019  58.7931589
  56.6971839   0.7578046  58.4678078  55.8245028   0.3281012  59.6278348
  47.7588833   4.8821700  46.9092995  47.0658078   4.9566055  46.2533031
  47.5140585   4.1182044  47.4314512  54.2335958  15.6176295  45.8757512
  53.6609925  16.2366483  45.4227984  54.8068752  16.1675657  46.4097434
  60.3011348   4.8634935  58.0604061  61.2528771   4.9633033  58.0816285
  60.1314798   4.0713204  58.5702145  58.3225727   1.9490519  58.2463462
  57.7275659   2.2295531  57.5509950  58.0375424   2.4384420  59.0180203
  57.4533218  15.9013446  47.0066094  58.3863891  15.8359007  47.2098970
  57.3656431  16.7369712  46.5480627  60.0821234  15.2179316  43.9670042
  60.0034866  14.8839179  44.8605800  60.9030901  15.7101084  43.9661514
  62.7799426   8.0841055  57.1746361  62.7475746   7.1457056  57.3606044
  63.3900049   8.1625092  56.4412185  54.6182756   6.9537108  43.2173565
  55.5641861   6.8243316  43.2861983  54.2397001   6.2151770  43.6942993
  62.9293914   4.8752099  57.2204644  62.4132963   4.0910555  57.0334573
  63.8133863   4.5470815  57.3851163  68.5975975   9.1457062  56.3152397
  69.3279364   8.8842350  56.8760101  67.9882921   8.4085784  56.3554465
  66.6791273   7.2864925  56.9126849  65.9524436   7.1520890  56.3043340
  66.2638559   7.5941753  57.7183567  54.5021449  11.0054854  64.6774222
  55.4224458  11.1833453  64.8714268  54.4671032  10.0610900  64.5253921
  52.8025674   4.8787085  43.1528450  51.8957129   4.5820197  43.2291163
  53.0801655   4.5816903  42.2862736  43.7203614   6.1993448  53.6027496
  43.4006398   5.3458756  53.3101870  43.1737042   6.4142026  54.3585464
  47.4983522   8.9155889  57.3197003  47.7169531   9.8472997  57.3385037
  47.9109295   8.5563863  58.1051807  54.4187739  -0.5776026  49.3072691
  53.6088468  -0.9228941  49.6827937  55.1072156  -0.8868482  49.8960303
  52.3711387   4.4889095  66.7099752  52.2708114   5.4383452  66.6411843
  52.1532929   4.1607334  65.8375822  51.5724458   1.7374020  43.2940429
  52.4343622   2.0628918  43.5536246  51.7574802   0.9505516  42.7813495
  43.5891874   9.8196359  55.5720618  42.8955345   9.4050312  55.0590572
  44.3364865   9.8616896  54.9754037  59.7257095   0.6102546  50.4375652
  59.1455764   1.2687350  50.0553704  59.4593027  -0.2120109  50.0263070
  58.1760661   0.0107604  52.6396972  58.6760439   0.1224138  51.8311291
  58.8196269  -0.2931343  53.2797781  52.2342657   7.9186234  65.5264813
  51.7509739   8.7186594  65.7328702  52.3203596   7.9294178  64.5732257
  45.5028617   9.7514613  53.4486633  45.4799305   9.8502300  52.4968516
  45.8129253  10.5979764  53.7703799  48.1615994  11.8090768  57.5633247
  49.1159248  11.7774711  57.4963179  47.9628518  11.3481392  58.3783473
  48.7515377  10.3791884  60.1304045  49.5708266  10.8735963  60.1538882
  49.0252184   9.4623852  60.1021612  58.5081973   2.7702637  49.4932000
  57.6207828   3.0552287  49.2752195  58.9235962   2.6096400  48.6459277
  61.8596509   2.7949158  53.2086340  62.6356899   3.2845610  53.4810956
  61.1344643   3.2207212  53.6658209  64.2969067   3.5076777  54.2660280
  64.8913558   3.2672513  53.5553588  64.3695651   2.7883907  54.8933816
  46.5166223  17.3510388  54.5803445  46.3820691  16.5910789  54.0141443
  46.0998285  18.0751288  54.1132234  57.6525186  12.5347311  43.5880020
  58.3561036  12.7397314  44.2037676  56.9287835  13.1024073  43.8529104
  58.4822996   8.2857173  49.7082290  58.4258198   8.7425724  48.8689923
  59.0351339   7.5247857  49.5305133  62.2927802   4.0746904  50.5332410
  62.0364737   3.6743540  51.3640618  61.6680670   4.7890698  50.4082549
  66.6040140   6.8142978  53.0403701  66.0439698   6.8836167  53.8135263
  65.9983644   6.6383962  52.3203198  49.6735349  18.2479705  54.7921888
  49.5567733  19.1925137  54.6900578  48.8527795  17.9453266  55.1807687
  59.5611884  12.9729840  45.6378480  60.3957488  12.5411039  45.4555955
  59.3996227  12.8011854  46.5655375  59.2157776   9.4761954  47.0034820
  59.1606580   9.3106225  46.0623264  58.5903831  10.1837987  47.1597009
  44.0050291   4.7130018  60.8296242  44.6509154   4.2028972  61.3183467
  43.7967442   5.4498700  61.4039667  56.5303683  11.7810866  66.3288382
  57.3994843  11.9551518  65.9675017  56.0510434  12.6005282  66.2064112
  52.5253901  -1.0229937  46.5820138  52.5132571  -0.0788097  46.7388409
  53.4177323  -1.2059792  46.2879599  50.6989863  18.9007967  58.0077816
  51.6017110  18.9331577  58.3244311  50.4727233  17.9708418  58.0224152
  52.4543465  17.6538953  54.6687895  51.5039096  17.6540815  54.5552267
  52.7575951  16.9071688  54.1523929  48.3447782   1.8597635  64.9271256
  49.2079243   1.5034440  65.1374581  47.7713192   1.5211530  65.6146660
  68.1896159  23.4899492  55.7333657  68.8274569  23.3706239  55.0296997
  68.0717002  24.4380336  55.7921609  64.9985865  23.4426920  55.6695182
  64.6604376  23.3267984  54.7815717  65.8675633  23.0418085  55.6496188
  65.4805648  24.5961771  61.6281387  65.4694289  24.2014570  60.7561891
  65.6426287  23.8627844  62.2215159  58.4037113  26.7913588  54.4976293
  59.1958405  26.4504412  54.0822592  58.6433763  26.9008563  55.4178446
  62.2012909  27.3798883  60.5760571  61.9102775  28.2844514  60.4607238
  62.8369893  27.4215411  61.2904641  63.1269116  24.7575732  57.1661931
  63.7232688  24.5331754  56.4518894  63.1844087  24.0160477  57.7687379
  62.6994144  22.2115167  45.0012122  62.9519665  21.6896688  44.2395585
  61.7618703  22.0481313  45.1038805  67.7437427  21.2150945  52.8086865
  68.5300516  20.7970369  52.4577282  68.0076132  22.1197038  52.9768513
  73.1445854  21.1526179  53.7119844  73.8771026  20.5825395  53.9457673
  72.3885210  20.7647779  54.1526349  64.7621974  23.5753420  50.9083186
  64.3980181  23.0484041  51.6196108  65.6189090  23.1851889  50.7349671
  70.6671275  14.8647753  58.1714452  70.3354599  15.7343164  57.9475667
  70.0716888  14.5484037  58.8508483  64.4027461  18.6043320  45.9044535
  64.5701863  19.4723556  46.2715006  64.2124630  18.7670602  44.9805824
  60.6115276  23.5174096  53.6047069  59.6865772  23.3850310  53.8124761
  60.8599689  24.2968315  54.1017012  70.5599938  19.5842839  55.2507802
  69.6516815  19.5158247  54.9566563  70.5087534  20.0614784  56.0789628
  64.3816682  21.0600977  46.8891201  64.2616307  21.5058028  47.7276682
  63.6869270  21.4086295  46.3304740  57.9724087  23.1607369  54.4390858
  58.1016468  23.4141848  55.3530270  57.2921538  23.7535077  54.1195513
  64.6340804  21.0032484  63.1942700  63.8574138  21.5626405  63.1845564
  65.2731367  21.4889267  63.7157570  72.4261584  17.7859277  57.0285676
  71.7835965  18.0791810  56.3825471  71.9216513  17.6712198  57.8338873
  70.0801748  21.5322450  47.7171535  70.9919604  21.7649837  47.5419233
  69.5711395  22.1159495  47.1546614  62.8887176  23.8117938  62.7560667
  63.6301860  24.3502982  62.4795490  62.1824162  24.4384227  62.9132218
  68.3642516  25.9547078  61.3532828  68.7725872  25.5129489  60.6087460
  67.6419777  25.3799706  61.6067021  64.7173586  20.8919685  58.7266385
  65.5634781  21.3159099  58.8701034  64.6572223  20.2353309  59.4204948
  67.8673031  18.5524053  60.3847559  67.6233963  19.3066114  59.8481834
  68.1432962  18.9309401  61.2194806  69.8211494  25.0962666  59.0624824
  70.0328389  25.7394426  58.3859205  69.7741242  24.2624982  58.5946754
  67.4237723  17.7080486  55.9661396  66.5622202  18.0061740  56.2578134
  67.4500157  17.9250885  55.0342429  61.1323373  25.7994159  55.3114965
  61.7024730  26.2281427  54.6732450  61.7231485  25.5176743  56.0099151
  63.1768178  22.3745829  49.1824767  63.8792222  22.8266873  49.6498694
  62.8448807  21.7329648  49.8104660  61.6248540  20.9657586  63.5575977
  60.9947200  21.6473867  63.7911373  61.5184628  20.8540668  62.6129115
  56.9193512  20.6329382  54.4841901  56.1292566  20.8886911  54.0082011
  57.4104760  21.4477720  54.5893941  70.9357322  27.9734621  57.2347182
  71.7574766  27.5714809  56.9529863  70.9319725  27.8702855  58.1863297
  58.8708258  20.9973961  51.4425377  58.0739421  21.1092656  51.9608873
  58.6433850  21.3360614  50.5766268  64.7013925  27.5218665  59.3907892
  64.7658358  27.9839072  60.2266064  63.9924849  26.8916029  59.5190202
  55.2031215  20.8859873  56.9156892  55.4539254  21.7706882  57.1814467
  55.7390764  20.7064474  56.1431983  79.0263315  24.3173370  53.5832153
  78.2727023  23.7480768  53.4276157  79.1610856  24.2836034  54.5302788
  60.9029283  15.2678352  65.9201228  60.5096228  14.7144550  66.5948872
  61.7195423  15.5788930  66.3107745  57.8691340  26.7062210  49.8314797
  58.3815861  27.5005460  49.9820362  58.5214053  26.0088501  49.7648399
  59.6786225  29.8227966  51.9137551  59.8552853  30.7445931  51.7258535
  60.4743059  29.5086386  52.3431930  63.8197244  16.6836231  63.5121484
  64.5606957  17.2843384  63.4325947  64.0515166  15.9413869  62.9539527
  58.9638582  21.8692598  61.7899714  58.8492097  20.9677855  62.0906813
  58.1083099  22.1156295  61.4384530  66.0430419  29.8110339  63.3887214
  65.5994273  29.0246717  63.0708119  66.7047633  29.9989489  62.7231105
  60.8017540  31.3406140  57.9147893  61.3524966  31.2123203  57.1424887
  59.9629016  31.6401029  57.5642786  68.1411657  30.0913138  61.4168616
  68.1230133  30.9122020  60.9248885  69.0631577  29.9667214  61.6418757
  64.5984712  27.6057268  62.2592124  65.1313048  26.8445556  62.0291432
  64.0698793  27.3130920  63.0016279  67.7654406  12.7117334  57.7885766
  67.4218676  13.6018976  57.7124876  68.1333369  12.5218992  56.9255351
  55.8340257  25.0350864  50.6074368  56.6715479  25.4447873  50.3908076
  56.0118525  24.0950307  50.5774562  67.7304689  22.7025945  46.2958201
  67.2151313  23.4730550  46.5346588  67.4581998  22.0291081  46.9191262
  65.3151800  17.5475646  51.3543439  64.4593397  17.1582496  51.1749078
  65.7278752  17.6267607  50.4943225  66.8450947  15.0821989  55.7534999
  66.3415742  15.0452124  54.9402804  67.1381554  15.9914732  55.8131656
  63.0893833  15.1660719  54.7601181  63.9546830  14.9703527  54.4007070
  63.1571342  14.9371071  55.6870538  72.7038963  25.4558300  48.2311374
  71.9268406  25.1169459  47.7866536  73.3830444  25.4610923  47.5566339
  67.5190992  20.5753037  48.1217982  67.2141128  20.8899186  48.9728125
  68.4721434  20.6534457  48.1645315  70.9430270  24.9292281  54.8877982
  70.2853945  25.6191542  54.9758111  71.7470669  25.3188713  55.2311969
  60.6956152  17.3962927  52.1317548  61.2699904  17.1738108  51.3990741
  61.2827134  17.4651621  52.8846149  69.7535729  23.2836654  52.9381924
  70.2667611  23.9166645  53.4403634  70.4036953  22.6837849  52.5725284
  61.0225739  19.4267388  46.1513433  60.1863051  19.7642074  46.4722708
  60.8830509  19.2916368  45.2140570  62.9978820  14.2704176  50.8592617
  62.3443232  13.9553193  50.2349232  62.9559294  13.6479916  51.5852440
  64.1090024  24.5523471  42.7745909  63.2017086  24.3212724  42.9737058
  64.6061056  23.7561090  42.9619891  66.2316560  20.7586109  55.1840265
  65.3139121  20.9801056  55.0261953  66.6476704  20.8332420  54.3251972
  67.0151608  22.1577525  50.3142945  67.7623427  22.6698922  50.0050067
  67.2843197  21.8361578  51.1747338  69.4630445  19.1934641  52.2961734
  68.7253202  18.6812027  52.6271977  69.7157218  18.7535023  51.4845011
  69.5642072  11.9710893  52.8903504  69.8700949  11.1108257  52.6029419
  70.2894677  12.5628513  52.6902497  55.8566428  22.3741580  51.2785101
  55.6590828  21.7810940  50.5536168  55.3013092  22.0693790  51.9961040
  63.8363152  22.2664686  53.3979695  63.8911762  21.3138523  53.3222171
  63.0254354  22.4224125  53.8820993  61.7755512  20.8841746  51.1570073
  60.9623377  21.1835916  51.5635266  62.2714506  20.4897435  51.8744556
  67.3729723  21.3483570  59.9884967  67.7279111  21.5755044  60.8479433
  68.0201855  21.6801947  59.3662223  73.1027460  24.4702006  50.6934296
  72.9645359  24.6603602  49.7655486  72.7463679  25.2321389  51.1502347
  61.2669587  18.4560101  56.7731308  61.9068966  18.3148861  56.0754272
  60.4347117  18.1694615  56.3969910  73.1296840  26.5378533  55.7045568
  73.5633347  26.4453822  56.5528622  73.8428421  26.5136034  55.0665584
  62.0429890  27.7562532  52.8866301  62.8370489  27.2612852  52.6848876
  61.3321583  27.2280395  52.5234006  58.3512654  21.9005614  48.9626054
  57.4210242  21.8390069  49.1796016  58.4470126  21.3781566  48.1662695
  58.2698203  18.4260426  51.5504295  58.5305020  19.3405760  51.4413456
  59.0915375  17.9584869  51.7000908  59.7423128  19.8398184  58.7203120
  60.4146182  19.6315546  58.0715769  58.9152915  19.6420270  58.2808352
  73.9912390  26.5802234  58.2378453  74.1848280  27.4848044  58.4837728
  73.8913008  26.1209653  59.0717038  65.6448700  16.4660125  60.7368781
  64.9976615  17.1650074  60.6433257  66.4149716  16.8996268  61.1045029
  69.0527498  26.7308977  63.8119334  68.9013005  26.5019528  62.8949418
  69.0432178  27.6879578  63.8250679  65.8212835  24.3040889  58.7965600
  66.7504895  24.4552049  58.6234568  65.4003865  24.3924910  57.9414247
  60.1450626  23.1140787  59.4805557  60.0070423  22.3821025  60.0817096
  61.0555549  23.0249687  59.1989745  69.1065573  25.0529191  44.2290035
  68.4894744  24.3276019  44.1323088  68.6382062  25.8138551  43.8857110
  62.7732926  22.8260746  58.9689237  63.4832545  22.1853938  58.9275855
  62.7302234  23.0773641  59.8915417  70.7619705  29.7628099  61.8895816
  70.7032251  29.0787319  61.2226399  71.1639223  30.5047089  61.4376442
  61.4861860  19.8125964  60.7884876  60.9499217  19.3616702  61.4406472
  60.8978569  19.9471873  60.0455340  60.8964119  19.2714615  43.3511340
  60.0193585  19.1503416  42.9873586  61.3721872  18.4800693  43.0990228
  70.7637112  27.7267683  60.1209795  69.8763891  27.3893605  60.2436194
  71.3335663  26.9950714  60.3578561  52.4166259  24.0591775  53.4452847
  53.1037299  23.7453505  52.8573862  52.2614388  24.9633140  53.1720098
  57.2200981  18.9481971  57.8737871  57.1359170  18.3407641  57.1388280
  56.3983688  19.4390990  57.8747367  67.3924695  17.4335535  53.2408066
  67.8893395  16.6805497  52.9209136  66.6211677  17.4699852  52.6751275
  75.2454453  23.1375901  54.8826357  75.2344329  24.0200616  54.5120290
  74.3771832  22.7847451  54.6880894  66.7536949  32.2855970  59.2429197
  67.4664921  32.9203434  59.1705099  66.2626978  32.3819836  58.4269199
  63.9759664  19.5752918  52.9679750  63.6057452  19.0223958  53.6560656
  64.4718757  18.9711051  52.4154750  71.8627027  22.0324541  51.3496523
  72.3287480  22.8652533  51.2756826  72.3134528  21.5669523  52.0541782
  61.8048863  30.0350413  60.0634768  62.5058322  30.6686896  60.2164162
  61.3343978  30.3765145  59.3030407  69.8343690  14.4005128  55.3887424
  68.9206770  14.6309355  55.5569631  70.2636792  14.4843573  56.2401457
  69.6050149  22.5895020  57.8887318  68.9521599  22.8370928  57.2339771
  69.9830528  21.7759159  57.5549796  65.6537722  23.3314832  64.3753356
  64.9778359  23.2308961  65.0455731  66.4765355  23.1754045  64.8389353
  57.4016581  29.5686768  56.9965871  57.9870018  28.8230456  57.1293775
  57.2041419  29.8790725  57.8802535  51.9934235  22.1392368  55.7170314
  52.0318335  21.6055959  56.5107432  51.4874528  21.6127574  55.0981291
  59.3724998  16.9856909  59.2132856  59.4366324  17.8471740  58.8010254
  59.3092118  16.3730910  58.4805215  58.8477270  19.0580041  62.8605891
  59.4749309  18.6757119  63.4743415  57.9905189  18.8394243  63.2261583
  69.2471379  29.4643016  64.4659626  69.7911283  30.0772975  63.9714581
  68.6658224  30.0222595  64.9826639  55.6242813  20.8656470  48.7924245
  55.9196254  19.9567149  48.7391299  54.7230849  20.8444210  48.4705248
  59.1537060  18.9412467  54.7751794  58.4323646  19.5548435  54.6359267
  59.9430316  19.4770232  54.6968440  61.9563374  16.2766893  61.0492446
  62.4797775  16.5229190  61.8118755  61.7375707  17.1086928  60.6295583
  57.3530655  18.5470568  48.9163570  57.0243361  17.6667947  48.7338676
  57.7070025  18.4918237  49.8039960  60.4672478  18.8343538  49.2839048
  60.8068550  19.3629459  48.5617657  60.9144598  19.1723944  50.0597615
  63.1615919  17.2180589  58.7342116  62.8212739  16.4188402  59.1362796
  62.4554925  17.5182299  58.1618949  63.8132390  14.3029901  57.1869439
  64.6358460  13.8290379  57.0648330  64.0570454  15.0820385  57.6868126
  62.4540625  17.3318159  47.4832341  63.1748987  17.7099412  46.9796058
  61.8305929  18.0507036  47.5867319  66.5971748  18.0363308  48.4190673
  66.8135362  18.9187946  48.1179501  66.1165815  17.6449522  47.6896315
  61.3370969  20.9949022  54.9961418  61.1915550  21.3089325  55.8885699
  60.8596173  21.6133922  54.4432316  63.1967352  17.9851570  55.0442307
  63.1828921  17.0892663  54.7074605  63.9139780  17.9922233  55.6780593
  65.0493483  18.4188910  57.0895435  64.7911261  19.3405980  57.0879765
  64.5178523  18.0219344  57.7795899  55.8116631  23.5354366  57.9349079
  55.2670099  24.3114174  58.0669353  56.6895981  23.8825171  57.7768200
  62.6004248  16.8665950  50.3129878  62.7220159  15.9382596  50.5120765
  62.3106290  16.8804636  49.4008193  65.4695438  14.5520860  53.4496597
  65.4917135  14.6160193  52.4948577  65.8863497  13.7125369  53.6437104
  75.8479063  24.2876120  51.4875820  76.2910209  23.5383445  51.0894943
  74.9705573  24.2786256  51.1049552  56.5982653  22.6624262  60.8279236
  55.8564389  22.8106898  61.4143866  56.2775397  22.9232528  59.9645985
  64.5426316  32.2040241  60.6259626  64.8513442  31.9589387  61.4982325
  65.3401798  32.4086879  60.1378496  57.0439267  30.5489691  52.8589631
  57.8697287  30.2493463  52.4788274  56.6933319  29.7797313  53.3079419
  55.2447872  28.4676017  53.8178564  54.4079780  28.0398192  53.6362565
  55.2171517  28.6608461  54.7549355  62.0845328  18.3797947  64.5219810
  62.1333483  19.2560070  64.1397580  62.6267842  17.8375340  63.9491453
  72.5700173  28.9239071  63.8020947  71.7795717  28.9063209  63.2625447
  72.3333528  29.4627364  64.5569984  72.6898048  25.7731537  61.1153676
  72.7396053  25.6081544  62.0569199  72.5811972  24.9058796  60.7251557
  69.9801811  21.7562465  62.4312982  70.8811673  21.6168930  62.1396980
  70.0549785  21.9216920  63.3711160  64.3144616  19.1329320  61.2766169
  63.4447925  19.4262886  61.0048757  64.5504096  19.7169765  61.9973432
  74.1916245  28.1928478  61.3595697  73.9001053  28.5558459  62.1959158
  73.5788376  27.4795487  61.1809029  75.3911927  25.7581358  53.8798268
  76.2258819  26.1971162  54.0435828  75.5271056  25.2820011  53.0606513
  72.4403433  23.3161093  59.8275755  72.9157555  23.5088739  59.0194607
  71.5168999  23.3720279  59.5819139  59.3286940  24.4785260  49.4106834
  59.0832982  23.5747590  49.6087044  59.4982854  24.4802411  48.4686312
  67.0183650  15.3508937  58.7931589  67.5365594  16.0869964  58.4678078
  66.6638783  15.6572930  59.6278348  58.5982587  20.2113618  46.9092995
  57.9051832  20.2857973  46.2533031  58.3534339  19.4473961  47.4314512
  67.2696244  11.7709219  54.3132486  67.5497998  11.1032408  54.9392912
  68.0546851  11.9638315  53.8007150  71.1405102  20.1926853  58.0604061
  72.0922525  20.2924951  58.0816285  70.9708553  19.4005122  58.5702145
  69.1619482  17.2782436  58.2463462  68.5669414  17.5587449  57.5509950
  68.8769178  17.7676337  59.0180203  73.6193180  23.4132973  57.1746361
  73.5869500  22.4748974  57.3606044  74.2293804  23.4917010  56.4412185
  65.4576511  22.2829026  43.2173565  66.4035616  22.1535234  43.2861983
  65.0790756  21.5443688  43.6942993  73.7687669  20.2044016  57.2204644
  73.2526717  19.4202473  57.0334573  74.6527617  19.8762733  57.3851163
  71.4298395  13.9485032  53.1800456  71.2323217  13.6400120  54.0643788
  72.0398101  14.6746671  53.3098386  79.4369730  24.4748980  56.3152397
  80.1673118  24.2134268  56.8760101  78.8276675  23.7377702  56.3554465
  77.5185027  22.6156842  56.9126849  76.7918191  22.4812807  56.3043340
  77.1032314  22.9233671  57.7183567  65.3415203  26.3346772  64.6774222
  66.2618213  26.5125371  64.8714268  65.3064787  25.3902817  64.5253921
  63.6419428  20.2079002  43.1528450  62.7350883  19.9112115  43.2291163
  63.9195409  19.9108820  42.2862736  54.5597368  21.5285366  53.6027496
  54.2400153  20.6750674  53.3101870  54.0130797  21.7433944  54.3585464
  58.3377276  24.2447807  57.3197003  58.5563286  25.1764914  57.3385037
  58.7503050  23.8855781  58.1051807  65.2581494  14.7515892  49.3072691
  64.4482222  14.4062977  49.6827937  65.9465911  14.4423436  49.8960303
  67.1872042  13.8293939  50.9296988  67.7403081  14.2489392  51.5887011
  67.4242128  12.9029687  50.9719944  63.2105141  19.8181012  66.7099752
  63.1101868  20.7675369  66.6411843  62.9926683  19.4899251  65.8375822
  62.4118213  17.0665937  43.2940429  63.2737377  17.3920836  43.5536246
  62.5968557  16.2797433  42.7813495  54.4285628  25.1488277  55.5720618
  53.7349100  24.7342230  55.0590572  55.1758619  25.1908814  54.9754037
  70.5650849  15.9394464  50.4375652  69.9849518  16.5979268  50.0553704
  70.2986782  15.1171808  50.0263070  69.0154416  15.3399522  52.6396972
  69.5154194  15.4516056  51.8311291  69.6590023  15.0360574  53.2797781
  63.0736411  23.2478151  65.5264813  62.5903493  24.0478511  65.7328702
  63.1597350  23.2586096  64.5732257  56.3422371  25.0806531  53.4486633
  56.3193059  25.1794218  52.4968516  56.6523008  25.9271682  53.7703799
  59.0009749  27.1382686  57.5633247  59.9553002  27.1066628  57.4963179
  58.8022272  26.6773310  58.3783473  59.5909131  25.7083802  60.1304045
  60.4102020  26.2027881  60.1538882  59.8645939  24.7915770  60.1021612
  69.3475727  18.0994554  49.4932000  68.4601582  18.3844205  49.2752195
  69.7629716  17.9388318  48.6459277  72.6990263  18.1241075  53.2086340
  73.4750653  18.6137528  53.4810956  71.9738398  18.5499129  53.6658209
  75.1362822  18.8368694  54.2660280  75.7307313  18.5964430  53.5553588
  75.2089406  18.1175825  54.8933816  57.3559978  32.6802305  54.5803445
  57.2214446  31.9202706  54.0141443  56.9392040  33.4043205  54.1132234
  69.3216751  23.6149090  49.7082290  69.2651952  24.0717642  48.8689923
  69.8745093  22.8539775  49.5305133  73.1321557  19.4038822  50.5332410
  72.8758491  19.0035458  51.3640618  72.5074425  20.1182616  50.4082549
  77.4433895  22.1434895  53.0403701  76.8833453  22.2128085  53.8135263
  76.8377398  21.9675880  52.3203198  70.0551530  24.8053871  47.0034820
  70.0000334  24.6398143  46.0623264  69.4297586  25.5129904  47.1597009
  54.8444045  20.0421936  60.8296242  55.4902909  19.5320890  61.3183467
  54.6361196  20.7790617  61.4039667  67.3697437  27.1102783  66.3288382
  68.2388597  27.2843436  65.9675017  66.8904189  27.9297200  66.2064112
  63.3647656  14.3061980  46.5820138  63.3526326  15.2503820  46.7388409
  64.2571078  14.1232126  46.2879599  61.5383618  34.2299884  58.0077816
  62.4410864  34.2623495  58.3244311  61.3120988  33.3000335  58.0224152
  67.1799775  10.9004757  50.8366075  66.4132171  10.3463244  50.9822757
  67.5910480  10.9726626  51.6980226  59.1841536  17.1889553  64.9271256
  60.0472998  16.8326358  65.1374581  58.6106947  16.8503448  65.6146660
  79.0289913  38.8191409  55.7333657  79.6668323  38.6998157  55.0296997
  78.9110756  39.7672253  55.7921609  75.8379619  38.7718837  55.6695182
  75.4998131  38.6559902  54.7815717  76.7069388  38.3710002  55.6496188
  76.3199402  39.9253689  61.6281387  76.3088043  39.5306487  60.7561891
  76.4820042  39.1919762  62.2215159  73.0406664  42.7090801  60.5760571
  72.7496530  43.6136432  60.4607238  73.6763648  42.7507328  61.2904641
  73.9662870  40.0867649  57.1661931  74.5626443  39.8623672  56.4518894
  74.0237842  39.3452395  57.7687379  78.5831182  36.5442863  52.8086865
  79.3694271  36.1262286  52.4577282  78.8469886  37.4488955  52.9768513
  83.9839609  36.4818096  53.7119844  84.7164781  35.9117313  53.9457673
  83.2278965  36.0939697  54.1526349  81.5065029  30.1939670  58.1714452
  81.1748354  31.0635081  57.9475667  80.9110643  29.8775954  58.8508483
  77.9996549  42.3952216  57.5710365  77.6997272  43.2977255  57.4626172
  77.6547608  42.1284400  58.4231518  81.3993692  34.9134757  55.2507802
  80.4910570  34.8450165  54.9566563  81.3481288  35.3906702  56.0789628
  75.4734558  36.3324402  63.1942700  74.6967892  36.8918322  63.1845564
  76.1125121  36.8181185  63.7157570  83.2655339  33.1151195  57.0285676
  82.6229719  33.4083728  56.3825471  82.7610267  33.0004115  57.8338873
  79.2036270  41.2838996  61.3532828  79.6119626  40.8421407  60.6087460
  78.4813532  40.7091624  61.6067021  75.5567340  36.2211603  58.7266385
  76.4028535  36.6451016  58.8701034  75.4965978  35.5645227  59.4204948
  79.5265085  41.8440187  55.1085117  78.8973947  42.0085901  54.4061185
  79.1390747  42.2581796  55.8796081  83.4054317  42.7794624  52.4629481
  82.7205355  43.1593526  51.9126514  83.4898166  43.3889951  53.1961428
  78.7066786  33.8815971  60.3847559  78.4627717  34.6358032  59.8481834
  78.9826716  34.2601319  61.2194806  80.6605248  40.4254583  59.0624824
  80.8722144  41.0686343  58.3859205  80.6134997  39.5916900  58.5946754
  78.2631477  33.0372404  55.9661396  77.4015956  33.3353658  56.2578134
  78.2893912  33.2542803  55.0342429  71.9717128  41.1286076  55.3114965
  72.5418485  41.5573345  54.6732450  72.5625240  40.8468661  56.0099151
  72.4642294  36.2949504  63.5575977  71.8340955  36.9765785  63.7911373
  72.3578382  36.1832585  62.6129115  81.7751076  43.3026539  57.2347182
  82.5968520  42.9006726  56.9529863  81.7713479  43.1994773  58.1863297
  75.5407680  42.8510582  59.3907892  75.6052112  43.3130989  60.2266064
  74.8318604  42.2207947  59.5190202  89.8657069  39.6465287  53.5832153
  89.1120778  39.0772685  53.4276157  90.0004611  39.6127952  54.5302788
  71.7423037  30.5970270  65.9201228  71.3489983  30.0436468  66.5948872
  72.5589177  30.9080848  66.3107745  74.6590998  32.0128149  63.5121484
  75.4000711  32.6135302  63.4325947  74.8908921  31.2705786  62.9539527
  76.8824174  45.1402256  63.3887214  76.4388028  44.3538635  63.0708119
  77.5441387  45.3281407  62.7231105  78.9805412  45.4205056  61.4168616
  78.9623887  46.2413937  60.9248885  79.9025332  45.2959131  61.6418757
  75.4378466  42.9349186  62.2592124  75.9706803  42.1737474  62.0291432
  74.9092547  42.6422837  63.0016279  78.6048161  28.0409252  57.7885766
  78.2612430  28.9310893  57.7124876  78.9727124  27.8510909  56.9255351
  77.6844701  30.4113907  55.7534999  77.1809497  30.3744042  54.9402804
  77.9775308  31.3206649  55.8131656  81.7824025  40.2584199  54.8877982
  81.1247699  40.9483460  54.9758111  82.5864424  40.6480631  55.2311969
  80.5929484  38.6128571  52.9381924  81.1061365  39.2458563  53.4403634
  81.2430707  38.0129767  52.5725284  77.0710314  36.0878027  55.1840265
  76.1532876  36.3092974  55.0261953  77.4870458  36.1624337  54.3251972
  80.3024199  34.5226559  52.2961734  79.5646956  34.0103945  52.6271977
  80.5550973  34.0826940  51.4845011  80.4035827  27.3002811  52.8903504
  80.7094703  26.4400174  52.6029419  81.1288431  27.8920431  52.6902497
  74.6756906  37.5956604  53.3979695  74.7305516  36.6430440  53.3222171
  73.8648108  37.7516043  53.8820993  78.2123478  36.6775488  59.9884967
  78.5672866  36.9046961  60.8479433  78.8595609  37.0093865  59.3662223
  83.9421215  39.7993924  50.6934296  83.8039113  39.9895520  49.7655486
  83.5857434  40.5613307  51.1502347  83.9690595  41.8670451  55.7045568
  84.4027101  41.7745740  56.5528622  84.6822175  41.8427951  55.0665584
  70.5816883  35.1690101  58.7203120  71.2539936  34.9607463  58.0715769
  69.7546669  34.9712187  58.2808352  84.8306144  41.9094152  58.2378453
  85.0242034  42.8139962  58.4837728  84.7306762  41.4501571  59.0717038
  76.4842455  31.7952042  60.7368781  75.8370370  32.4941992  60.6433257
  77.2543470  32.2288186  61.1045029  79.8921253  42.0600894  63.8119334
  79.7406759  41.8311446  62.8949418  79.8825932  43.0171496  63.8250679
  76.6606589  39.6332807  58.7965600  77.5898649  39.7843967  58.6234568
  76.2397619  39.7216828  57.9414247  75.4594921  43.6583472  56.5664138
  75.3206007  43.2902256  57.4390076  74.6709517  44.1731111  56.3948096
  77.0100136  43.0365074  53.9552976  76.6749969  42.9965844  54.8510626
  76.5104082  42.3709790  53.4823386  70.9844380  38.4432704  59.4805557
  70.8464178  37.7112943  60.0817096  71.8949304  38.3541604  59.1989745
  73.6126681  38.1552664  58.9689237  74.3226299  37.5145856  58.9275855
  73.5695989  38.4065558  59.8915417  81.6013459  45.0920017  61.8895816
  81.5426006  44.4079237  61.2226399  82.0032978  45.8339007  61.4376442
  72.3255615  35.1417881  60.7884876  71.7892972  34.6908620  61.4406472
  71.7372323  35.2763790  60.0455340  81.6030867  43.0559601  60.1209795
  80.7157645  42.7185523  60.2436194  82.1729418  42.3242632  60.3578561
  78.2318450  32.7627453  53.2408066  78.7287149  32.0097415  52.9209136
  77.4605431  32.7991769  52.6751275  86.0848207  38.4667818  54.8826357
  86.0738083  39.3492534  54.5120290  85.2165587  38.1139369  54.6880894
  82.7020782  37.3616459  51.3496523  83.1681234  38.1944451  51.2756826
  83.1528282  36.8961441  52.0541782  80.6737445  29.7297046  55.3887424
  79.7600524  29.9601273  55.5569631  81.1030546  29.8135490  56.2401457
  80.4443903  37.9186938  57.8887318  79.7915353  38.1662846  57.2339771
  80.8224283  37.1051076  57.5549796  76.4931476  38.6606749  64.3753356
  75.8172113  38.5600879  65.0455731  77.3159110  38.5045963  64.8389353
  70.2118752  32.3148826  59.2132856  70.2760079  33.1763657  58.8010254
  70.1485872  31.7022828  58.4805215  69.6871025  34.3871959  62.8605891
  70.3143064  34.0049036  63.4743415  68.8298944  34.1686161  63.2261583
  80.0865133  44.7934934  64.4659626  80.6305037  45.4064892  63.9714581
  79.5051978  45.3514513  64.9826639  80.4357555  45.7164672  57.2254204
  79.4887890  45.5970023  57.1532531  80.7840328  44.8287170  57.3080465
  72.7957128  31.6058811  61.0492446  73.3191530  31.8521108  61.8118755
  72.5769461  32.4378846  60.6295583  81.0438110  46.3345947  54.5123429
  81.9684657  46.1288809  54.3747880  80.8753413  46.0862348  55.4212770
  74.0009673  32.5472506  58.7342116  73.6606493  31.7480319  59.1362796
  73.2948679  32.8474217  58.1618949  74.6526145  29.6321819  57.1869439
  75.4752214  29.1582297  57.0648330  74.8964208  30.4112302  57.6868126
  75.8887237  33.7480828  57.0895435  75.6305015  34.6697898  57.0879765
  75.3572278  33.3511262  57.7795899  76.3089193  29.8812778  53.4496597
  76.3310890  29.9452111  52.4948577  76.7257252  29.0417287  53.6437104
  86.6872817  39.6168038  51.4875820  87.1303963  38.8675363  51.0894943
  85.8099327  39.6078174  51.1049552  83.7200022  43.6198085  48.4969749
  84.2451346  43.9585357  47.7719069  83.6322374  42.6845100  48.3132884
  72.9239082  33.7089865  64.5219810  72.9727237  34.5851988  64.1397580
  73.4661596  33.1667258  63.9491453  83.4093928  44.2530988  63.8020947
  82.6189471  44.2355127  63.2625447  83.1727282  44.7919282  64.5569984
  83.5291803  41.1023455  61.1153676  83.5789808  40.9373462  62.0569199
  83.4205726  40.2350714  60.7251557  80.8195565  37.0854383  62.4312982
  81.7205428  36.9460847  62.1396980  80.8943540  37.2508837  63.3711160
  75.1538370  34.4621237  61.2766169  74.2841680  34.7554803  61.0048757
  75.3897851  35.0461682  61.9973432  85.0310000  43.5220396  61.3595697
  84.7394808  43.8850377  62.1959158  84.4182131  42.8087404  61.1809029
  86.2305682  41.0873276  53.8798268  87.0652573  41.5263080  54.0435828
  86.3664811  40.6111929  53.0606513  83.2797188  38.6453011  59.8275755
  83.7551309  38.8380657  59.0194607  82.3562753  38.7012197  59.5819139
  77.8577404  30.6800854  58.7931589  78.3759348  31.4161881  58.4678078
  77.5032537  30.9864848  59.6278348  78.1089998  27.1001137  54.3132486
  78.3891752  26.4324326  54.9392912  78.8940605  27.2930232  53.8007150
  81.9798857  35.5218771  58.0604061  82.9316280  35.6216868  58.0816285
  81.8102307  34.7297039  58.5702145  80.0013236  32.6074354  58.2463462
  79.4063168  32.8879367  57.5509950  79.7162933  33.0968255  59.0180203
  84.4586935  38.7424891  57.1746361  84.4263255  37.8040891  57.3606044
  85.0687558  38.8208927  56.4412185  84.6081423  35.5335934  57.2204644
  84.0920472  34.7494391  57.0334573  85.4921372  35.2054651  57.3851163
  82.2692150  29.2776950  53.1800456  82.0716971  28.9692038  54.0643788
  82.8791856  30.0038588  53.3098386  90.2763484  39.8040897  56.3152397
  91.0066873  39.5426185  56.8760101  89.6670430  39.0669619  56.3554465
  88.3578782  37.9448760  56.9126849  87.6311945  37.8104725  56.3043340
  87.9426068  38.2525589  57.7183567  76.1808958  41.6638690  64.6774222
  77.1011967  41.8417289  64.8714268  76.1458541  40.7194735  64.5253921
  78.0265797  29.1585856  50.9296988  78.5796835  29.5781310  51.5887011
  78.2635883  28.2321605  50.9719944  74.0498896  35.1472930  66.7099752
  73.9495623  36.0967287  66.6411843  73.8320438  34.8191169  65.8375822
  81.4044604  31.2686382  50.4375652  80.8243273  31.9271186  50.0553704
  81.1380536  30.4463726  50.0263070  79.8548170  30.6691439  52.6396972
  80.3547948  30.7807974  51.8311291  80.4983778  30.3652492  53.2797781
  73.9130166  38.5770069  65.5264813  73.4297248  39.3770429  65.7328702
  73.9991105  38.5878014  64.5732257  80.1869482  33.4286472  49.4932000
  79.2995337  33.7136123  49.2752195  80.6023471  33.2680235  48.6459277
  83.5384018  33.4532993  53.2086340  84.3144408  33.9429445  53.4810956
  82.8132152  33.8791047  53.6658209  85.9756576  34.1660612  54.2660280
  86.5701067  33.9256348  53.5553588  86.0483160  33.4467743  54.8933816
  83.9715311  34.7330740  50.5332410  83.7152246  34.3327375  51.3640618
  83.3468179  35.4474534  50.4082549  88.2827649  37.4726813  53.0403701
  87.7227207  37.5420002  53.8135263  87.6771153  37.2967798  52.3203198
  78.2091192  42.4394701  66.3288382  79.0782352  42.6135353  65.9675017
  77.7297943  43.2589118  66.2064112  78.0193530  26.2296675  50.8366075
  77.2525925  25.6755161  50.9822757  78.4304235  26.3018544  51.6980226
  70.0235291  32.5181471  64.9271256  70.8866752  32.1618275  65.1374581
  69.4500701  32.1795365  65.6146660  89.8683668  54.1483327  55.7333657
  90.5062078  54.0290074  55.0296997  89.7504511  55.0964171  55.7921609
  86.6773374  54.1010755  55.6695182  86.3391885  53.9851820  54.7815717
  87.5463142  53.7001920  55.6496188  82.5360190  55.9546231  51.6592073
  81.9725055  55.8636168  50.8908360  82.4212585  55.1346136  52.1394565
  87.1593157  55.2545607  61.6281387  87.1481798  54.8598405  60.7561891
  87.3213796  54.5211679  62.2215159  88.1159748  59.6217199  46.9706538
  87.4647728  60.2071280  46.5840551  88.9104111  60.1523394  47.0301575
  83.8800418  58.0382719  60.5760571  83.5890284  58.9428349  60.4607238
  84.5157402  58.0799246  61.2904641  84.8056625  55.4159567  57.1661931
  85.4020197  55.1915589  56.4518894  84.8631596  54.6744313  57.7687379
  89.4224936  51.8734781  52.8086865  90.2088025  51.4554204  52.4577282
  89.6863640  52.7780873  52.9768513  89.5935014  57.3107631  47.5075522
  88.9580846  57.3842258  48.2196427  89.2632420  57.9001230  46.8294601
  94.8233363  51.8110014  53.7119844  95.5558535  51.2409231  53.9457673
  94.0672719  51.4231614  54.1526349  86.4409483  54.2337255  50.9083186
  86.0767690  53.7067876  51.6196108  87.2976599  53.8435725  50.7349671
  92.3458784  45.5231588  58.1714452  92.0142108  46.3926999  57.9475667
  91.7504397  45.2067872  58.8508483  86.0814970  49.2627155  45.9044535
  86.2489372  50.1307392  46.2715006  85.8912139  49.4254437  44.9805824
  88.8390303  57.7244134  57.5710365  88.5391026  58.6269173  57.4626172
  88.4941363  57.4576317  58.4231518  92.2387447  50.2426674  55.2507802
  91.3304324  50.1742083  54.9566563  92.1875043  50.7198619  56.0789628
  86.0604191  51.7184813  46.8891201  85.9403816  52.1641863  47.7276682
  85.3656779  52.0670130  46.3304740  83.8211083  64.4888454  50.5381333
  83.7435113  65.4396280  50.6169813  83.2172727  64.1434327  51.1956259
  86.3128313  51.6616320  63.1942700  85.5361647  52.2210240  63.1845564
  86.9518876  52.1473103  63.7157570  94.1049093  48.4443113  57.0285676
  93.4623474  48.7375646  56.3825471  93.6004022  48.3296033  57.8338873
  91.7589257  52.1906286  47.7171535  92.6707113  52.4233673  47.5419233
  91.2498904  52.7743330  47.1546614  84.5674685  54.4701773  62.7560667
  85.3089369  55.0086817  62.4795490  83.8611671  55.0968062  62.9132218
  90.0430025  56.6130914  61.3532828  90.4513381  56.1713324  60.6087460
  89.3207286  56.0383541  61.6067021  86.3961095  51.5503520  58.7266385
  87.2422290  51.9742934  58.8701034  86.3359732  50.8937145  59.4204948
  90.3658839  57.1732104  55.1085117  89.7367702  57.3377818  54.4061185
  89.9784501  57.5873714  55.8796081  94.2448071  58.1086542  52.4629481
  93.5599109  58.4885444  51.9126514  94.3291921  58.7181869  53.1961428
  89.5460540  49.2107889  60.3847559  89.3021472  49.9649949  59.8481834
  89.8220471  49.5893236  61.2194806  91.4999003  55.7546501  59.0624824
  91.7115898  56.3978261  58.3859205  91.4528751  54.9208818  58.5946754
  89.1025232  48.3664322  55.9661396  88.2409711  48.6645575  56.2578134
  89.1287666  48.5834721  55.0342429  85.9186801  56.9106512  52.3735202
  86.3825147  57.1894215  51.5839824  85.6543599  56.0089957  52.1908293
  82.8110882  56.4577994  55.3114965  83.3812239  56.8865262  54.6732450
  83.4018994  56.1760579  56.0099151  83.3036049  51.6241421  63.5575977
  82.6734709  52.3057702  63.7911373  83.1972137  51.5124503  62.6129115
  92.6144831  58.6318457  57.2347182  93.4362275  58.2298644  56.9529863
  92.6107234  58.5286691  58.1863297  86.3801434  58.1802500  59.3907892
  86.4445867  58.6422907  60.2266064  85.6712358  57.5499865  59.5190202
 100.7050824  54.9757205  53.5832153  99.9514532  54.4064603  53.4276157
 100.8398365  54.9419870  54.5302788  86.0949452  59.8470607  49.2586872
  85.9595127  60.6922143  49.6871720  86.6359264  60.0489885  48.4952806
  82.5816792  45.9262187  65.9201228  82.1883737  45.3728386  66.5948872
  83.3982932  46.2372766  66.3107745  81.3573734  60.4811802  51.9137551
  81.5340362  61.4029766  51.7258535  82.1530568  60.1670221  52.3431930
  85.4984753  47.3420066  63.5121484  86.2394466  47.9427219  63.4325947
  85.7302675  46.5997704  62.9539527  80.6426091  52.5276434  61.7899714
  80.5279606  51.6261691  62.0906813  79.7870608  52.7740130  61.4384530
  87.7217928  60.4694174  63.3887214  87.2781782  59.6830552  63.0708119
  88.3835142  60.6573324  62.7231105  82.4805049  61.9989975  57.9147893
  83.0312475  61.8707039  57.1424887  81.6416525  62.2984864  57.5642786
  89.8199166  60.7496974  61.4168616  89.8017642  61.5705855  60.9248885
  90.7419086  60.6251049  61.6418757  86.2772220  58.2641103  62.2592124
  86.8100557  57.5029391  62.0291432  85.7486302  57.9714755  63.0016279
  89.4441915  43.3701169  57.7885766  89.1006185  44.2602811  57.7124876
  89.8120878  43.1802827  56.9255351  89.4092198  53.3609780  46.2958201
  88.8938822  54.1314385  46.5346588  89.1369507  52.6874917  46.9191262
  86.9939309  48.2059481  51.3543439  86.1380906  47.8166332  51.1749078
  87.4066261  48.2851442  50.4943225  88.5238456  45.7405824  55.7534999
  88.0203251  45.7035960  54.9402804  88.8169063  46.6498567  55.8131656
  84.7681342  45.8244554  54.7601181  85.6334339  45.6287363  54.4007070
  84.8358851  45.5954906  55.6870538  94.3826472  56.1142135  48.2311374
  93.6055915  55.7753295  47.7866536  95.0617953  56.1194758  47.5566339
  89.1978501  51.2336872  48.1217982  88.8928637  51.5483022  48.9728125
  90.1508943  51.3118292  48.1645315  87.6424933  57.3927096  49.7710936
  87.1146295  56.6579855  49.4584174  87.1412436  58.1701772  49.5250904
  92.6217779  55.5876116  54.8877982  91.9641454  56.2775378  54.9758111
  93.4258178  55.9772548  55.2311969  82.3743661  48.0546762  52.1317548
  82.9487413  47.8321944  51.3990741  82.9614643  48.1235457  52.8846149
  91.4323238  53.9420489  52.9381924  91.9455120  54.5750481  53.4403634
  92.0824462  53.3421684  52.5725284  84.6766329  44.9288011  50.8592617
  84.0230741  44.6137028  50.2349232  84.6346803  44.3063751  51.5852440
  85.7877533  55.2107306  42.7745909  84.8804595  54.9796559  42.9737058
  86.2848565  54.4144925  42.9619891  88.6945612  63.9204813  45.6942595
  88.0207311  64.2236510  46.3027553  89.0811434  64.7233894  45.3448052
  87.9104069  51.4169945  55.1840265  86.9926630  51.6384892  55.0261953
  88.3264213  51.4916255  54.3251972  88.6939117  52.8161360  50.3142945
  89.4410936  53.3282757  50.0050067  88.9630706  52.4945413  51.1747338
  86.9665767  55.3119901  47.2969899  86.0576986  55.0278934  47.3942369
  86.9960851  55.7318979  46.4373206  92.1985034  58.9226490  51.0661067
  91.7447361  58.0817400  51.1226257  91.5679001  59.5587889  51.4035847
  91.1417954  49.8518476  52.2961734  90.4040711  49.3395863  52.6271977
  91.3944727  49.4118858  51.4845011  90.6417973  60.7602987  52.0010885
  90.9340948  61.3208044  51.2823251  91.1516594  61.0531548  52.7564044
  91.2429581  42.6294728  52.8903504  91.5488458  41.7692092  52.6029419
  91.9682186  43.2212349  52.6902497  85.5150661  52.9248522  53.3979695
  85.5699271  51.9722358  53.3222171  84.7041863  53.0807961  53.8820993
  86.6641855  56.8528645  44.6357978  86.2261285  56.1364504  44.1763615
  87.4052295  57.0804759  44.0743069  85.6051599  61.5383338  53.0904338
  85.5627777  61.7644184  52.1612870  86.5214298  61.3046713  53.2390139
  89.0517232  52.0067406  59.9884967  89.4066620  52.2338879  60.8479433
  89.6989364  52.3385783  59.3662223  94.7814969  55.1285842  50.6934296
  94.6432868  55.3187438  49.7655486  94.4251188  55.8905224  51.1502347
  82.9457096  49.1143937  56.7731308  83.5856475  48.9732696  56.0754272
  82.1134626  48.8278450  56.3969910  94.8084349  57.1962369  55.7045568
  95.2420856  57.1037658  56.5528622  95.5215930  57.1719869  55.0665584
  83.7217399  58.4146367  52.8866301  84.5157998  57.9196687  52.6848876
  83.0109092  57.8864230  52.5234006  88.5412244  60.7964463  57.2378668
  88.5949266  61.3655399  58.0056384  87.6727025  60.9666348  56.8732706
  81.4210637  50.4982019  58.7203120  82.0933691  50.2899381  58.0715769
  80.5940424  50.3004105  58.2808352  95.6699899  57.2386069  58.2378453
  95.8635789  58.1431880  58.4837728  95.5700517  56.7793488  59.0717038
  87.3236209  47.1243960  60.7368781  86.6764124  47.8233910  60.6433257
  88.0937225  47.5580104  61.1045029  90.7315007  57.3892812  63.8119334
  90.5800514  57.1603364  62.8949418  90.7219687  58.3463413  63.8250679
  87.5000344  54.9624725  58.7965600  88.4292404  55.1135884  58.6234568
  87.0791374  55.0508746  57.9414247  86.2988675  58.9875389  56.5664138
  86.1599761  58.6194174  57.4390076  85.5103272  59.5023029  56.3948096
  86.8936827  64.0884486  47.9089674  87.0688583  63.6172529  48.7235297
  86.2069615  64.7150252  48.1370935  87.8493891  58.3656992  53.9552976
  87.5143723  58.3257762  54.8510626  87.3497836  57.7001708  53.4823386
  81.8238135  53.7724622  59.4805557  81.6857932  53.0404861  60.0817096
  82.7343058  53.6833522  59.1989745  90.7853082  55.7113026  44.2290035
  90.1682253  54.9859854  44.1323088  90.3169571  56.4722387  43.8857110
  84.4520435  53.4844581  58.9689237  85.1620054  52.8437773  58.9275855
  84.4089743  53.7357476  59.8915417  92.4407214  60.4211935  61.8895816
  92.3819760  59.7371155  61.2226399  92.8426732  61.1630925  61.4376442
  83.1649369  50.4709799  60.7884876  82.6286726  50.0200538  61.4406472
  82.5766078  50.6055708  60.0455340  81.4597913  67.2373848  54.6829535
  81.6994511  67.8692373  55.3608553  80.6167109  66.8861888  54.9694894
  92.4424621  58.3851519  60.1209795  91.5551400  58.0477440  60.2436194
  93.0123172  57.6534550  60.3578561  85.9725775  63.0452971  57.0871039
  85.8995946  63.8507942  57.5990343  85.5303168  63.2444937  56.2619060
  85.7615554  62.2824741  50.5973860  84.9783076  62.8246421  50.6912085
  86.4608299  62.7998721  50.9968101  89.0712204  48.0919370  53.2408066
  89.5680904  47.3389333  52.9209136  88.2999186  48.1283687  52.6751275
  96.9241962  53.7959736  54.8826357  96.9131838  54.6784451  54.5120290
  96.0559341  53.4431287  54.6880894  88.4324458  62.9439805  59.2429197
  89.1452430  63.5787270  59.1705099  87.9414487  63.0403671  58.4269199
  90.1541985  56.8491058  50.8146489  89.2198264  56.9692520  50.6451193
  90.3318653  55.9463524  50.5506499  85.6547173  50.2336753  52.9679750
  85.2844961  49.6807794  53.6560656  86.1506265  49.6294887  52.4154750
  93.5414536  52.6908377  51.3496523  94.0074989  53.5236368  51.2756826
  93.9922037  52.2253358  52.0541782  83.4836372  60.6934248  60.0634768
  84.1845831  61.3270731  60.2164162  83.0131487  61.0348980  59.3030407
  91.6090767  59.0352198  48.3482675  91.8850611  58.9208793  49.2576549
  90.7395266  58.6369683  48.3094848  91.5131199  45.0588964  55.3887424
  90.5994279  45.2893191  55.5569631  91.9424301  45.1427408  56.2401457
  91.2837658  53.2478856  57.8887318  90.6309108  53.4954763  57.2339771
  91.6618037  52.4342994  57.5549796  88.2444831  63.2838549  51.9915489
  88.4267226  62.4660205  52.4543241  89.0677817  63.5006241  51.5540379
  88.5786997  62.2106734  49.2530537  89.1074763  61.6999189  48.6400699
  88.8415217  61.8949264  50.1176070  87.3325231  53.9898667  64.3753356
  86.6565868  53.8892796  65.0455731  88.1552864  53.8337881  64.8389353
  81.9342745  63.2621851  52.0128313  81.2653120  63.7467978  51.5292353
  81.7955615  63.5091071  52.9271692  86.0748013  65.2965594  58.6110972
  86.6266322  65.4597216  59.3760057  86.4154207  65.8870032  57.9390996
  81.0512507  47.6440744  59.2132856  81.1153833  48.5055575  58.8010254
  80.9879627  47.0314746  58.4805215  80.5264779  49.7163877  62.8605891
  81.1536818  49.3340954  63.4743415  79.6692698  49.4978079  63.2261583
  90.9258888  60.1226852  64.4659626  91.4698792  60.7356810  63.9714581
  90.3445733  60.6806430  64.9826639  89.2116401  63.2447570  55.5974654
  89.0867540  62.4437310  55.0885599  89.8695492  63.7393763  55.1088624
  91.2751309  61.0456590  57.2254204  90.3281645  60.9261941  57.1532531
  91.6234082  60.1579088  57.3080465  83.6350883  46.9350729  61.0492446
  84.1585284  47.1813025  61.8118755  83.4163216  47.7670764  60.6295583
  88.2797742  60.8409306  53.4258556  88.1322705  59.9126014  53.6066126
  89.1051236  60.8629397  52.9415631  91.8831864  61.6637865  54.5123429
  92.8078412  61.4580726  54.3747880  91.7147168  61.4154266  55.4212770
  84.8403428  47.8764424  58.7342116  84.5000248  47.0772237  59.1362796
  84.1342434  48.1766135  58.1618949  85.4919899  44.9613736  57.1869439
  86.3145969  44.4874215  57.0648330  85.7357963  45.7404220  57.6868126
  88.2759257  48.6947144  48.4190673  88.4922871  49.5771782  48.1179501
  87.7953324  48.3033357  47.6896315  83.0158478  51.6532857  54.9961418
  82.8703059  51.9673160  55.8885699  82.5383682  52.2717757  54.4432316
  84.8754861  48.6435405  55.0442307  84.8616430  47.7476498  54.7074605
  85.5927289  48.6506069  55.6780593  86.7280992  49.0772745  57.0895435
  86.4698770  49.9989816  57.0879765  86.1966032  48.6803180  57.7795899
  91.6727180  62.1823532  49.8685520  91.8464058  61.6169955  49.1159373
  92.1656072  62.9824427  49.6865010  84.2791757  47.5249785  50.3129878
  84.4007668  46.5966431  50.5120765  83.9893799  47.5388471  49.4008193
  87.1482947  45.2104696  53.4496597  87.1704644  45.2744029  52.4948577
  87.5651006  44.3709204  53.6437104  97.5266572  54.9459955  51.4875820
  97.9697718  54.1967280  51.0894943  96.6493082  54.9370092  51.1049552
  92.6602353  61.4990297  46.9682418  93.3553258  62.1196989  47.1869733
  93.0025503  60.6485648  47.2434796  94.5593776  58.9490002  48.4969749
  95.0845100  59.2877275  47.7719069  94.4716129  58.0137018  48.3132884
  86.2213825  62.8624076  60.6259626  86.5300951  62.6173223  61.4982325
  87.0189307  63.0670714  60.1378496  86.2434437  65.0161986  52.8565002
  85.8039427  64.5238364  53.5497859  86.9942554  64.4734953  52.6157078
  83.6908309  60.5599995  54.9287304  83.0688318  59.8970700  54.6289532
  84.3613176  60.5861127  54.2460952  83.7632836  49.0381783  64.5219810
  83.8120992  49.9143905  64.1397580  84.3055351  48.4959176  63.9491453
  94.2487682  59.5822906  63.8020947  93.4583226  59.5647045  63.2625447
  94.0121037  60.1211200  64.5569984  94.3685557  56.4315372  61.1153676
  94.4183562  56.2665380  62.0569199  94.2599481  55.5642631  60.7251557
  91.6589320  52.4146300  62.4312982  92.5599182  52.2752765  62.1396980
  91.7337294  52.5800755  63.3711160  85.9932125  49.7913155  61.2766169
  85.1235434  50.0846721  61.0048757  86.2291605  50.3753600  61.9973432
  95.8703754  58.8512314  61.3595697  95.5788562  59.2142294  62.1959158
  95.2575885  58.1379322  61.1809029  97.0699436  56.4165194  53.8798268
  97.9046328  56.8554998  54.0435828  97.2058565  55.9403847  53.0606513
  94.1190942  53.9744928  59.8275755  94.5945064  54.1672575  59.0194607
  93.1956508  54.0304114  59.5819139  88.6971159  46.0092772  58.7931589
  89.2153103  46.7453799  58.4678078  88.3426292  46.3156765  59.6278348
  88.9483753  42.4293055  54.3132486  89.2285507  41.7616244  54.9392912
  89.7334360  42.6222150  53.8007150  86.7517221  61.6052048  45.8757512
  86.1791189  62.2242236  45.4227984  87.3250015  62.1551410  46.4097434
  92.8192611  50.8510689  58.0604061  93.7710034  50.9508786  58.0816285
  92.6496062  50.0588957  58.5702145  90.8406991  47.9366272  58.2463462
  90.2456923  48.2171284  57.5509950  90.5556687  48.4260173  59.0180203
  89.9714481  61.8889199  47.0066094  90.9045154  61.8234760  47.2098970
  89.8837694  62.7245465  46.5480627  92.6002498  61.2055069  43.9670042
  92.5216129  60.8714932  44.8605800  93.4212165  61.6976837  43.9661514
  95.2980689  54.0716808  57.1746361  95.2657009  53.1332809  57.3606044
  95.9081313  54.1500845  56.4412185  87.1364020  52.9412861  43.2173565
  88.0823125  52.8119069  43.2861983  86.7578265  52.2027523  43.6942993
  95.4475178  50.8627852  57.2204644  94.9314226  50.0786308  57.0334573
  96.3315126  50.5346568  57.3851163  93.1085904  44.6068867  53.1800456
  92.9110726  44.2983955  54.0643788  93.7185610  45.3330506  53.3098386
 101.1157239  55.1332815  56.3152397 101.8460627  54.8718103  56.8760101
 100.5064184  54.3961537  56.3554465  99.1972536  53.2740678  56.9126849
  98.4705700  53.1396643  56.3043340  98.7819823  53.5817506  57.7183567
  87.0202712  56.9930607  64.6774222  87.9405722  57.1709206  64.8714268
  86.9852296  56.0486653  64.5253921  85.3206937  50.8662838  43.1528450
  84.4138392  50.5695950  43.2291163  85.5982918  50.5692656  42.2862736
  86.9369003  45.4099727  49.3072691  86.1269731  45.0646812  49.6827937
  87.6253420  45.1007271  49.8960303  88.8659551  44.4877774  50.9296988
  89.4190590  44.9073227  51.5887011  89.1029637  43.5613522  50.9719944
  84.8892650  50.4764848  66.7099752  84.7889377  51.4259205  66.6411843
  84.6714192  50.1483087  65.8375822  92.2438358  46.5978299  50.4375652
  91.6637027  47.2563103  50.0553704  91.9774291  45.7755644  50.0263070
  90.6941925  45.9983357  52.6396972  91.1941703  46.1099891  51.8311291
  91.3377532  45.6944410  53.2797781  84.7523920  53.9061987  65.5264813
  84.2691002  54.7062347  65.7328702  84.8384859  53.9169931  64.5732257
  91.0263236  48.7578390  49.4932000  90.1389091  49.0428040  49.2752195
  91.4417225  48.5972153  48.6459277  94.3777772  48.7824911  53.2086340
  95.1538162  49.2721363  53.4810956  93.6525907  49.2082965  53.6658209
  96.8150331  49.4952530  54.2660280  97.4094822  49.2548266  53.5553588
  96.8876915  48.7759660  54.8933816  90.1706450  58.5223064  43.5880020
  90.8742300  58.7273067  44.2037676  89.4469098  59.0899826  43.8529104
  91.0004260  54.2732926  49.7082290  90.9439461  54.7301477  48.8689923
  91.5532602  53.5123610  49.5305133  94.8109066  50.0622657  50.5332410
  94.5546000  49.6619293  51.3640618  94.1861934  50.7766451  50.4082549
  99.1221404  52.8018731  53.0403701  98.5620962  52.8711920  53.8135263
  98.5164907  52.6259715  52.3203198  82.1916613  64.2355458  54.7921888
  82.0748997  65.1800890  54.6900578  81.3709059  63.9329019  55.1807687
  92.0793147  58.9605593  45.6378480  92.9138751  58.5286792  45.4555955
  91.9177490  58.7887607  46.5655375  91.7339039  55.4637707  47.0034820
  91.6787843  55.2981978  46.0623264  91.1085095  56.1713740  47.1597009
  89.0484946  57.7686619  66.3288382  89.9176106  57.9427271  65.9675017
  88.5691698  58.5881035  66.2064112  85.0435165  44.9645816  46.5820138
  85.0313835  45.9087656  46.7388409  85.9358587  44.7815961  46.2879599
  83.2171127  64.8883720  58.0077816  84.1198373  64.9207330  58.3244311
  82.9908497  63.9584171  58.0224152  84.9724729  63.6414706  54.6687895
  84.0220360  63.6416568  54.5552267  85.2757215  62.8947441  54.1523929
  88.8587284  41.5588592  50.8366075  88.0919680  41.0047079  50.9822757
  89.2697989  41.6310461  51.6980226  80.8629045  47.8473388  64.9271256
  81.7260507  47.4910193  65.1374581  80.2894456  47.5087283  65.6146660
 100.7077422  69.4775245  55.7333657 101.3455832  69.3581992  55.0296997
 100.5898265  70.4256089  55.7921609  97.5167128  69.4302673  55.6695182
  97.1785640  69.3143737  54.7815717  98.3856897  69.0293838  55.6496188
  93.3753944  71.2838149  51.6592073  92.8118809  71.1928086  50.8908360
  93.2606339  70.4638054  52.1394565  97.9986911  70.5837524  61.6281387
  97.9875552  70.1890323  60.7561891  98.1607551  69.8503597  62.2215159
  90.9218376  72.7789341  54.4976293  91.7139668  72.4380165  54.0822592
  91.1615026  72.8884316  55.4178446  98.9553503  74.9509117  46.9706538
  98.3041483  75.5363197  46.5840551  99.7497866  75.4815312  47.0301575
  92.8809130  72.0398254  47.3693672  93.6540006  71.4927241  47.2306548
  93.2334529  72.9042503  47.5808133  94.7194173  73.3674636  60.5760571
  94.4284039  74.2720267  60.4607238  95.3551157  73.4091164  61.2904641
  95.6450379  70.7451485  57.1661931  96.2413952  70.5207507  56.4518894
  95.7025351  70.0036230  57.7687379  95.2175408  68.1990920  45.0012122
  95.4700929  67.6772441  44.2395585  94.2799967  68.0357066  45.1038805
 100.2618691  67.2026698  52.8086865 101.0481780  66.7846122  52.4577282
 100.5257395  68.1072791  52.9768513 100.4328768  72.6399549  47.5075522
  99.7974601  72.7134175  48.2196427 100.1026174  73.2293148  46.8294601
 105.6627118  67.1401932  53.7119844 106.3952290  66.5701148  53.9457673
 104.9066473  66.7523532  54.1526349  94.9371697  70.1019026  47.2036497
  94.8207955  69.4263929  47.8717581  95.0473956  69.6151400  46.3868650
  97.2803238  69.5629173  50.9083186  96.9161445  69.0359794  51.6196108
  98.1370353  69.1727642  50.7349671 103.1852538  60.8523506  58.1714452
 102.8535863  61.7218917  57.9475667 102.5898152  60.5359790  58.8508483
  96.9208724  64.5919073  45.9044535  97.0883127  65.4599309  46.2715006
  96.7305894  64.7546355  44.9805824  99.6784058  73.0536052  57.5710365
  99.3784781  73.9561091  57.4626172  99.3335117  72.7868235  58.4231518
  93.1296539  69.5049849  53.6047069  92.2047036  69.3726063  53.8124761
  93.3780952  70.2844068  54.1017012 103.0781201  65.5718592  55.2507802
 102.1698079  65.5034000  54.9566563 103.0268797  66.0490537  56.0789628
  96.8997945  67.0476730  46.8891201  96.7797571  67.4933781  47.7276682
  96.2050534  67.3962048  46.3304740  90.4905350  69.1483122  54.4390858
  90.6197731  69.4017601  55.3530270  89.8102801  69.7410830  54.1195513
  94.6604837  79.8180372  50.5381333  94.5828867  80.7688197  50.6169813
  94.0566481  79.4726245  51.1956259  97.1522067  66.9908238  63.1942700
  96.3755401  67.5502158  63.1845564  97.7912630  67.4765021  63.7157570
 104.9442848  63.7735030  57.0285676 104.3017228  64.0667563  56.3825471
 104.4397776  63.6587951  57.8338873 102.5983012  67.5198204  47.7171535
 103.5100868  67.7525590  47.5419233 102.0892659  68.1035248  47.1546614
  95.4068440  69.7993691  62.7560667  96.1483124  70.3378735  62.4795490
  94.7005425  70.4259980  62.9132218 100.8823779  71.9422831  61.3532828
 101.2907135  71.5005242  60.6087460 100.1601041  71.3675459  61.6067021
  97.2354849  66.8795438  58.7266385  98.0816044  67.3034852  58.8701034
  97.1753487  66.2229062  59.4204948 101.2052594  72.5024022  55.1085117
 100.5761456  72.6669736  54.4061185 100.8178256  72.9165632  55.8796081
 105.0841826  73.4378460  52.4629481 104.3992864  73.8177361  51.9126514
 105.1685675  74.0473786  53.1961428 100.3854295  64.5399806  60.3847559
 100.1415226  65.2941867  59.8481834 100.6614225  64.9185154  61.2194806
 102.3392757  71.0838419  59.0624824 102.5509653  71.7270179  58.3859205
 102.2922506  70.2500735  58.5946754  99.9418986  63.6956239  55.9661396
  99.0803465  63.9937493  56.2578134  99.9681421  63.9126638  55.0342429
  96.7580556  72.2398430  52.3735202  97.2218901  72.5186133  51.5839824
  96.4937354  71.3381875  52.1908293  93.6504637  71.7869912  55.3114965
  94.2205994  72.2157180  54.6732450  94.2412749  71.5052496  56.0099151
  95.6949442  68.3621582  49.1824767  96.3973485  68.8142626  49.6498694
  95.3630070  67.7205401  49.8104660  94.1429803  66.9533339  63.5575977
  93.5128464  67.6349620  63.7911373  94.0365891  66.8416421  62.6129115
  89.4374776  66.6205135  54.4841901  88.6473830  66.8762664  54.0082011
  89.9286023  67.4353473  54.5893941 103.4538585  73.9610374  57.2347182
 104.2756029  73.5590562  56.9529863 103.4500988  73.8578608  58.1863297
  91.3889521  66.9849714  51.4425377  90.5920684  67.0968409  51.9608873
  91.1615113  67.3236367  50.5766268  97.2195189  73.5094418  59.3907892
  97.2839621  73.9714825  60.2266064  96.5106113  72.8791782  59.5190202
  87.7212479  66.8735626  56.9156892  87.9720517  67.7582635  57.1814467
  88.2572027  66.6940227  56.1431983  96.9343206  75.1762525  49.2586872
  96.7988881  76.0214061  49.6871720  97.4753019  75.3781803  48.4952806
  93.4210546  61.2554105  65.9201228  93.0277492  60.7020303  66.5948872
  94.2376686  61.5664683  66.3107745  90.3872604  72.6937963  49.8314797
  90.8997124  73.4881213  49.9820362  91.0395317  71.9964254  49.7648399
  92.1967488  75.8103719  51.9137551  92.3734117  76.7321684  51.7258535
  92.9924322  75.4962139  52.3431930  96.3378507  62.6711984  63.5121484
  97.0788220  63.2719137  63.4325947  96.5696430  61.9289622  62.9539527
  91.4819845  67.8568351  61.7899714  91.3673360  66.9553608  62.0906813
  90.6264363  68.1032048  61.4384530  98.5611683  75.7986092  63.3887214
  98.1175537  75.0122470  63.0708119  99.2228896  75.9865242  62.7231105
  93.3198804  77.3281893  57.9147893  93.8706229  77.1998957  57.1424887
  92.4810280  77.6276782  57.5642786 100.6592921  76.0788891  61.4168616
 100.6411396  76.8997773  60.9248885 101.5812841  75.9542967  61.6418757
  97.1165975  73.5933021  62.2592124  97.6494312  72.8321309  62.0291432
  96.5880056  73.3006673  63.0016279 100.2835670  58.6993087  57.7885766
  99.9399939  59.5894729  57.7124876 100.6514633  58.5094745  56.9255351
  88.3521521  71.0226617  50.6074368  89.1896743  71.4323626  50.3908076
  88.5299788  70.0826060  50.5774562 100.2485953  68.6901698  46.2958201
  99.7332576  69.4606303  46.5346588  99.9763261  68.0166834  46.9191262
  97.8333064  63.5351399  51.3543439  96.9774660  63.1458249  51.1749078
  98.2460015  63.6143360  50.4943225  99.3632210  61.0697742  55.7534999
  98.8597006  61.0327877  54.9402804  99.6562817  61.9790485  55.8131656
  95.6075096  61.1536472  54.7601181  96.4728093  60.9579280  54.4007070
  95.6752605  60.9246824  55.6870538 105.2220227  71.4434053  48.2311374
 104.4449670  71.1045212  47.7866536 105.9011708  71.4486676  47.5566339
 100.0372256  66.5628790  48.1217982  99.7322391  66.8774939  48.9728125
 100.9902698  66.6410210  48.1645315  98.4818688  72.7219013  49.7710936
  97.9540049  71.9871773  49.4584174  97.9806190  73.4993690  49.5250904
 103.4611534  70.9168034  54.8877982 102.8035208  71.6067295  54.9758111
 104.2651933  71.3064466  55.2311969  93.2137415  63.3838680  52.1317548
  93.7881167  63.1613861  51.3990741  93.8008398  63.4527374  52.8846149
 102.2716993  69.2712407  52.9381924 102.7848874  69.9042398  53.4403634
 102.9218216  68.6713602  52.5725284  93.5407002  65.4143141  46.1513433
  92.7044315  65.7517827  46.4722708  93.4011772  65.2792121  45.2140570
  95.5160083  60.2579929  50.8592617  94.8624495  59.9428946  50.2349232
  95.4740557  59.6355669  51.5852440  96.6271288  70.5399224  42.7745909
  95.7198350  70.3088477  42.9737058  97.1242320  69.7436843  42.9619891
  99.5339367  79.2496731  45.6942595  98.8601066  79.5528428  46.3027553
  99.9205189  80.0525811  45.3448052  98.7497823  66.7461862  55.1840265
  97.8320385  66.9676809  55.0261953  99.1657967  66.8208173  54.3251972
  99.5332871  68.1453278  50.3142945 100.2804690  68.6574675  50.0050067
  99.8024461  67.8237331  51.1747338  97.8059521  70.6411819  47.2969899
  96.8970741  70.3570851  47.3942369  97.8354605  71.0610897  46.4373206
 103.0378789  74.2518408  51.0661067 102.5841116  73.4109318  51.1226257
 102.4072755  74.8879806  51.4035847 101.9811708  65.1810394  52.2961734
 101.2434465  64.6687780  52.6271977 102.2338482  64.7410776  51.4845011
 101.4811728  76.0894905  52.0010885 101.7734702  76.6499962  51.2823251
 101.9910349  76.3823466  52.7564044 102.0823336  57.9586646  52.8903504
 102.3882212  57.0984010  52.6029419 102.8075940  58.5504266  52.6902497
  88.3747692  68.3617333  51.2785101  88.1772092  67.7686693  50.5536168
  87.8194356  68.0569543  51.9961040  96.3544415  68.2540439  53.3979695
  96.4093025  67.3014276  53.3222171  95.5435617  68.4099878  53.8820993
  97.5035609  72.1820562  44.6357978  97.0655039  71.4656421  44.1763615
  98.2446050  72.4096677  44.0743069  94.2936775  66.8717499  51.1570073
  93.4804641  67.1711669  51.5635266  94.7895769  66.4773188  51.8744556
  96.4445353  76.8675256  53.0904338  96.4021532  77.0936102  52.1612870
  97.3608052  76.6338630  53.2390139  99.8910987  67.3359323  59.9884967
 100.2460375  67.5630797  60.8479433 100.5383118  67.6677700  59.3662223
 105.6208724  70.4577759  50.6934296 105.4826622  70.6479355  49.7655486
 105.2644943  71.2197142  51.1502347  93.7850850  64.4435854  56.7731308
  94.4250229  64.3024614  56.0754272  92.9528381  64.1570368  56.3969910
 105.6478103  72.5254286  55.7045568 106.0814610  72.4329575  56.5528622
 106.3609684  72.5011787  55.0665584  94.5611154  73.7438285  52.8866301
  95.3551752  73.2488605  52.6848876  93.8502846  73.2156148  52.5234006
  99.3805998  76.1256380  57.2378668  99.4343021  76.6947317  58.0056384
  98.5120780  76.2958265  56.8732706  90.8693917  67.8881367  48.9626054
  89.9391505  67.8265822  49.1796016  90.9651389  67.3657319  48.1662695
  90.7879466  64.4136179  51.5504295  91.0486284  65.3281513  51.4413456
  91.6096639  63.9460622  51.7000908  92.2604392  65.8273937  58.7203120
  92.9327445  65.6191299  58.0715769  91.4334178  65.6296023  58.2808352
 106.5093653  72.5677987  58.2378453 106.7029543  73.4723797  58.4837728
 106.4094271  72.1085406  59.0717038  98.1629964  62.4535878  60.7368781
  97.5157879  63.1525827  60.6433257  98.9330979  62.8872021  61.1045029
 101.5708762  72.7184730  63.8119334 101.4194268  72.4895281  62.8949418
 101.5613441  73.6755331  63.8250679  98.3394098  70.2916642  58.7965600
  99.2686158  70.4427802  58.6234568  97.9185128  70.3800663  57.9414247
  97.1382430  74.3167307  56.5664138  96.9993516  73.9486091  57.4390076
  96.3497026  74.8314946  56.3948096  97.7330582  79.4176403  47.9089674
  97.9082338  78.9464447  48.7235297  97.0463370  80.0442170  48.1370935
  98.6887645  73.6948910  53.9552976  98.3537478  73.6549680  54.8510626
  98.1891591  73.0293625  53.4823386  92.6631889  69.1016540  59.4805557
  92.5251687  68.3696778  60.0817096  93.5736813  69.0125440  59.1989745
 101.6246837  71.0404944  44.2290035 101.0076007  70.3151772  44.1323088
 101.1563325  71.8014304  43.8857110  95.2914190  68.8136499  58.9689237
  96.0013808  68.1729691  58.9275855  95.2483498  69.0649394  59.8915417
 103.2800968  75.7503852  61.8895816 103.2213515  75.0663072  61.2226399
 103.6820487  76.4922842  61.4376442  94.0043124  65.8001717  60.7884876
  93.4680481  65.3492455  61.4406472  93.4159832  65.9347626  60.0455340
  92.2991667  82.5665766  54.6829535  92.5388265  83.1984290  55.3608553
  91.4560864  82.2153806  54.9694894  93.4145383  65.2590368  43.3511340
  92.5374849  65.1379169  42.9873586  93.8903136  64.4676447  43.0990228
 103.2818376  73.7143436  60.1209795 102.3945154  73.3769358  60.2436194
 103.8516927  72.9826467  60.3578561  84.9347523  70.0467528  53.4452847
  85.6218563  69.7329258  52.8573862  84.7795651  70.9508893  53.1720098
  89.7382245  64.9357724  57.8737871  89.6540434  64.3283394  57.1388280
  88.9164951  65.4266743  57.8747367  96.8119529  78.3744889  57.0871039
  96.7389701  79.1799860  57.5990343  96.3696922  78.5736854  56.2619060
  96.6009309  77.6116659  50.5973860  95.8176831  78.1538339  50.6912085
  97.3002054  78.1290638  50.9968101  99.9105959  63.4211288  53.2408066
 100.4074658  62.6681250  52.9209136  99.1392940  63.4575605  52.6751275
 107.7635716  69.1251654  54.8826357 107.7525592  70.0076369  54.5120290
 106.8953096  68.7723204  54.6880894  99.2718213  78.2731723  59.2429197
  99.9846185  78.9079187  59.1705099  98.7808241  78.3695589  58.4269199
 100.9935739  72.1782975  50.8146489 100.0592018  72.2984438  50.6451193
 101.1712408  71.2755442  50.5506499  96.4940928  65.5628671  52.9679750
  96.1238715  65.0099711  53.6560656  96.9900020  64.9586804  52.4154750
 104.3808291  68.0200295  51.3496523 104.8468743  68.8528286  51.2756826
 104.8315791  67.5545276  52.0541782  94.3230126  76.0226166  60.0634768
  95.0239586  76.6562649  60.2164162  93.8525241  76.3640898  59.3030407
 102.4484522  74.3644116  48.3482675 102.7244366  74.2500710  49.2576549
 101.5789021  73.9661601  48.3094848 102.3524954  60.3880882  55.3887424
 101.4388033  60.6185108  55.5569631 102.7818055  60.4719326  56.2401457
 102.1231412  68.5770773  57.8887318 101.4702862  68.8246681  57.2339771
 102.5011792  67.7634912  57.5549796  99.0838586  78.6130467  51.9915489
  99.2660980  77.7952123  52.4543241  99.9071572  78.8298159  51.5540379
  99.4180751  77.5398652  49.2530537  99.9468518  77.0291106  48.6400699
  99.6808971  77.2241182  50.1176070  98.1718985  69.3190585  64.3753356
  97.4959622  69.2184714  65.0455731  98.9946619  69.1629798  64.8389353
  89.9197844  75.5562521  56.9965871  90.5051281  74.8106209  57.1293775
  89.7222683  75.8666478  57.8802535  92.7736499  78.5913768  52.0128313
  92.1046875  79.0759896  51.5292353  92.6349369  78.8382989  52.9271692
  84.5115499  68.1268121  55.7170314  84.5499598  67.5931712  56.5107432
  84.0055792  67.6003327  55.0981291  96.9141768  80.6257512  58.6110972
  97.4660076  80.7889133  59.3760057  97.2547961  81.2161950  57.9390996
  91.8906261  62.9732662  59.2132856  91.9547588  63.8347493  58.8010254
  91.8273381  62.3606663  58.4805215  91.3658534  65.0455794  62.8605891
  91.9930573  64.6632872  63.4743415  90.5086453  64.8269996  63.2261583
 101.7652642  75.4518770  64.4659626 102.3092546  76.0648728  63.9714581
 101.1839487  76.0098348  64.9826639  88.1424076  66.8532223  48.7924245
  88.4377518  65.9442902  48.7391299  87.2412112  66.8319963  48.4705248
 100.0510155  78.5739488  55.5974654  99.9261295  77.7729227  55.0885599
 100.7089246  79.0685681  55.1088624  91.6718323  64.9288220  54.7751794
  90.9504909  65.5424188  54.6359267  92.4611579  65.4645985  54.6968440
 102.1145064  76.3748508  57.2254204 101.1675399  76.2553859  57.1532531
 102.4627837  75.4871006  57.3080465  94.4744637  62.2642647  61.0492446
  94.9979039  62.5104943  61.8118755  94.2556970  63.0962681  60.6295583
  89.8711918  64.5346321  48.9163570  89.5424624  63.6543700  48.7338676
  90.2251289  64.4793990  49.8039960  99.1191497  76.1701224  53.4258556
  98.9716459  75.2417931  53.6066126  99.9444990  76.1921315  52.9415631
  92.9853741  64.8219291  49.2839048  93.3249814  65.3505212  48.5617657
  93.4325862  65.1599697  50.0597615 102.7225619  76.9929783  54.5123429
 103.6472166  76.7872644  54.3747880 102.5540922  76.7446184  55.4212770
  95.6797182  63.2056342  58.7342116  95.3394002  62.4064155  59.1362796
  94.9736188  63.5058052  58.1618949  96.3313654  60.2905654  57.1869439
  97.1539723  59.8166132  57.0648330  96.5751717  61.0696138  57.6868126
  94.9721888  63.3193912  47.4832341  95.6930251  63.6975165  46.9796058
  94.3487192  64.0382789  47.5867319  99.1153011  64.0239061  48.4190673
  99.3316626  64.9063699  48.1179501  98.6347078  63.6325275  47.6896315
  93.8552233  66.9824775  54.9961418  93.7096813  67.2965078  55.8885699
  93.3777436  67.6009675  54.4432316  95.7148616  63.9727323  55.0442307
  95.7010184  63.0768416  54.7074605  96.4321044  63.9797986  55.6780593
  97.5674746  64.4064663  57.0895435  97.3092524  65.3281734  57.0879765
  97.0359787  64.0095097  57.7795899 102.5120935  77.5115450  49.8685520
 102.6857813  76.9461872  49.1159373 103.0049826  78.3116345  49.6865010
  88.3297895  69.5230119  57.9349079  87.7851363  70.2989927  58.0669353
  89.2077245  69.8700924  57.7768200  95.1185511  62.8541703  50.3129878
  95.2401423  61.9258349  50.5120765  94.8287554  62.8680389  49.4008193
  97.9876702  60.5396613  53.4496597  98.0098399  60.6035946  52.4948577
  98.4044761  59.7001122  53.6437104 103.4996107  76.8282214  46.9682418
 104.1947012  77.4488907  47.1869733 103.8419258  75.9777566  47.2434796
  89.1163917  68.6500015  60.8279236  88.3745653  68.7982651  61.4143866
  88.7956661  68.9108281  59.9645985 105.3987531  74.2781920  48.4969749
 105.9238855  74.6169193  47.7719069 105.3109883  73.3428935  48.3132884
  97.0607579  78.1915994  60.6259626  97.3694706  77.9465140  61.4982325
  97.8583061  78.3962632  60.1378496  97.0828191  80.3453903  52.8565002
  96.6433182  79.8530282  53.5497859  97.8336308  79.8026871  52.6157078
  89.5620530  76.5365444  52.8589631  90.3878550  76.2369216  52.4788274
  89.2114582  75.7673067  53.3079419  94.5302063  75.8891912  54.9287304
  93.9082073  75.2262617  54.6289532  95.2006930  75.9153044  54.2460952
  87.7629135  74.4551771  53.8178564  86.9261044  74.0273945  53.6362565
  87.7352781  74.6484214  54.7549355  94.6026591  64.3673700  64.5219810
  94.6514746  65.2435823  64.1397580  95.1449105  63.8251093  63.9491453
 105.0881437  74.9114824  63.8020947 104.2976980  74.8938962  63.2625447
 104.8514791  75.4503117  64.5569984 105.2079312  71.7607290  61.1153676
 105.2577317  71.5957297  62.0569199 105.0993235  70.8934549  60.7251557
  94.0915570  74.4395836  48.4045765  94.2403691  75.1231300  47.7512437
  94.8982014  74.4200926  48.9195220 102.4983074  67.7438218  62.4312982
 103.3992937  67.6044683  62.1396980 102.5731049  67.9092673  63.3711160
  96.8325879  65.1205073  61.2766169  95.9629189  65.4138639  61.0048757
  97.0685360  65.7045518  61.9973432 106.7097509  74.1804231  61.3595697
 106.4182317  74.5434212  62.1959158 106.0969640  73.4671240  61.1809029
 104.9584697  69.3036846  59.8275755 105.4338818  69.4964492  59.0194607
 104.0350262  69.3596032  59.5819139  91.8468203  70.4661013  49.4106834
  91.6014245  69.5623343  49.6087044  92.0164118  70.4678164  48.4686312
  99.5364913  61.3384690  58.7931589 100.0546857  62.0745717  58.4678078
  99.1820046  61.6448683  59.6278348  91.1163851  66.1989371  46.9092995
  90.4233096  66.2733726  46.2533031  90.8715603  65.4349714  47.4314512
  99.7877507  57.7584972  54.3132486 100.0679261  57.0908161  54.9392912
 100.5728114  57.9514068  53.8007150  97.5910976  76.9343966  45.8757512
  97.0184943  77.5534153  45.4227984  98.1643770  77.4843328  46.4097434
 103.6586366  66.1802606  58.0604061 104.6103789  66.2800704  58.0816285
 103.4889816  65.3880875  58.5702145 101.6800745  63.2658189  58.2463462
 101.0850677  63.5463202  57.5509950 101.3950442  63.7552090  59.0180203
 100.8108236  77.2181116  47.0066094 101.7438909  77.1526678  47.2098970
 100.7231449  78.0537383  46.5480627 103.4396252  76.5346987  43.9670042
 103.3609884  76.2006850  44.8605800 104.2605919  77.0268754  43.9661514
 106.1374444  69.4008726  57.1746361 106.1050764  68.4624727  57.3606044
 106.7475067  69.4792763  56.4412185  97.9757774  68.2704779  43.2173565
  98.9216879  68.1410987  43.2861983  97.5972019  67.5319441  43.6942993
 106.2868932  66.1919769  57.2204644 105.7707981  65.4078226  57.0334573
 107.1708881  65.8638486  57.3851163 103.9479659  59.9360785  53.1800456
 103.7504480  59.6275873  54.0643788 104.5579365  60.6622424  53.3098386
  97.8596467  72.3222525  64.6774222  98.7799476  72.5001124  64.8714268
  97.8246050  71.3778570  64.5253921  96.1600692  66.1954755  43.1528450
  95.2532147  65.8987868  43.2291163  96.4376673  65.8984573  42.2862736
  87.0778632  67.5161119  53.6027496  86.7581416  66.6626427  53.3101870
  86.5312060  67.7309697  54.3585464  90.8558540  70.2323560  57.3197003
  91.0744549  71.1640667  57.3385037  91.2684313  69.8731534  58.1051807
  97.7762757  60.7391645  49.3072691  96.9663486  60.3938730  49.6827937
  98.4647174  60.4299189  49.8960303  99.7053306  59.8169692  50.9296988
 100.2584344  60.2365145  51.5887011  99.9423392  58.8905440  50.9719944
  95.7286405  65.8056765  66.7099752  95.6283132  66.7551122  66.6411843
  95.5107947  65.4775004  65.8375822  94.9299476  63.0541690  43.2940429
  95.7918640  63.3796589  43.5536246  95.1149820  62.2673186  42.7813495
  86.9466892  71.1364030  55.5720618  86.2530363  70.7217983  55.0590572
  87.6939883  71.1784567  54.9754037 103.0832113  61.9270217  50.4375652
 102.5030782  62.5855021  50.0553704 102.8168045  61.1047562  50.0263070
 101.5335679  61.3275275  52.6396972 102.0335457  61.4391809  51.8311291
 102.1771287  61.0236327  53.2797781  95.5917675  69.2353904  65.5264813
  95.1084757  70.0354264  65.7328702  95.6778614  69.2461849  64.5732257
  88.8603634  71.0682284  53.4486633  88.8374323  71.1669971  52.4968516
  89.1704271  71.9147435  53.7703799  91.5191012  73.1258439  57.5633247
  92.4734266  73.0942381  57.4963179  91.3203536  72.6649063  58.3783473
  92.1090394  71.6959555  60.1304045  92.9283283  72.1903634  60.1538882
  92.3827202  70.7791523  60.1021612 101.8656991  64.0870307  49.4932000
 100.9782846  64.3719958  49.2752195 102.2810980  63.9264071  48.6459277
 105.2171527  64.1116828  53.2086340 105.9931917  64.6013281  53.4810956
 104.4919661  64.5374882  53.6658209 107.6544085  64.8244447  54.2660280
 108.2488576  64.5840183  53.5553588 107.7270669  64.1051578  54.8933816
  89.8741241  78.6678058  54.5803445  89.7395709  77.9078459  54.0141443
  89.4573303  79.3918958  54.1132234 101.0100204  73.8514982  43.5880020
 101.7136054  74.0564984  44.2037676 100.2862853  74.4191744  43.8529104
 101.8398014  69.6024843  49.7082290 101.7833216  70.0593395  48.8689923
 102.3926357  68.8415528  49.5305133 105.6502820  65.3914575  50.5332410
 105.3939755  64.9911211  51.3640618 105.0255688  66.1058369  50.4082549
  93.0310367  79.5647375  54.7921888  92.9142751  80.5092808  54.6900578
  92.2102813  79.2620937  55.1807687 102.9186902  74.2897511  45.6378480
 103.7532505  73.8578710  45.4555955 102.7571244  74.1179525  46.5655375
 102.5732794  70.7929624  47.0034820 102.5181598  70.6273896  46.0623264
 101.9478849  71.5005657  47.1597009  87.3625309  66.0297689  60.8296242
  88.0084172  65.5196643  61.3183467  87.1542460  66.7666370  61.4039667
  99.8878701  73.0978536  66.3288382 100.7569861  73.2719189  65.9675017
  99.4085452  73.9172953  66.2064112  95.8828919  60.2937733  46.5820138
  95.8707589  61.2379573  46.7388409  96.7752341  60.1107879  46.2879599
  94.0564881  80.2175637  58.0077816  94.9592128  80.2499248  58.3244311
  93.8302251  79.2876088  58.0224152  95.8118483  78.9706624  54.6687895
  94.8614114  78.9708485  54.5552267  96.1150969  78.2239358  54.1523929
  99.6981039  56.8880510  50.8366075  98.9313434  56.3338997  50.9822757
 100.1091744  56.9602379  51.6980226  91.7022800  63.1765306  64.9271256
  92.5654261  62.8202111  65.1374581  91.1288210  62.8379201  65.6146660
 104.2147699  86.6130067  51.6592073 103.6512564  86.5220004  50.8908360
 104.1000094  85.7929971  52.1394565 101.7612131  88.1081258  54.4976293
 102.5533422  87.7672083  54.0822592 102.0008781  88.2176233  55.4178446
 103.7202884  87.3690172  47.3693672 104.4933760  86.8219159  47.2306548
 104.0728283  88.2334421  47.5808133 105.5587927  88.6966554  60.5760571
 105.2677793  89.6012185  60.4607238 106.1944911  88.7383082  61.2904641
 106.4844134  86.0743402  57.1661931 107.0807706  85.8499425  56.4518894
 106.5419105  85.3328148  57.7687379 106.0569162  83.5282838  45.0012122
 106.3094683  83.0064359  44.2395585 105.1193721  83.3648983  45.1038805
 105.7765451  85.4310944  47.2036497 105.6601709  84.7555847  47.8717581
 105.8867711  84.9443318  46.3868650 107.7602479  79.9210991  45.9044535
 107.9276881  80.7891227  46.2715006 107.5699648  80.0838272  44.9805824
 103.9690294  84.8341766  53.6047069 103.0440790  84.7017980  53.8124761
 104.2174707  85.6135986  54.1017012 107.7391700  82.3768648  46.8891201
 107.6191325  82.8225699  47.7276682 107.0444288  82.7253966  46.3304740
 101.3299105  84.4775040  54.4390858 101.4591486  84.7309519  55.3530270
 100.6496556  85.0702748  54.1195513 106.2462194  85.1285609  62.7560667
 106.9876878  85.6670653  62.4795490 105.5399179  85.7551897  62.9132218
 107.5974310  87.5690348  52.3735202 108.0612656  87.8478051  51.5839824
 107.3331108  86.6673792  52.1908293 104.4898391  87.1161829  55.3114965
 105.0599748  87.5449098  54.6732450 105.0806503  86.8344414  56.0099151
 106.5343196  83.6913500  49.1824767 107.2367240  84.1434544  49.6498694
 106.2023825  83.0497319  49.8104660 104.9823558  82.2825257  63.5575977
 104.3522218  82.9641538  63.7911373 104.8759646  82.1708338  62.6129115
 100.2768530  81.9497053  54.4841901  99.4867584  82.2054581  54.0082011
 100.7679778  82.7645391  54.5893941 102.2283276  82.3141632  51.4425377
 101.4314439  82.4260326  51.9608873 102.0008868  82.6528284  50.5766268
 108.0588943  88.8386335  59.3907892 108.1233376  89.3006742  60.2266064
 107.3499867  88.2083700  59.5190202  98.5606233  82.2027543  56.9156892
  98.8114272  83.0874553  57.1814467  99.0965782  82.0232145  56.1431983
 107.7736961  90.5054443  49.2586872 107.6382636  91.3505978  49.6871720
 108.3146773  90.7073720  48.4952806 104.2604301  76.5846023  65.9201228
 103.8671246  76.0312221  66.5948872 105.0770441  76.8956601  66.3107745
 101.2266358  88.0229881  49.8314797 101.7390879  88.8173131  49.9820362
 101.8789071  87.3256171  49.7648399 103.0361243  91.1395637  51.9137551
 103.2127871  92.0613602  51.7258535 103.8318076  90.8254056  52.3431930
 107.1772261  78.0003902  63.5121484 107.9181975  78.6011055  63.4325947
 107.4090184  77.2581539  62.9539527 102.3213600  83.1860269  61.7899714
 102.2067115  82.2845526  62.0906813 101.4658117  83.4323966  61.4384530
 104.1592558  92.6573811  57.9147893 104.7099984  92.5290874  57.1424887
 103.3204034  92.9568700  57.5642786  99.1915275  86.3518535  50.6074368
 100.0290497  86.7615543  50.3908076  99.3693543  85.4117977  50.5774562
 106.4468851  76.4828389  54.7601181 107.3121847  76.2871198  54.4007070
 106.5146360  76.2538741  55.6870538 104.0531170  78.7130597  52.1317548
 104.6274922  78.4905779  51.3990741 104.6402152  78.7819292  52.8846149
 104.3800757  80.7435058  46.1513433 103.5438069  81.0809745  46.4722708
 104.2405527  80.6084038  45.2140570 106.3553837  75.5871846  50.8592617
 105.7018250  75.2720863  50.2349232 106.3134312  74.9647587  51.5852440
 107.4665042  85.8691141  42.7745909 106.5592104  85.6380395  42.9737058
 107.9636074  85.0728761  42.9619891  99.2141446  83.6909250  51.2785101
  99.0165846  83.0978611  50.5536168  98.6588110  83.3861461  51.9961040
 107.1938170  83.5832357  53.3979695 107.2486780  82.6306193  53.3222171
 106.3829372  83.7391796  53.8820993 105.1330530  82.2009417  51.1570073
 104.3198395  82.5003587  51.5635266 105.6289524  81.8065105  51.8744556
 107.2839108  92.1967174  53.0904338 107.2415286  92.4228020  52.1612870
 108.2001807  91.9630548  53.2390139 104.6244605  79.7727772  56.7731308
 105.2643984  79.6316531  56.0754272 103.7922135  79.4862286  56.3969910
 105.4004908  89.0730203  52.8866301 106.1945507  88.5780523  52.6848876
 104.6896601  88.5448066  52.5234006 101.7087672  83.2173284  48.9626054
 100.7785260  83.1557740  49.1796016 101.8045144  82.6949237  48.1662695
 101.6273221  79.7428097  51.5504295 101.8880038  80.6573430  51.4413456
 102.4490393  79.2752540  51.7000908 103.0998146  81.1565854  58.7203120
 103.7721200  80.9483216  58.0715769 102.2727933  80.9587940  58.2808352
 107.9776184  89.6459225  56.5664138 107.8387270  89.2778009  57.4390076
 107.1890781  90.1606864  56.3948096 103.5025644  84.4308457  59.4805557
 103.3645441  83.6988696  60.0817096 104.4130567  84.3417357  59.1989745
 106.1307944  84.1428417  58.9689237 106.8407563  83.5021609  58.9275855
 106.0877252  84.3941311  59.8915417 104.8436878  81.1293634  60.7884876
 104.3074235  80.6784373  61.4406472 104.2553587  81.2639543  60.0455340
 104.2539137  80.5882286  43.3511340 103.3768603  80.4671087  42.9873586
 104.7296890  79.7968364  43.0990228  95.7741277  85.3759446  53.4452847
  96.4612317  85.0621176  52.8573862  95.6189406  86.2800810  53.1720098
 100.5775999  80.2649642  57.8737871 100.4934188  79.6575312  57.1388280
  99.7558706  80.7558660  57.8747367 107.3334682  80.8920589  52.9679750
 106.9632470  80.3391629  53.6560656 107.8293774  80.2878722  52.4154750
 105.1623881  91.3518084  60.0634768 105.8633340  91.9854567  60.2164162
 104.6918996  91.6932815  59.3030407 100.7591599  90.8854439  56.9965871
 101.3445035  90.1398127  57.1293775 100.5616437  91.1958395  57.8802535
 103.6130254  93.9205686  52.0128313 102.9440629  94.4051814  51.5292353
 103.4743124  94.1674907  52.9271692  95.3509253  83.4560039  55.7170314
  95.3893353  82.9223630  56.5107432  94.8449546  82.9295244  55.0981291
 102.7300016  78.3024579  59.2132856 102.7941342  79.1639410  58.8010254
 102.6667136  77.6898581  58.4805215 102.2052288  80.3747712  62.8605891
 102.8324327  79.9924789  63.4743415 101.3480207  80.1561914  63.2261583
  98.9817831  82.1824141  48.7924245  99.2771272  81.2734820  48.7391299
  98.0805867  82.1611881  48.4705248 102.5112078  80.2580138  54.7751794
 101.7898664  80.8716105  54.6359267 103.3005334  80.7937903  54.6968440
 105.3138391  77.5934564  61.0492446 105.8372793  77.8396861  61.8118755
 105.0950725  78.4254599  60.6295583 100.7105673  79.8638239  48.9163570
 100.3818379  78.9835618  48.7338676 101.0645043  79.8085907  49.8039960
 103.8247496  80.1511209  49.2839048 104.1643568  80.6797130  48.5617657
 104.2719616  80.4891615  50.0597615 106.5190937  78.5348259  58.7342116
 106.1787757  77.7356072  59.1362796 105.8129943  78.8349970  58.1618949
 107.1707408  75.6197572  57.1869439 107.9933478  75.1458050  57.0648330
 107.4145472  76.3988055  57.6868126 105.8115643  78.6485830  47.4832341
 106.5324005  79.0267083  46.9796058 105.1880947  79.3674707  47.5867319
 104.6945987  82.3116692  54.9961418 104.5490568  82.6256995  55.8885699
 104.2171191  82.9301593  54.4432316 106.5542370  79.3019240  55.0442307
 106.5403939  78.4060334  54.7074605 107.2714798  79.3089904  55.6780593
  99.1691649  84.8522037  57.9349079  98.6245117  85.6281845  58.0669353
 100.0470999  85.1992841  57.7768200 105.9579266  78.1833621  50.3129878
 106.0795177  77.2550267  50.5120765 105.6681308  78.1972307  49.4008193
  99.9557671  83.9791933  60.8279236  99.2139407  84.1274568  61.4143866
  99.6350415  84.2400199  59.9645985 100.4014285  91.8657362  52.8589631
 101.2272305  91.5661134  52.4788274 100.0508337  91.0964984  53.3079419
 105.3695818  91.2183830  54.9287304 104.7475827  90.5554535  54.6289532
 106.0400685  91.2444962  54.2460952  98.6022890  89.7843688  53.8178564
  97.7654798  89.3565863  53.6362565  98.5746535  89.9776132  54.7549355
 105.4420345  79.6965618  64.5219810 105.4908501  80.5727741  64.1397580
 105.9842860  79.1543011  63.9491453 104.9309325  89.7687753  48.4045765
 105.0797445  90.4523218  47.7512437 105.7375768  89.7492843  48.9195220
 107.6719634  80.4496990  61.2766169 106.8022943  80.7430556  61.0048757
 107.9079114  81.0337435  61.9973432 102.6861958  85.7952931  49.4106834
 102.4408000  84.8915261  49.6087044 102.8557872  85.7970081  48.4686312
 101.9557605  81.5281289  46.9092995 101.2626850  81.6025644  46.2533031
 101.7109357  80.7641632  47.4314512 106.9994446  81.5246673  43.1528450
 106.0925901  81.2279786  43.2291163 107.2770427  81.2276491  42.2862736
  97.9172386  82.8453036  53.6027496  97.5975171  81.9918345  53.3101870
  97.3705815  83.0601614  54.3585464 101.6952294  85.5615477  57.3197003
 101.9138304  86.4932585  57.3385037 102.1078068  85.2023452  58.1051807
 106.5680159  81.1348683  66.7099752 106.4676886  82.0843040  66.6411843
 106.3501701  80.8066922  65.8375822 105.7693231  78.3833608  43.2940429
 106.6312395  78.7088506  43.5536246 105.9543575  77.5965104  42.7813495
  97.7860646  86.4655948  55.5720618  97.0924118  86.0509901  55.0590572
  98.5333637  86.5076484  54.9754037 106.4311429  84.5645822  65.5264813
 105.9478511  85.3646182  65.7328702 106.5172368  84.5753767  64.5732257
  99.6997389  86.3974202  53.4486633  99.6768077  86.4961889  52.4968516
 100.0098025  87.2439352  53.7703799 102.3584767  88.4550357  57.5633247
 103.3128020  88.4234299  57.4963179 102.1597290  87.9940980  58.3783473
 102.9484149  87.0251473  60.1304045 103.7677038  87.5195551  60.1538882
 103.2220957  86.1083441  60.1021612 100.7134996  93.9969976  54.5803445
 100.5789464  93.2370377  54.0141443 100.2967058  94.7210876  54.1132234
  98.2019063  81.3589607  60.8296242  98.8477927  80.8488561  61.3183467
  97.9936214  82.0958288  61.4039667 106.7222674  75.6229651  46.5820138
 106.7101344  76.5671491  46.7388409 107.6146096  75.4399797  46.2879599
 102.5416554  78.5057224  64.9271256 103.4048016  78.1494028  65.1374581
 101.9681965  78.1671118  65.6146660  48.9416650  -1.7439782  41.4074841
  49.1813249  -1.1121258  42.0853860  48.0985847  -2.0951742  41.6940201
  60.8572682   2.3024519  38.3837379  60.2937547   2.2114456  37.6153667
  60.7425077   1.4824423  38.8639872  58.4037114   3.7975710  41.2221600
  59.1958406   3.4566535  40.8067899  58.6433764   3.9070685  42.1423753
  66.4372241   5.9695486  33.6951844  65.7860220   6.5549567  33.3085858
  67.2316603   6.5001681  33.7546882  60.3627868   3.0584624  34.0938979
  61.1358744   2.5113611  33.9551854  60.7153267   3.9228873  34.3053440
  62.2012910   4.3861006  47.3005878  61.9102776   5.2906637  47.1852544
  62.8369895   4.4277533  48.0149947  63.1269117   1.7637854  43.8907238
  63.7232689   1.5393877  43.1764200  63.1844089   1.0222600  44.4932685
  67.9147506   3.6585918  34.2320829  67.2793339   3.7320545  34.9441733
  67.5844912   4.2479517  33.5539908  62.4190434   1.1205396  33.9281803
  62.3026692   0.4450299  34.5962888  62.5292694   0.6337770  33.1113957
  67.1602795   4.0722421  44.2955672  66.8603519   4.9747460  44.1871479
  66.8153855   3.8054605  45.1476824  60.6115277   0.5236218  40.3292376
  59.6865773   0.3912432  40.5370068  60.8599690   1.3030437  40.8262318
  57.9724088   0.1669492  41.1636165  58.1016469   0.4203971  42.0775577
  57.2921539   0.7597200  40.8440820  62.1423575  10.8366742  37.2626639
  62.0647605  11.7874567  37.3415120  61.5385219  10.4912614  37.9201566
  62.8887177   0.8180060  49.4805973  63.6301862   1.3565104  49.2040797
  62.1824163   1.4446349  49.6377525  68.3642517   2.9609201  48.0778135
  68.7725873   2.5191611  47.3332767  67.6419778   2.3861828  48.3312328
  68.6871332   3.5210392  41.8330424  68.0580194   3.6856106  41.1306491
  68.2996994   3.9352001  42.6041388  72.5660564   4.4564829  39.1874787
  71.8811602   4.8363731  38.6371821  72.6504413   5.0660156  39.9206735
  64.2399293   3.2584800  39.0980509  64.7037639   3.5372503  38.3085131
  63.9756092   2.3568244  38.9153599  61.1323375   2.8056281  42.0360272
  61.7024732   3.2343550  41.3977756  61.7231486   2.5238866  42.7344458
  70.9357323   4.9796744  43.9592488  71.7574767   4.5776931  43.6775170
  70.9319726   4.8764978  44.9108604  64.7013927   4.5280787  46.1153199
  64.7658359   4.9901194  46.9511371  63.9924850   3.8978152  46.2435509
  55.2031216  -2.1078005  43.6402198  55.4539255  -1.2230995  43.9059774
  55.7390765  -2.2873403  42.8677290  64.4161944   6.1948895  35.9832179
  64.2807619   7.0400430  36.4117027  64.9571757   6.3968172  35.2198113
  57.8691342   3.7124333  36.5560104  58.3815862   4.5067583  36.7065669
  58.5214054   3.0150623  36.4893706  59.6786226   6.8290089  38.6382857
  59.8552855   7.7508054  38.4503841  60.4743060   6.5148508  39.0677237
  66.0430421   6.8172461  50.1132521  65.5994275   6.0308840  49.7953426
  66.7047634   7.0051612  49.4476412  60.8017542   8.3468263  44.6393200
  61.3524967   8.2185326  43.8670194  59.9629018   8.6463152  44.2888092
  68.1411659   7.0975261  48.1413922  68.1230134   7.9184142  47.6494192
  69.0631579   6.9729336  48.3664064  64.5984713   4.6119391  48.9837431
  65.1313050   3.8507679  48.7536739  64.0698794   4.3193042  49.7261585
  55.8340258   2.0412987  37.3319675  56.6715480   2.4509995  37.1153382
  56.0118526   1.1012429  37.3019868  65.9637425   3.7405383  36.4956243
  65.4358787   3.0058143  36.1829480  65.4624928   4.5180059  36.2496211
  64.1090026   1.5585593  29.4991216  63.2017087   1.3274847  29.6982365
  64.6061058   0.7623213  29.6865197  67.0158105  10.2683100  32.4187902
  66.3419803  10.5714797  33.0272860  67.4023926  11.0712181  32.0693359
  65.2878259   1.6598188  34.0215206  64.3789478   1.3757221  34.1187676
  65.3173343   2.0797267  33.1618513  70.5197527   5.2704778  37.7906373
  70.0659854   4.4295688  37.8471564  69.8891493   5.9066176  38.1281154
  68.9630466   7.1081274  38.7256192  69.2553440   7.6686331  38.0068557
  69.4729086   7.4009835  39.4809351  55.8566429  -0.6196298  38.0030408
  55.6590829  -1.2126937  37.2781475  55.3013093  -0.9244088  38.7206347
  64.9854347   3.2006932  31.3603284  64.5473777   2.4842791  30.9008922
  65.7264788   3.4283047  30.7988376  63.9264091   7.8861625  39.8149645
  63.8840270   8.1122472  38.8858177  64.8426790   7.6525000  39.9635446
  62.0429892   4.7624654  39.6111607  62.8370490   4.2674975  39.4094182
  61.3321584   4.2342518  39.2479313  66.8624736   7.1442750  43.9623975
  66.9161758   7.7133686  44.7301691  65.9939518   7.3144635  43.5978012
  69.0527500   3.7371099  50.5364641  68.9013006   3.5081651  49.6194724
  69.0432179   4.6941701  50.5495986  65.8212836   1.3103012  45.5210907
  66.7504896   1.4614172  45.3479874  65.4003866   1.3987033  44.6659553
  64.6201168   5.3353676  43.2909445  64.4812253   4.9672461  44.1635383
  63.8315764   5.8501316  43.1193402  65.2149320  10.4362773  34.6334981
  65.3901075   9.9650816  35.4480604  64.5282108  11.0628539  34.8616242
  66.1706383   4.7135279  40.6798282  65.8356215   4.6736049  41.5755932
  65.6710329   4.0479995  40.2068693  60.1450627   0.1202909  46.2050864
  60.0070425  -0.6116852  46.8062403  61.0555550   0.0311809  45.9235051
  70.7619706   6.7690222  48.6141122  70.7032252   6.0849442  47.9471705
  71.1639225   7.5109212  48.1621748  59.7810405  13.5852136  41.4074841
  60.0207003  14.2170660  42.0853860  58.9379601  13.2340176  41.6940201
  70.7637113   4.7329806  46.8455102  69.8763892   4.3955728  46.9681501
  71.3335664   4.0012837  47.0823867  52.4166261   1.0653897  40.1698153
  53.1037300   0.7515628  39.5819169  52.2614389   1.9695262  39.8965405
  64.2938267   9.3931258  43.8116345  64.2208438  10.1986230  44.3235650
  63.8515660   9.5923224  42.9864367  64.0828046   8.6303028  37.3219167
  63.2995568   9.1724708  37.4157391  64.7820792   9.1477008  37.7213408
  66.7536950   9.2918092  45.9674504  67.4664923   9.9265557  45.8950405
  66.2626979   9.3881958  45.1514506  68.4754477   3.1969345  37.5391796
  67.5410756   3.3170807  37.3696500  68.6531146   2.2941812  37.2751805
  61.8048864   7.0412536  46.7880075  62.5058323   7.6749019  46.9409469
  61.3343979   7.3827267  46.0275714  69.9303260   5.3830485  35.0727982
  70.2063104   5.2687080  35.9821856  69.0607758   4.9847970  35.0340155
  66.5657324   9.6316836  38.7160795  66.7479718   8.8138492  39.1788548
  67.3890310   9.8484528  38.2785685  66.8999489   8.5585021  35.9775844
  67.4287256   8.0477476  35.3646006  67.1627709   8.2427552  36.8421377
  57.4016582   6.5748891  43.7211177  57.9870019   5.8292579  43.8539082
  57.2041420   6.8852847  44.6047841  60.2555237   9.6100138  38.7373620
  59.5865612  10.0946266  38.2537660  60.1168107   9.8569358  39.6516998
  51.9934237  -0.8545509  42.4415621  52.0318336  -1.3881918  43.2352739
  51.4874529  -1.3810304  41.8226598  64.3960506  11.6443882  45.3356278
  64.9478814  11.8075503  46.1005363  64.7366699  12.2348319  44.6636303
  69.2471380   6.4705139  51.1904933  69.7911284   7.0835097  50.6959887
  68.6658225   7.0284717  51.7071946  67.5328893   9.5925857  42.3219960
  67.4080032   8.7915597  41.8130906  68.1907984  10.0872050  41.8333930
  69.5963801   7.3934877  43.9499510  68.6494137   7.2740228  43.8777837
  69.9446575   6.5057375  44.0325772  66.6010235   7.1887593  40.1503863
  66.4535197   6.2604301  40.3311433  67.4263728   7.2107684  39.6660938
  70.2044357   8.0116152  41.2368735  71.1290904   7.8059013  41.0993187
  70.0359660   7.7632553  42.1458077  69.9939673   8.5301820  36.5930827
  70.1676550   7.9648242  35.8404679  70.4868564   9.3302714  36.4110317
  55.8116633   0.5416489  44.6594386  55.2670101   1.3176297  44.7914660
  56.6895982   0.8887293  44.5013507  70.9814845   7.8468584  33.6927725
  71.6765750   8.4675277  33.9115040  71.3237995   6.9963935  33.9680103
  56.5982654  -0.3313615  47.5524543  55.8564390  -0.1830980  48.1389173
  56.2775399  -0.0705349  46.6891292  72.8806268   5.2968290  35.2215056
  73.4057592   5.6355562  34.4964376  72.7928621   4.3615305  35.0378191
  64.5426317   9.2102363  47.3504933  64.8513444   8.9651510  48.2227632
  65.3401799   9.4149002  46.8623803  64.5646929  11.3640273  39.5810309
  64.1251919  10.8716651  40.2743166  65.3155046  10.8213240  39.3402384
  57.0439268   7.5551814  39.5834937  57.8697288   7.2555586  39.2033581
  56.6933320   6.7859436  40.0324726  62.0120801   6.9078282  41.6532611
  61.3900811   6.2448987  41.3534839  62.6825668   6.9339414  40.9706259
  55.2447873   5.4738140  40.5423871  54.4079781   5.0460314  40.3607872
  55.2171519   5.6670583  41.4794662  72.5700174   5.9301193  50.5266254
  71.7795718   5.9125332  49.9870753  72.3333529   6.4689487  51.2815290
  61.5734308   5.4582205  35.1291071  61.7222429   6.1417670  34.4757744
  62.3800752   5.4387295  35.6440527  74.1916246   5.1990601  48.0841004
  73.9001055   5.5620582  48.9204465  73.5788378   4.4857609  47.9054336
  59.3286941   1.4847383  36.1352140  59.0832983   0.5809713  36.3332350
  59.4982856   1.4864533  35.1931618  65.0729714   7.9530336  32.6002819
  64.5003681   8.5720523  32.1473291  65.6462507   8.5029697  33.1342741
  68.2926973   8.2367486  33.7311401  69.2257647   8.1713047  33.9344277
  68.2050186   9.0723753  33.2725934  70.9214990   7.5533356  30.6915349
  70.8428622   7.2193220  31.5851106  71.7424657   8.0455124  30.6906821
  65.3415205   3.3408895  51.4019528  66.2618214   3.5187494  51.5959575
  65.3064788   2.3964940  51.2499227  54.5597370  -1.4652512  40.3272803
  54.2400154  -2.3187204  40.0347177  54.0130798  -1.2503934  41.0830770
  58.3377277   1.2509929  44.0442309  58.5563287   2.1827037  44.0630343
  58.7503051   0.8917904  44.8297113  54.4285630   2.1550400  42.2965924
  53.7349101   1.7404352  41.7835879  55.1758621   2.1970936  41.6999343
  63.0736413   0.2540274  52.2510120  62.5903494   1.0540634  52.4574009
  63.1597352   0.2648219  51.2977564  56.3422372   2.0868653  40.1731939
  56.3193060   2.1856341  39.2213822  56.6523009   2.9333804  40.4949105
  59.0009750   4.1444809  44.2878554  59.9553004   4.1128751  44.2208485
  58.8022274   3.6835432  45.1028780  59.5909132   2.7145925  46.8549351
  60.4102021   3.2090003  46.8784189  59.8645940   1.7977893  46.8266919
  57.3559979   9.6864428  41.3048752  57.2214447   8.9264829  40.7386750
  56.9392041  10.4105328  40.8377540  68.4918942   4.8701352  30.3125327
  69.1954792   5.0751354  30.9282982  67.7681591   5.4378113  30.5774410
  60.5129105  10.5833745  41.5167194  60.3961489  11.5279178  41.4145885
  59.6921551  10.2807307  41.9052993  70.4005639   5.3083881  32.3623787
  71.2351243   4.8765079  32.1801262  70.2389982   5.1365894  33.2900681
  67.3697439   4.1164906  53.0533689  68.2388598   4.2905558  52.6920324
  66.8904190   4.9359323  52.9309418  61.5383619  11.2362007  44.7323123
  62.4410866  11.2685617  45.0489618  61.3120989  10.3062458  44.7469458
  63.2937221   9.9892993  41.3933201  62.3432852   9.9894855  41.2797574
  63.5969707   9.2425728  40.8769236  79.0289914  15.8253532  42.4578964
  79.6668324  15.7060279  41.7542304  78.9110757  16.7734376  42.5166916
  75.8379621  15.7780960  42.3940488  75.4998132  15.6622025  41.5061023
  76.7069389  15.3772125  42.3741495  71.6966436  17.6316436  38.3837379
  71.1331302  17.5406373  37.6153667  71.5818831  16.8116341  38.8639872
  76.3199404  16.9315812  48.3526694  76.3088044  16.5368610  47.4807198
  76.4820043  16.1981884  48.9460465  69.2430868  19.1267628  41.2221600
  70.0352160  18.7858453  40.8067899  69.4827519  19.2362603  42.1423753
  77.2765995  21.2987404  33.6951844  76.6253975  21.8841484  33.3085858
  78.0710358  21.8293599  33.7546882  71.2021622  18.3876541  34.0938979
  71.9752498  17.8405528  33.9551854  71.5547021  19.2520791  34.3053440
  73.0406665  19.7152923  47.3005878  72.7496531  20.6198554  47.1852544
  73.6763649  19.7569451  48.0149947  73.9662872  17.0929772  43.8907238
  74.5626444  16.8685794  43.1764200  74.0237843  16.3514517  44.4932685
  73.5387900  14.5469207  31.7257428  73.7913421  14.0250729  30.9640891
  72.6012459  14.3835353  31.8284112  78.5831183  13.5504986  39.5332172
  79.3694272  13.1324409  39.1822589  78.8469887  14.4551078  39.7013820
  78.7541260  18.9877836  34.2320829  78.1187093  19.0612463  34.9441733
  78.4238667  19.5771435  33.5539908  83.9839610  13.4880219  40.4365150
  84.7164782  12.9179436  40.6702980  83.2278966  13.1001819  40.8771656
  73.2584189  16.4497313  33.9281803  73.1420447  15.7742217  34.5962888
  73.3686449  15.9629687  33.1113957  75.6015730  15.9107460  37.6328493
  75.2373937  15.3838081  38.3441414  76.4582846  15.5205929  37.4594978
  81.5065030   7.2001793  44.8959759  81.1748355   8.0697204  44.6720974
  80.9110644   6.8838077  45.5753789  75.2421217  10.9397360  32.6289841
  75.4095619  11.8077596  32.9960312  75.0518386  11.1024642  31.7051130
  77.9996550  19.4014339  44.2955672  77.6997273  20.3039378  44.1871479
  77.6547609  19.1346522  45.1476824  71.4509031  15.8528136  40.3292376
  70.5259528  15.7204350  40.5370068  71.6993445  16.6322355  40.8262318
  81.3993694  11.9196879  41.9753109  80.4910571  11.8512288  41.6811870
  81.3481290  12.3968824  42.8034934  75.2210438  13.3955018  33.6136508
  75.1010063  13.8412068  34.4521988  74.5263026  13.7440335  33.0550046
  68.8117842  15.4961409  41.1636165  68.9410224  15.7495888  42.0775577
  68.1315294  16.0889117  40.8440820  72.9817330  26.1658659  37.2626639
  72.9041359  27.1166484  37.3415120  72.3778973  25.8204532  37.9201566
  75.4734560  13.3386525  49.9188006  74.6967894  13.8980445  49.9090871
  76.1125123  13.8243308  50.4402876  83.2655340  10.1213318  43.7530983
  82.6229720  10.4145851  43.1070777  82.7610269  10.0066238  44.5584179
  80.9195504  13.8676491  34.4416842  81.8313360  14.1003878  34.2664540
  80.4105151  14.4513535  33.8791921  73.7280932  16.1471978  49.4805973
  74.4695616  16.6857022  49.2040797  73.0217917  16.7738267  49.6377525
  79.2036271  18.2901119  48.0778135  79.6119627  17.8483529  47.3332767
  78.4813533  17.7153746  48.3312328  75.5567342  13.2273725  45.4511692
  76.4028537  13.6513139  45.5946341  75.4965979  12.5707350  46.1450255
  79.5265086  18.8502309  41.8330424  78.8973949  19.0148023  41.1306491
  79.1390748  19.2643919  42.6041388  83.4054318  19.7856747  39.1874787
  82.7205356  20.1655648  38.6371821  83.4898167  20.3952074  39.9206735
  78.7066787  10.8878094  47.1092865  78.4627719  11.6420154  46.5727141
  78.9826717  11.2663441  47.9440112  80.6605250  17.4316706  45.7870131
  80.8722145  18.0748466  45.1104512  80.6134998  16.5979023  45.3192061
  78.2631479  10.0434527  42.6906703  77.4015958  10.3415780  42.9823441
  78.2893913  10.2604926  41.7587736  75.0793048  18.5876717  39.0980509
  75.5431394  18.8664420  38.3085131  74.8149846  17.6860162  38.9153599
  71.9717129  18.1348199  42.0360272  72.5418486  18.5635467  41.3977756
  72.5625241  17.8530784  42.7344458  74.0161934  14.7099870  35.9070074
  74.7185977  15.1620913  36.3744000  73.6842563  14.0683689  36.5349967
  72.4642296  13.3011626  50.2821283  71.8340956  13.9827907  50.5156680
  72.3578383  13.1894708  49.3374421  67.7587268  12.9683422  41.2087207
  66.9686322  13.2240951  40.7327318  68.2498515  13.7831760  41.3139248
  81.7751078  20.3088662  43.9592488  82.5968521  19.9068849  43.6775170
  81.7713480  20.2056896  44.9108604  69.7102013  13.3328002  38.1670684
  68.9133177  13.4446696  38.6854180  69.4827606  13.6714654  37.3011575
  75.5407681  19.8572705  46.1153199  75.6052114  20.3193112  46.9511371
  74.8318605  19.2270070  46.2435509  66.0424971  13.2213913  43.6402198
  66.2933009  14.1060923  43.9059774  66.5784519  13.0418514  42.8677290
  89.8657071  16.6527410  40.3077460  89.1120779  16.0834808  40.1521464
  90.0004612  16.6190074  41.2548094  75.2555699  21.5240812  35.9832179
  75.1201373  22.3692348  36.4117027  75.7965511  21.7260090  35.2198113
  71.7423038   7.6032392  52.6446534  71.3489984   7.0498591  53.3194178
  72.5589179   7.9142971  53.0353052  68.7085096  19.0416250  36.5560104
  69.2209617  19.8359501  36.7065669  69.3607809  18.3442541  36.4893706
  70.5179981  22.1582007  38.6382857  70.6946609  23.0799971  38.4503841
  71.3136814  21.8440426  39.0677237  74.6590999   9.0190271  50.2366791
  75.4000713   9.6197424  50.1571253  74.8908922   8.2767909  49.6784833
  69.8032337  14.2046639  48.5145020  69.6885852  13.3031896  48.8152119
  68.9476855  14.4510335  48.1629837  76.8824175  22.1464379  50.1132521
  76.4388029  21.3600757  49.7953426  77.5441389  22.3343529  49.4476412
  71.6411296  23.6760180  44.6393200  72.1918721  23.5477244  43.8670194
  70.8022772  23.9755069  44.2888092  78.9805413  22.4267179  48.1413922
  78.9623888  23.2476060  47.6494192  79.9025333  22.3021254  48.3664064
  75.4378467  19.9411308  48.9837431  75.9706804  19.1799596  48.7536739
  74.9092548  19.6484960  49.7261585  66.6734013  17.3704905  37.3319675
  67.5109235  17.7801913  37.1153382  66.8512281  16.4304347  37.3019868
  78.5698445  15.0379985  33.0203508  78.0545068  15.8084590  33.2591895
  78.2975753  14.3645121  33.6436569  76.1545556   9.8829686  38.0788746
  75.2987152   9.4936536  37.8994385  76.5672508   9.9621647  37.2188531
  77.6844703   7.4176029  42.4780306  77.1809498   7.3806164  41.6648111
  77.9775309   8.3268772  42.5376962  73.9287588   7.5014759  41.4846487
  74.7940585   7.3057568  41.1252377  73.9965097   7.2725111  42.4115844
  83.5432719  17.7912340  34.9556681  82.7662162  17.4523499  34.5111843
  84.2224200  17.7964963  34.2811646  78.3584748  12.9107077  34.8463289
  78.0534884  13.2253227  35.6973432  79.3115190  12.9888497  34.8890622
  76.8031180  19.0697301  36.4956243  76.2752542  18.3350060  36.1829480
  76.3018683  19.8471977  36.2496211  81.7824026  17.2646321  41.6123289
  81.1247700  17.9545583  41.7003418  82.5864425  17.6542753  41.9557275
  71.5349908   9.7316967  38.8562854  72.1093659   9.5092148  38.1236047
  72.1220890   9.8005661  39.6091456  80.5929485  15.6190694  39.6627231
  81.1061367  16.2520686  40.1648941  81.2430709  15.0191889  39.2970591
  71.8619495  11.7621428  32.8758740  71.0256807  12.0996115  33.1968014
  71.7224264  11.6270408  31.9385876  73.8372575   6.6058216  37.5837924
  73.1836988   6.2907233  36.9594538  73.7953049   5.9833956  38.3097747
  74.9483780  16.8877511  29.4991216  74.0410842  16.6566764  29.6982365
  75.4454812  16.0915130  29.6865197  77.8551859  25.5975018  32.4187902
  77.1813558  25.9006715  33.0272860  78.2417681  26.4004098  32.0693359
  77.0710316  13.0940149  41.9085571  76.1532877  13.3155096  41.7507259
  77.4870459  13.1686460  41.0497279  77.8545363  14.4931565  37.0388252
  78.6017182  15.0052962  36.7295374  78.1236953  14.1715618  37.8992645
  76.1272014  16.9890106  34.0215206  75.2183233  16.7049139  34.1187676
  76.1567097  17.4089184  33.1618513  81.3591281  20.5996695  37.7906373
  80.9053608  19.7587605  37.8471564  80.7285248  21.2358094  38.1281154
  80.3024201  11.5288681  39.0207041  79.5646957  11.0166068  39.3517283
  80.5550974  11.0889063  38.2090318  79.8024220  22.4373192  38.7256192
  80.0947195  22.9978249  38.0068557  80.3122841  22.7301753  39.4809351
  66.6960184  14.7095620  38.0030408  66.4984584  14.1164981  37.2781475
  66.1406848  14.4047830  38.7206347  74.6756908  14.6018726  40.1225001
  74.7305517  13.6492563  40.0467478  73.8648110  14.7578166  40.6066300
  75.8248101  18.5298849  31.3603284  75.3867531  17.8134708  30.9008922
  76.5658542  18.7574964  30.7988376  72.6149268  13.2195786  37.8815380
  71.8017133  13.5189957  38.2880572  73.1108262  12.8251475  38.5989862
  74.7657845  23.2153543  39.8149645  74.7234024  23.4414389  38.8858177
  75.6820544  22.9816918  39.9635446  78.2123479  13.6837611  46.7130274
  78.5672867  13.9109084  47.5724740  78.8595610  14.0155987  46.0907529
  83.9421216  16.8056047  37.4179603  83.8039115  16.9957643  36.4900792
  83.5857435  17.5675429  37.8747654  72.1063342  10.7914142  43.4976615
  72.7462722  10.6502901  42.7999578  71.2740873  10.5048655  43.1215217
  83.9690596  18.8732574  42.4290875  84.4027102  18.7807863  43.2773929
  84.6822176  18.8490074  41.7910891  72.8823646  20.0916572  39.6111607
  73.6764245  19.5966892  39.4094182  72.1715339  19.5634435  39.2479313
  77.7018491  22.4734668  43.9623975  77.7555513  23.0425604  44.7301691
  76.8333272  22.6436553  43.5978012  69.1906410  14.2359654  35.6871360
  68.2603998  14.1744109  35.9041322  69.2863882  13.7135607  34.8908001
  69.1091959  10.7614467  38.2749602  69.3698776  11.6759800  38.1658762
  69.9309131  10.2938909  38.4246215  70.5816884  12.1752224  45.4448426
  71.2539937  11.9669586  44.7961075  69.7546671  11.9774310  45.0053659
  84.8306145  18.9156274  44.9623760  85.0242035  19.8202085  45.2083035
  84.7306763  18.4563693  45.7962345  76.4842456   8.8014165  47.4614087
  75.8370371   9.5004114  47.3678564  77.2543471   9.2350309  47.8290335
  79.8921254  19.0663017  50.5364641  79.7406760  18.8373569  49.6194724
  79.8825933  20.0233618  50.5495986  76.6606590  16.6394930  45.5210907
  77.5898650  16.7906089  45.3479874  76.2397620  16.7278950  44.6659553
  75.4594922  20.6645594  43.2909445  75.3206008  20.2964379  44.1635383
  74.6709518  21.1793234  43.1193402  76.0543074  25.7654691  34.6334981
  76.2294830  25.2942734  35.4480604  75.3675862  26.3920457  34.8616242
  77.0100137  20.0427197  40.6798282  76.6749970  20.0027967  41.5755932
  76.5104083  19.3771913  40.2068693  70.9844381  15.4494827  46.2050864
  70.8464179  14.7175066  46.8062403  71.8949305  15.3603727  45.9235051
  79.9459329  17.3883231  30.9535342  79.3288500  16.6630059  30.8568395
  79.4775817  18.1492591  30.6102416  73.6126682  15.1614786  45.6934543
  74.3226300  14.5207978  45.6521162  73.5695990  15.4127681  46.6160724
  81.6013461  22.0982139  48.6141122  81.5426007  21.4141360  47.9471705
  82.0032979  22.8401130  48.1621748  72.3255616  12.1480004  47.5130183
  71.7892973  11.6970742  48.1651779  71.7372324  12.2825913  46.7700647
  71.7357875  11.6068655  30.0756646  70.8587341  11.4857456  29.7118893
  72.2115628  10.8154734  29.8235535  81.6030868  20.0621723  46.8455102
  80.7157647  19.7247645  46.9681501  82.1729419  19.3304755  47.0823867
  63.2560015  16.3945815  40.1698153  63.9431055  16.0807545  39.5819169
  63.1008144  17.2987180  39.8965405  68.0594737  11.2836012  44.5983177
  67.9752926  10.6761681  43.8633587  67.2377444  11.7745030  44.5992673
  75.1332021  24.7223176  43.8116345  75.0602193  25.5278147  44.3235650
  74.6909414  24.9215142  42.9864367  74.9221801  23.9594946  37.3219167
  74.1389323  24.5016626  37.4157391  75.6214546  24.4768925  37.7213408
  78.2318451   9.7689575  39.9653372  78.7287151   9.0159538  39.6454442
  77.4605433   9.8053892  39.3996582  86.0848208  15.4729941  41.6071664
  86.0738085  16.3554656  41.2365597  85.2165588  15.1201492  41.4126201
  77.5930705  24.6210010  45.9674504  78.3058677  25.2557475  45.8950405
  77.1020733  24.7173876  45.1514506  79.3148232  18.5261262  37.5391796
  78.3804510  18.6462725  37.3696500  79.4924900  17.6233729  37.2751805
  74.8153420  11.9106958  39.6925057  74.4451207  11.3577999  40.3805962
  75.3112512  11.3065092  39.1400057  82.7020783  14.3678582  38.0741830
  83.1681235  15.2006573  38.0002132  83.1528284  13.9023563  38.7787088
  72.6442618  22.3704453  46.7880075  73.3452078  23.0040936  46.9409469
  72.1737733  22.7119185  46.0275714  80.7697014  20.7122403  35.0727982
  81.0456858  20.5978998  35.9821856  79.9001513  20.3139888  35.0340155
  80.6737446   6.7359169  42.1132731  79.7600526   6.9663396  42.2814938
  81.1030547   6.8197613  42.9646763  80.4443904  14.9249061  44.6132625
  79.7915355  15.1724968  43.9585078  80.8224284  14.1113199  44.2795102
  77.4051078  24.9608754  38.7160795  77.5873473  24.1430410  39.1788548
  78.2284064  25.1776446  38.2785685  77.7393244  23.8876939  35.9775844
  78.2681010  23.3769394  35.3646006  78.0021463  23.5719469  36.8421377
  76.4931477  15.6668872  51.0998662  75.8172114  15.5663001  51.7701037
  77.3159111  15.5108086  51.5634659  68.2410336  21.9040808  43.7211177
  68.8263773  21.1584496  43.8539082  68.0435175  22.2144765  44.6047841
  71.0948992  24.9392056  38.7373620  70.4259367  25.4238183  38.2537660
  70.9561861  25.1861276  39.6516998  62.8327991  14.4746409  42.4415621
  62.8712091  13.9409999  43.2352739  62.3268284  13.9481614  41.8226598
  70.2118753   9.3210949  45.9378163  70.2760080  10.1825780  45.5255561
  70.1485874   8.7084951  45.2050521  69.6871026  11.3934082  49.5851197
  70.3143065  11.0111159  50.1988721  68.8298945  11.1748284  49.9506890
  80.0865135  21.7997057  51.1904933  80.6305039  22.4127015  50.6959887
  79.5051979  22.3576635  51.7071946  66.4636569  13.2010511  35.5169552
  66.7590010  12.2921189  35.4636606  65.5624605  13.1798250  35.1950554
  78.3722648  24.9217775  42.3219960  78.2473787  24.1207515  41.8130906
  79.0301739  25.4163968  41.8333930  69.9930816  11.2766507  41.4997101
  69.2717402  11.8902475  41.3604574  70.7824072  11.8124272  41.4213747
  80.4357556  22.7226795  43.9499510  79.4887891  22.6032146  43.8777837
  80.7840329  21.8349293  44.0325772  72.7957129   8.6120934  47.7737752
  73.3191531   8.8583230  48.5364062  72.5769463   9.4440969  47.3540890
  68.1924410  10.8824608  35.6408877  67.8637116  10.0021987  35.4583983
  68.5463781  10.8272277  36.5285266  77.4403989  22.5179511  40.1503863
  77.2928952  21.5896218  40.3311433  78.2657483  22.5399602  39.6660938
  71.3066233  11.1697578  36.0084355  71.6462306  11.6983499  35.2862963
  71.7538354  11.5077984  36.7842921  81.0438111  23.3408070  41.2368735
  81.9684659  23.1350931  41.0993187  80.8753414  23.0924471  42.1458077
  74.0009674   9.5534629  45.4587423  73.6606495   8.7542442  45.8608103
  73.2948681   9.8536340  44.8864256  74.6526146   6.6383941  43.9114746
  75.4752215   6.1644419  43.7893636  74.8964210   7.4174425  44.4113432
  73.2934381   9.6672200  34.2077648  74.0142743  10.0453453  33.7041364
  72.6699685  10.3861077  34.3112626  77.4365504  10.3717349  35.1435980
  77.6529118  11.2541987  34.8424808  76.9559571   9.9803562  34.4141622
  72.1764725  13.3303062  41.7206724  72.0309306  13.6443365  42.6131006
  71.6989929  13.9487962  41.1677623  74.0361108  10.3205610  41.7687614
  74.0222677   9.4246703  41.4319912  74.7533536  10.3276274  42.4025900
  75.8887238  10.7542950  43.8140741  75.6305016  11.6760021  43.8125072
  75.3572279  10.3573385  44.5041206  80.8333427  23.8593737  36.5930827
  81.0070305  23.2940160  35.8404679  81.3262318  24.6594632  36.4110317
  66.6510387  15.8708406  44.6594386  66.1063855  16.6468214  44.7914660
  67.5289737  16.2179211  44.5013507  73.4398004   9.2019990  37.0375184
  73.5613915   8.2736636  37.2366072  73.1500046   9.2158676  36.1253500
  76.3089194   6.8874901  40.1741904  76.3310891   6.9514234  39.2193884
  76.7257253   6.0479409  40.3682410  86.6872818  16.6230160  38.2121127
  87.1303964  15.8737485  37.8140250  85.8099329  16.6140297  37.8294859
  81.8208600  23.1760502  33.6927725  82.5159504  23.7967194  33.9115040
  82.1631750  22.3255853  33.9680103  67.4376409  14.9978303  47.5524543
  66.6958145  15.1460938  48.1389173  67.1169153  15.2586568  46.6891292
  83.7200023  20.6260207  35.2215056  84.2451347  20.9647480  34.4964376
  83.6322375  19.6907223  35.0378191  75.3820072  24.5394281  47.3504933
  75.6907198  24.2943428  48.2227632  76.1795554  24.7440919  46.8623803
  75.4040684  26.6932190  39.5810309  74.9645674  26.2008569  40.2743166
  76.1548801  26.1505158  39.3402384  67.8833023  22.8843731  39.5834937
  68.7091043  22.5847503  39.2033581  67.5327075  22.1151354  40.0324726
  72.8514556  22.2370200  41.6532611  72.2294565  21.5740905  41.3534839
  73.5219423  22.2631331  40.9706259  66.0841628  20.8030058  40.5423871
  65.2473536  20.3752232  40.3607872  66.0565273  20.9962501  41.4794662
  72.9239083  10.7151988  51.2465117  72.9727239  11.5914110  50.8642886
  73.4661597  10.1729381  50.6736760  83.4093929  21.2593111  50.5266254
  82.6189473  21.2417250  49.9870753  83.1727283  21.7981405  51.2815290
  83.5291804  18.1085577  47.8398982  83.5789809  17.9435585  48.7814505
  83.4205727  17.2412836  47.4496863  72.4128063  20.7874123  35.1291071
  72.5616183  21.4709587  34.4757744  73.2194506  20.7679213  35.6440527
  80.8195566  14.0916505  49.1558289  81.7205429  13.9522970  48.8642287
  80.8943541  14.2570960  50.0956467  75.1538372  11.4683360  48.0011475
  74.2841681  11.7616926  47.7294064  75.3897852  12.0523805  48.7218739
  85.0310001  20.5282519  48.0841004  84.7394809  20.8912499  48.9204465
  84.4182132  19.8149527  47.9054336  86.2305683  18.0935398  40.6043574
  87.0652575  18.5325203  40.7681135  86.3664812  17.6174052  39.7851820
  83.2797189  15.6515133  46.5521062  83.7551311  15.8442780  45.7439913
  82.3562754  15.7074319  46.3064446  70.1680696  16.8139301  36.1352140
  69.9226738  15.9101631  36.3332350  70.3376610  16.8156451  35.1931618
  77.8577406   7.6862977  45.5176896  78.3759349   8.4224004  45.1923384
  77.5032538   7.9926970  46.3523655  69.4376343  12.5467658  33.6338302
  68.7445588  12.6212013  32.9778338  69.1928095  11.7828002  34.1559819
  75.9123468  23.2822253  32.6002819  75.3397435  23.9012440  32.1473291
  76.4856262  23.8321615  33.1342741  81.9798858  12.5280893  44.7849368
  82.9316281  12.6278991  44.8061592  81.8102308  11.7359162  45.2947452
  80.0013238   9.6136477  44.9708768  79.4063170   9.8941489  44.2755257
  79.7162934  10.1030378  45.7425510  79.1320728  23.5659403  33.7311401
  80.0651401  23.5004965  33.9344277  79.0443941  24.4015670  33.2725934
  81.7608745  22.8825274  30.6915349  81.6822376  22.5485137  31.5851106
  82.5818411  23.3747042  30.6906821  84.4586936  15.7487013  43.8991667
  84.4263256  14.8103014  44.0851351  85.0687559  15.8271050  43.1657492
  76.2970267  14.6183066  29.9418871  77.2429371  14.4889274  30.0107289
  75.9184512  13.8797728  30.4188299  84.6081424  12.5398057  43.9449950
  84.0920473  11.7556513  43.7579879  85.4921373  12.2116773  44.1096470
  90.2763486  16.8103020  43.0397704  91.0066874  16.5488308  43.6005407
  89.6670431  16.0731742  43.0799772  88.3578783  14.9510883  43.6372155
  87.6311946  14.8166847  43.0288647  87.9426070  15.2587711  44.4428873
  76.1808959  18.6700812  51.4019528  77.1011969  18.8479411  51.5959575
  76.1458542  17.7256858  51.2499227  74.4813184  12.5433042  29.8773756
  73.5744639  12.2466155  29.9536470  74.7589165  12.2462861  29.0108043
  65.3991124  13.8639406  40.3272803  65.0793909  13.0104714  40.0347177
  64.8524552  14.0787984  41.0830770  69.1771032  16.5801847  44.0442309
  69.3957042  17.5118955  44.0630343  69.5896806  16.2209821  44.8297113
  76.0975250   7.0869932  36.0317998  75.2875978   6.7417017  36.4073244
  76.7859667   6.7777476  36.6205609  74.0498897  12.1535053  53.4345058
  73.9495624  13.1029410  53.3657149  73.8320439  11.8253292  52.5621128
  73.2511968   9.4019978  30.0185736  74.1131132   9.7274876  30.2781553
  73.4362313   8.6151474  29.5058801  65.2679384  17.4842317  42.2965924
  64.5742856  17.0696270  41.7835879  66.0152375  17.5262854  41.6999343
  81.4044605   8.2748504  37.1620959  80.8243274   8.9333308  36.7799011
  81.1380538   7.4525849  36.7508376  79.8548171   7.6753562  39.3642279
  80.3547950   7.7870096  38.5556598  80.4983779   7.3714615  40.0043087
  73.9130167  15.5832191  52.2510120  73.4297249  16.3832552  52.4574009
  73.9991106  15.5940136  51.2977564  67.1816127  17.4160571  40.1731939
  67.1586815  17.5148258  39.2213822  67.4916763  18.2625722  40.4949105
  69.8403505  19.4736726  44.2878554  70.7946758  19.4420669  44.2208485
  69.6416028  19.0127350  45.1028780  70.4302887  18.0437842  46.8549351
  71.2495776  18.5381921  46.8784189  70.7039694  17.1269810  46.8266919
  80.1869483  10.4348595  36.2177307  79.2995338  10.7198245  35.9997502
  80.6023472  10.2742358  35.3704584  83.5384019  10.4595116  39.9331646
  84.3144409  10.9491568  40.2056263  82.8132153  10.8853170  40.3903516
  85.9756578  11.1722735  40.9905587  86.5701069  10.9318471  40.2798895
  86.0483161  10.4529865  41.6179123  68.1953733  25.0156346  41.3048752
  68.0608201  24.2556747  40.7386750  67.7785796  25.7397246  40.8377540
  79.3312696  20.1993269  30.3125327  80.0348547  20.4043272  30.9282982
  78.6075345  20.7670031  30.5774410  80.1610507  15.9503130  36.4327597
  80.1045708  16.4071682  35.5935229  80.7138849  15.1893815  36.2550440
  83.9715313  11.7392862  37.2577717  83.7152247  11.3389498  38.0885924
  83.3468181  12.4536656  37.1327856  88.2827650  14.4788936  39.7649008
  87.7227208  14.5482125  40.5380570  87.6771154  14.3029920  39.0448504
  71.3522859  25.9125663  41.5167194  71.2355243  26.8571095  41.4145885
  70.5315306  25.6099224  41.9052993  81.2399394  20.6375798  32.3623787
  82.0744998  20.2056997  32.1801262  81.0783737  20.4657812  33.2900681
  80.8945286  17.1407912  33.7280126  80.8394090  16.9752183  32.7868570
  80.2691341  17.8483945  33.8842316  65.6837801  12.3775976  47.5541548
  66.3296665  11.8674930  48.0428774  65.4754952  13.1144658  48.1284974
  78.2091193  19.4456824  53.0533689  79.0782353  19.6197476  52.6920324
  77.7297945  20.2651240  52.9309418  74.2041411   6.6416021  33.3065445
  74.1920081   7.5857861  33.4633715  75.0964833   6.4586166  33.0124906
  74.1330975  25.3184911  41.3933201  73.1826606  25.3186773  41.2797574
  74.4363462  24.5717646  40.8769236  70.0235292   9.5243593  51.6516563
  70.8866754   9.1680398  51.8619887  69.4500703   9.1857488  52.3391967
  89.8683669  31.1545450  42.4578964  90.5062079  31.0352197  41.7542304
  89.7504512  32.1026293  42.5166916  86.6773375  31.1072878  42.3940488
  86.3391887  30.9913942  41.5061023  87.5463143  30.7064043  42.3741495
  82.5360191  32.9608354  38.3837379  81.9725056  32.8698291  37.6153667
  82.4212586  32.1408258  38.8639872  87.1593158  32.2607729  48.3526694
  87.1481799  31.8660528  47.4807198  87.3213798  31.5273802  48.9460465
  88.1159750  36.6279322  33.6951844  87.4647729  37.2133402  33.3085858
  88.9104112  37.1585517  33.7546882  82.0415377  33.7168459  34.0938979
  82.8146253  33.1697446  33.9551854  82.3940776  34.5812708  34.3053440
  83.8800419  35.0444841  47.3005878  83.5890285  35.9490472  47.1852544
  84.5157404  35.0861369  48.0149947  84.8056626  32.4221690  43.8907238
  85.4020198  32.1977712  43.1764200  84.8631598  31.6806435  44.4932685
  84.3781655  29.8761125  31.7257428  84.6307175  29.3542646  30.9640891
  83.4406214  29.7127270  31.8284112  89.4224937  28.8796903  39.5332172
  90.2088027  28.4616327  39.1822589  89.6863642  29.7842996  39.7013820
  89.5935015  34.3169754  34.2320829  88.9580848  34.3904380  34.9441733
  89.2632421  34.9063353  33.5539908  94.8233365  28.8172137  40.4365150
  95.5558536  28.2471353  40.6702980  94.0672720  28.4293737  40.8771656
  84.0977943  31.7789231  33.9281803  83.9814201  31.1034134  34.5962888
  84.2080203  31.2921605  33.1113957  86.4409484  31.2399378  37.6328493
  86.0767691  30.7129999  38.3441414  87.2976600  30.8497847  37.4594978
  92.3458785  22.5293711  44.8959759  92.0142110  23.3989122  44.6720974
  91.7504398  22.2129995  45.5753789  86.0814971  26.2689278  32.6289841
  86.2489374  27.1369514  32.9960312  85.8912140  26.4316559  31.7051130
  88.8390304  34.7306257  44.2955672  88.5391028  35.6331295  44.1871479
  88.4941364  34.4638440  45.1476824  82.2902786  31.1820054  40.3292376
  81.3653282  31.0496268  40.5370068  82.5387199  31.9614273  40.8262318
  92.2387448  27.2488797  41.9753109  91.3304326  27.1804205  41.6811870
  92.1875044  27.7260742  42.8034934  86.0604192  28.7246935  33.6136508
  85.9403817  29.1703986  34.4521988  85.3656781  29.0732253  33.0550046
  86.3128314  28.6678442  49.9188006  85.5361648  29.2272363  49.9090871
  86.9518877  29.1535225  50.4402876  94.1049095  25.4505235  43.7530983
  93.4623475  25.7437768  43.1070777  93.6004023  25.3358156  44.5584179
  91.7589258  29.1968408  34.4416842  92.6707114  29.4295795  34.2664540
  91.2498905  29.7805453  33.8791921  84.5674686  31.4763896  49.4805973
  85.3089371  32.0148940  49.2040797  83.8611672  32.1030185  49.6377525
  90.0430026  33.6193036  48.0778135  90.4513382  33.1775447  47.3332767
  89.3207287  33.0445664  48.3312328  86.3961096  28.5565643  45.4511692
  87.2422291  28.9805057  45.5946341  86.3359734  27.8999267  46.1450255
  90.3658841  34.1794227  41.8330424  89.7367703  34.3439941  41.1306491
  89.9784503  34.5935836  42.6041388  94.2448072  35.1148665  39.1874787
  93.5599111  35.4947566  38.6371821  94.3291922  35.7243991  39.9206735
  89.5460541  26.2170011  47.1092865  89.3021473  26.9712072  46.5727141
  89.8220472  26.5955359  47.9440112  91.4999004  32.7608624  45.7870131
  91.7115899  33.4040384  45.1104512  91.4528752  31.9270940  45.3192061
  89.1025233  25.3726444  42.6906703  88.2409712  25.6707698  42.9823441
  89.1287668  25.5896843  41.7587736  85.9186802  33.9168635  39.0980509
  86.3825148  34.1956338  38.3085131  85.6543601  33.0152080  38.9153599
  82.8110884  33.4640117  42.0360272  83.3812241  33.8927385  41.3977756
  83.4018995  33.1822701  42.7344458  84.8555689  30.0391787  35.9070074
  85.5579732  30.4912831  36.3744000  84.5236317  29.3975606  36.5349967
  83.3036050  28.6303544  50.2821283  82.6734711  29.3119825  50.5156680
  83.1972138  28.5186626  49.3374421  78.5981022  28.2975340  41.2087207
  77.8080076  28.5532869  40.7327318  79.0892270  29.1123678  41.3139248
  92.6144832  35.6380579  43.9592488  93.4362276  35.2360766  43.6775170
  92.6107235  35.5348813  44.9108604  80.5495768  28.6619919  38.1670684
  79.7526931  28.7738614  38.6854180  80.3221360  29.0006571  37.3011575
  86.3801435  35.1864622  46.1153199  86.4445868  35.6485030  46.9511371
  85.6712359  34.5561987  46.2435509 100.7050825  31.9819328  40.3077460
  99.9514533  31.4126726  40.1521464 100.8398366  31.9481992  41.2548094
  86.0949453  36.8532730  35.9832179  85.9595128  37.6984266  36.4117027
  86.6359266  37.0552008  35.2198113  82.5816793  22.9324310  52.6446534
  82.1883738  22.3790508  53.3194178  83.3982933  23.2434888  53.0353052
  79.5478851  34.3708168  36.5560104  80.0603371  35.1651418  36.7065669
  80.2001563  33.6734458  36.4893706  81.3573735  37.4873924  38.6382857
  81.5340364  38.4091889  38.4503841  82.1530569  37.1732343  39.0677237
  85.4984754  24.3482189  50.2366791  86.2394467  24.9489342  50.1571253
  85.7302677  23.6059827  49.6784833  80.6426092  29.5338556  48.5145020
  80.5279607  28.6323813  48.8152119  79.7870610  29.7802253  48.1629837
  87.7217930  37.4756296  50.1132521  87.2781784  36.6892675  49.7953426
  88.3835143  37.6635447  49.4476412  89.8199168  37.7559096  48.1413922
  89.8017643  38.5767977  47.6494192  90.7419088  37.6313172  48.3664064
  86.2772222  35.2703226  48.9837431  86.8100559  34.5091514  48.7536739
  85.7486303  34.9776878  49.7261585  89.4441917  20.3763292  44.5131072
  89.1006186  21.2664934  44.4370183  89.8120879  20.1864949  43.6500657
  77.5127767  32.6996822  37.3319675  78.3502989  33.1093831  37.1153382
  77.6906035  31.7596264  37.3019868  89.4092199  30.3671903  33.0203508
  88.8938823  31.1376508  33.2591895  89.1369508  29.6937039  33.6436569
  86.9939310  25.2121604  38.0788746  86.1380907  24.8228454  37.8994385
  87.4066262  25.2913565  37.2188531  88.5238457  22.7467947  42.4780306
  88.0203253  22.7098082  41.6648111  88.8169064  23.6560690  42.5376962
  84.7681343  22.8306677  41.4846487  85.6334340  22.6349485  41.1252377
  84.8358852  22.6017029  42.4115844  94.3826474  33.1204258  34.9556681
  93.6055916  32.7815417  34.5111843  95.0617955  33.1256881  34.2811646
  89.1978503  28.2398995  34.8463289  88.8928638  28.5545144  35.6973432
  90.1508945  28.3180415  34.8890622  87.6424934  34.3989218  36.4956243
  87.1146296  33.6641978  36.1829480  87.1412437  35.1763895  36.2496211
  92.6217780  32.5938239  41.6123289  91.9641455  33.2837500  41.7003418
  93.4258180  32.9834671  41.9557275  82.3743662  25.0608885  38.8562854
  82.9487414  24.8384066  38.1236047  82.9614644  25.1297579  39.6091456
  91.4323239  30.9482612  39.6627231  91.9455121  31.5812603  40.1648941
  92.0824463  30.3483807  39.2970591  82.7013249  27.0913346  32.8758740
  81.8650561  27.4288032  33.1968014  82.5618019  26.9562325  31.9385876
  84.6766330  21.9350134  37.5837924  84.0230742  21.6199151  36.9594538
  84.6346804  21.3125874  38.3097747  85.7877535  32.2169429  29.4991216
  84.8804596  31.9858682  29.6982365  86.2848567  31.4207048  29.6865197
  88.6945614  40.9266936  32.4187902  88.0207312  41.2298633  33.0272860
  89.0811435  41.7296016  32.0693359  87.9104070  28.4232067  41.9085571
  86.9926632  28.6447014  41.7507259  88.3264214  28.4978378  41.0497279
  88.6939118  29.8223483  37.0388252  89.4410937  30.3344880  36.7295374
  88.9630707  29.5007536  37.8992645  86.9665768  32.3182024  34.0215206
  86.0576987  32.0341056  34.1187676  86.9960852  32.7381102  33.1618513
  92.1985035  35.9288613  37.7906373  91.7447363  35.0879523  37.8471564
  91.5679002  36.5650011  38.1281154  91.1417955  26.8580599  39.0207041
  90.4040712  26.3457985  39.3517283  91.3944729  26.4180981  38.2090318
  90.6417975  37.7665110  38.7256192  90.9340949  38.3270167  38.0068557
  91.1516595  38.0593671  39.4809351  91.2429582  19.6356851  39.6148810
  91.5488459  18.7754214  39.3274725  91.9682187  20.2274471  39.4147804
  77.5353938  30.0387538  38.0030408  77.3378338  29.4456898  37.2781475
  76.9800602  29.7339748  38.7206347  85.5150662  29.9310644  40.1225001
  85.5699272  28.9784481  40.0467478  84.7041864  30.0870083  40.6066300
  86.6641856  33.8590767  31.3603284  86.2261286  33.1426626  30.9008922
  87.4052297  34.0866882  30.7988376  83.4543022  28.5487704  37.8815380
  82.6410888  28.8481874  38.2880572  83.9502016  28.1543393  38.5989862
  85.6051600  38.5445461  39.8149645  85.5627779  38.7706307  38.8858177
  86.5214299  38.3108835  39.9635446  89.0517234  29.0129528  46.7130274
  89.4066621  29.2401001  47.5724740  89.6989365  29.3447905  46.0907529
  94.7814971  32.1347964  37.4179603  94.6432869  32.3249560  36.4900792
  94.4251189  32.8967347  37.8747654  82.9457097  26.1206059  43.4976615
  83.5856476  25.9794818  42.7999578  82.1134627  25.8340573  43.1215217
  94.8084350  34.2024491  42.4290875  95.2420857  34.1099780  43.2773929
  95.5215931  34.1781992  41.7910891  83.7217401  35.4208490  39.6111607
  84.5157999  34.9258810  39.4094182  83.0109093  34.8926353  39.2479313
  88.5412245  37.8026585  43.9623975  88.5949267  38.3717522  44.7301691
  87.6727027  37.9728470  43.5978012  80.0300164  29.5651572  35.6871360
  79.0997752  29.5036027  35.9041322  80.1257636  29.0427524  34.8908001
  79.9485713  26.0906384  38.2749602  80.2092531  27.0051718  38.1658762
  80.7702886  25.6230827  38.4246215  81.4210639  27.5044142  45.4448426
  82.0933692  27.2961504  44.7961075  80.5940425  27.3066228  45.0053659
  95.6699900  34.2448192  44.9623760  95.8635790  35.1494002  45.2083035
  95.5700518  33.7855611  45.7962345  87.3236211  24.1306082  47.4614087
  86.6764126  24.8296032  47.3678564  88.0937226  24.5642226  47.8290335
  90.7315008  34.3954935  50.5364641  90.5800515  34.1665486  49.6194724
  90.7219688  35.3525536  50.5495986  87.5000345  31.9686847  45.5210907
  88.4292405  32.1198007  45.3479874  87.0791375  32.0570868  44.6659553
  86.2988677  35.9937512  43.2909445  86.1599762  35.6256296  44.1635383
  85.5103273  36.5085151  43.1193402  86.8936829  41.0946608  34.6334981
  87.0688584  40.6234651  35.4480604  86.2069617  41.7212374  34.8616242
  87.8493892  35.3719114  40.6798282  87.5143724  35.3319884  41.5755932
  87.3497838  34.7063830  40.2068693  81.8238136  30.7786745  46.2050864
  81.6857934  30.0466983  46.8062403  82.7343059  30.6895645  45.9235051
  90.7853083  32.7175149  30.9535342  90.1682254  31.9921977  30.8568395
  90.3169572  33.4784509  30.6102416  84.4520436  30.4906704  45.6934543
  85.1620055  29.8499896  45.6521162  84.4089745  30.7419599  46.6160724
  92.4407215  37.4274057  48.6141122  92.3819761  36.7433277  47.9471705
  92.8426734  38.1693047  48.1621748  83.1649370  27.4771922  47.5130183
  82.6286727  27.0262660  48.1651779  82.5766079  27.6117831  46.7700647
  82.5751629  26.9360573  30.0756646  81.6981096  26.8149374  29.7118893
  83.0509382  26.1446651  29.8235535  92.4424622  35.3913641  46.8455102
  91.5551401  35.0539563  46.9681501  93.0123173  34.6596672  47.0823867
  78.8988492  26.6127929  44.5983177  78.8146680  26.0053599  43.8633587
  78.0771198  27.1036948  44.5992673  85.9725776  40.0515093  43.8116345
  85.8995947  40.8570065  44.3235650  85.5303169  40.2507059  42.9864367
  85.7615555  39.2886863  37.3219167  84.9783077  39.8308544  37.4157391
  86.4608301  39.8060843  37.7213408  89.0712206  25.0981493  39.9653372
  89.5680905  24.3451455  39.6454442  88.2999187  25.1345810  39.3996582
  96.9241963  30.8021858  41.6071664  96.9131839  31.6846574  41.2365597
  96.0559342  30.4493409  41.4126201  88.4324459  39.9501927  45.9674504
  89.1452432  40.5849392  45.8950405  87.9414488  40.0465793  45.1514506
  90.1541986  33.8553180  37.5391796  89.2198265  33.9754643  37.3696500
  90.3318655  32.9525647  37.2751805  85.6547174  27.2398876  39.6925057
  85.2844962  26.6869916  40.3805962  86.1506267  26.6357009  39.1400057
  93.5414538  29.6970499  38.0741830  94.0074990  30.5298491  38.0002132
  93.9922038  29.2315481  38.7787088  83.4836373  37.6996371  46.7880075
  84.1845832  38.3332854  46.9409469  83.0131488  38.0411102  46.0275714
  91.6090769  36.0414321  35.0727982  91.8850613  35.9270915  35.9821856
  90.7395267  35.6431806  35.0340155  91.5131200  22.0651086  42.1132731
  90.5994280  22.2955313  42.2814938  91.9424302  22.1489531  42.9646763
  91.2837659  30.2540978  44.6132625  90.6309109  30.5016886  43.9585078
  91.6618039  29.4405117  44.2795102  88.2444833  40.2900672  38.7160795
  88.4267227  39.4722328  39.1788548  89.0677819  40.5068364  38.2785685
  88.5786998  39.2168857  35.9775844  89.1074765  38.7061311  35.3646006
  88.8415218  38.9011387  36.8421377  87.3325232  30.9960789  51.0998662
  86.6565869  30.8954919  51.7701037  88.1552866  30.8400003  51.5634659
  86.0748015  42.3027717  45.3356278  86.6266323  42.4659338  46.1005363
  86.4154208  42.8932155  44.6636303  81.0512508  24.6502867  45.9378163
  81.1153834  25.5117698  45.5255561  80.9879628  24.0376868  45.2050521
  80.5264780  26.7225999  49.5851197  81.1536819  26.3403077  50.1988721
  79.6692699  26.5040201  49.9506890  90.9258889  37.1288974  51.1904933
  91.4698793  37.7418933  50.6959887  90.3445734  37.6868553  51.7071946
  77.3030323  28.5302428  35.5169552  77.5983764  27.6213107  35.4636606
  76.4018359  28.5090168  35.1950554  89.2116402  40.2509692  42.3219960
  89.0867541  39.4499432  41.8130906  89.8695493  40.7455886  41.8333930
  80.8324570  26.6058425  41.4997101  80.1111156  27.2194393  41.3604574
  81.6217826  27.1416190  41.4213747  91.2751310  38.0518713  43.9499510
  90.3281646  37.9324064  43.8777837  91.6234084  37.1641211  44.0325772
  83.6350884  23.9412851  47.7737752  84.1585286  24.1875148  48.5364062
  83.4163217  24.7732886  47.3540890  79.0318165  26.2116526  35.6408877
  78.7030871  25.3313905  35.4583983  79.3857536  26.1564195  36.5285266
  88.2797744  37.8471429  40.1503863  88.1322706  36.9188136  40.3311433
  89.1051237  37.8691519  39.6660938  82.1459988  26.4989496  36.0084355
  82.4856060  27.0275417  35.2862963  82.5932108  26.8369902  36.7842921
  91.8831866  38.6699987  41.2368735  92.8078413  38.4642849  41.0993187
  91.7147169  38.4216389  42.1458077  84.8403429  24.8826547  45.4587423
  84.5000249  24.0834360  45.8608103  84.1342435  25.1828257  44.8864256
  85.4919901  21.9675859  43.9114746  86.3145970  21.4936337  43.7893636
  85.7357964  22.7466343  44.4113432  84.1328135  24.9964117  34.2077648
  84.8536498  25.3745370  33.7041364  83.5093439  25.7152994  34.3112626
  88.2759258  25.7009266  35.1435980  88.4922872  26.5833904  34.8424808
  87.7953325  25.3095480  34.4141622  83.0158479  28.6594980  41.7206724
  82.8703060  28.9735283  42.6131006  82.5383683  29.2779880  41.1677623
  84.8754862  25.6497528  41.7687614  84.8616431  24.7538621  41.4319912
  85.5927290  25.6568191  42.4025900  86.7280993  26.0834868  43.8140741
  86.4698771  27.0051938  43.8125072  86.1966033  25.6865302  44.5041206
  91.6727182  39.1885655  36.5930827  91.8464059  38.6232077  35.8404679
  92.1656073  39.9886550  36.4110317  84.2791758  24.5311908  37.0375184
  84.4007669  23.6028554  37.2366072  83.9893801  24.5450594  36.1253500
  87.1482949  22.2166818  40.1741904  87.1704645  22.2806151  39.2193884
  87.5651008  21.3771327  40.3682410  97.5266573  31.9522078  38.2121127
  97.9697719  31.2029403  37.8140250  96.6493083  31.9432214  37.8294859
  92.6602354  38.5052419  33.6927725  93.3553259  39.1259112  33.9115040
  93.0025504  37.6547771  33.9680103  94.5593777  35.9552125  35.2215056
  95.0845101  36.2939398  34.4964376  94.4716130  35.0199140  35.0378191
  86.2213826  39.8686199  47.3504933  86.5300952  39.6235345  48.2227632
  87.0189308  40.0732837  46.8623803  86.2434438  42.0224108  39.5810309
  85.8039428  41.5300487  40.2743166  86.9942555  41.4797076  39.3402384
  83.6908310  37.5662117  41.6532611  83.0688320  36.9032822  41.3534839
  84.3613177  37.5923249  40.9706259  83.7632838  26.0443905  51.2465117
  83.8120993  26.9206028  50.8642886  84.3055352  25.5021298  50.6736760
  94.2487683  36.5885028  50.5266254  93.4583227  36.5709167  49.9870753
  94.0121038  37.1273322  51.2815290  94.3685558  33.4377495  47.8398982
  94.4183563  33.2727502  48.7814505  94.2599482  32.5704754  47.4496863
  83.2521817  36.1166041  35.1291071  83.4009938  36.8001505  34.4757744
  84.0588261  36.0971131  35.6440527  91.6589321  29.4208423  49.1558289
  92.5599184  29.2814888  48.8642287  91.7337295  29.5862878  50.0956467
  85.9932126  26.7975278  48.0011475  85.1235436  27.0908844  47.7294064
  86.2291607  27.3815723  48.7218739  95.8703755  35.8574436  48.0841004
  95.5788564  36.2204417  48.9204465  95.2575887  35.1441445  47.9054336
  97.0699438  33.4227316  40.6043574  97.9046329  33.8617120  40.7681135
  97.2058566  32.9465969  39.7851820  94.1190944  30.9807051  46.5521062
  94.5945065  31.1734697  45.7439913  93.1956509  31.0366237  46.3064446
  81.0074450  32.1431218  36.1352140  80.7620492  31.2393548  36.3332350
  81.1770365  32.1448369  35.1931618  88.6971160  23.0154895  45.5176896
  89.2153104  23.7515922  45.1923384  88.3426293  23.3218888  46.3523655
  80.2770098  27.8759576  33.6338302  79.5839343  27.9503931  32.9778338
  80.0321850  27.1119919  34.1559819  88.9483754  19.4355177  41.0377792
  89.2285508  18.7678366  41.6638219  89.7334361  19.6284273  40.5252456
  86.7517223  38.6114171  32.6002819  86.1791190  39.2304358  32.1473291
  87.3250016  39.1613533  33.1342741  92.8192613  27.8572811  44.7849368
  93.7710035  27.9570909  44.8061592  92.6496063  27.0651080  45.2947452
  90.8406992  24.9428394  44.9708768  90.2456924  25.2233407  44.2755257
  90.5556689  25.4322295  45.7425510  89.9714482  38.8951321  33.7311401
  90.9045156  38.8296883  33.9344277  89.8837695  39.7307588  33.2725934
  92.6002499  38.2117191  30.6915349  92.5216131  37.8777055  31.5851106
  93.4212166  38.7038959  30.6906821  95.2980690  31.0778931  43.8991667
  95.2657010  30.1394932  44.0851351  95.9081314  31.1562968  43.1657492
  87.1364021  29.9474984  29.9418871  88.0823126  29.8181192  30.0107289
  86.7578266  29.2089646  30.4188299  95.4475179  27.8689974  43.9449950
  94.9314227  27.0848431  43.7579879  96.3315127  27.5408691  44.1096470
  93.1085906  21.6130990  39.9045763  92.9110727  21.3046078  40.7889095
  93.7185611  22.3392629  40.0343693 101.1157240  32.1394938  43.0397704
 101.8460629  31.8780226  43.6005407 100.5064186  31.4023660  43.0799772
  99.1972537  30.2802800  43.6372155  98.4705701  30.1458765  43.0288647
  98.7819824  30.5879629  44.4428873  87.0202714  33.9992730  51.4019528
  87.9405723  34.1771329  51.5959575  86.9852297  33.0548775  51.2499227
  85.3206938  27.8724960  29.8773756  84.4138394  27.5758073  29.9536470
  85.5982919  27.5754778  29.0108043  86.9369004  22.4161850  36.0317998
  86.1269732  22.0708935  36.4073244  87.6253421  22.1069394  36.6205609
  88.8659552  21.4939897  37.6542294  89.4190591  21.9135350  38.3132317
  89.1029639  20.5675645  37.6965250  84.8892652  27.4826970  53.4345058
  84.7889378  28.4321327  53.3657149  84.6714194  27.1545209  52.5621128
  84.0905723  24.7311895  30.0185736  84.9524887  25.0566794  30.2781553
  84.2756067  23.9443391  29.5058801  92.2438359  23.6040422  37.1620959
  91.6637028  24.2625226  36.7799011  91.9774292  22.7817766  36.7508376
  90.6941926  23.0045480  39.3642279  91.1941704  23.1162014  38.5556598
  91.3377534  22.7006532  40.0043087  84.7523922  30.9124109  52.2510120
  84.2691003  31.7124469  52.4574009  84.8384861  30.9232054  51.2977564
  81.2696641  33.3729760  46.8549351  82.0889530  33.8673839  46.8784189
  81.5433449  32.4561728  46.8266919  91.0263237  25.7640512  36.2177307
  90.1389092  26.0490163  35.9997502  91.4417227  25.6034276  35.3704584
  94.3777774  25.7887033  39.9331646  95.1538164  26.2783486  40.2056263
  93.6525908  26.2145087  40.3903516  96.8150332  26.5014652  40.9905587
  97.4094823  26.2610388  40.2798895  96.8876916  25.7821783  41.6179123
  90.1706451  35.5285187  30.3125327  90.8742301  35.7335189  30.9282982
  89.4469100  36.0961949  30.5774410  91.0004261  31.2795048  36.4327597
  90.9439463  31.7363600  35.5935229  91.5532604  30.5185733  36.2550440
  94.8109067  27.0684780  37.2577717  94.5546001  26.6681416  38.0885924
  94.1861935  27.7828574  37.1327856  99.1221405  29.8080853  39.7649008
  98.5620963  29.8774043  40.5380570  98.5164908  29.6321838  39.0448504
  92.0793148  35.9667716  32.3623787  92.9138752  35.5348915  32.1801262
  91.9177491  35.7949730  33.2900681  91.7339041  32.4699829  33.7280126
  91.6787844  32.3044101  32.7868570  91.1085096  33.1775862  33.8842316
  76.5231555  27.7067894  47.5541548  77.1690419  27.1966848  48.0428774
  76.3148707  28.4436575  48.1284974  89.0484948  34.7748741  53.0533689
  89.9176107  34.9489394  52.6920324  88.5691699  35.5943158  52.9309418
  85.0435166  21.9707938  33.3065445  85.0313836  22.9149778  33.4633715
  85.9358588  21.7878084  33.0124906  84.9724730  40.6476829  41.3933201
  84.0220361  40.6478690  41.2797574  85.2757216  39.9009563  40.8769236
  88.8587285  18.5650715  37.5611381  88.0919681  18.0109202  37.7068064
  89.2697990  18.6372584  38.4225533  80.8629046  24.8535511  51.6516563
  81.7260508  24.4972316  51.8619887  80.2894457  24.5149406  52.3391967
 100.7077423  46.4837367  42.4578964 101.3455833  46.3644115  41.7542304
 100.5898266  47.4318211  42.5166916  97.5167130  46.4364795  42.3940488
  97.1785641  46.3205860  41.5061023  98.3856898  46.0355960  42.3741495
  93.3753945  48.2900272  38.3837379  92.8118811  48.1990209  37.6153667
  93.2606340  47.4700176  38.8639872  97.9986913  47.5899647  48.3526694
  97.9875553  47.1952445  47.4807198  98.1607552  46.8565720  48.9460465
  90.9218377  49.7851463  41.2221600  91.7139669  49.4442288  40.8067899
  91.1615027  49.8946438  42.1423753  98.9553504  51.9571239  33.6951844
  98.3041484  52.5425320  33.3085858  99.7497867  52.4877434  33.7546882
  92.8809131  49.0460377  34.0938979  93.6540007  48.4989364  33.9551854
  93.2334530  49.9104626  34.3053440  94.7194174  50.3736759  47.3005878
  94.4284040  51.2782390  47.1852544  95.3551158  50.4153286  48.0149947
  95.6450381  47.7513607  43.8907238  96.2413953  47.5269630  43.1764200
  95.7025352  47.0098353  44.4932685  95.2175409  45.2053043  31.7257428
  95.4700930  44.6834564  30.9640891  94.2799968  45.0419188  31.8284112
 100.2618692  44.2088821  39.5332172 101.0481781  43.7908244  39.1822589
 100.5257396  45.1134913  39.7013820 100.4328769  49.6461671  34.2320829
  99.7974602  49.7196298  34.9441733 100.1026176  50.2355270  33.5539908
 105.6627119  44.1464054  40.4365150 106.3952291  43.5763271  40.6702980
 104.9066475  43.7585655  40.8771656  94.9371698  47.1081149  33.9281803
  94.8207956  46.4326052  34.5962888  95.0473958  46.6213523  33.1113957
  97.2803239  46.5691296  37.6328493  96.9161446  46.0421917  38.3441414
  98.1370355  46.1789765  37.4594978 103.1852539  37.8585628  44.8959759
 102.8535864  38.7281039  44.6720974 102.5898153  37.5421912  45.5753789
  96.9208726  41.5981195  32.6289841  97.0883128  42.4661432  32.9960312
  96.7305895  41.7608477  31.7051130  99.6784059  50.0598174  44.2955672
  99.3784782  50.9623213  44.1871479  99.3335118  49.7930358  45.1476824
  93.1296540  46.5111971  40.3292376  92.2047037  46.3788185  40.5370068
  93.3780954  47.2906190  40.8262318 103.0781203  42.5780715  41.9753109
 102.1698080  42.5096123  41.6811870 103.0268798  43.0552659  42.8034934
  96.8997947  44.0538853  33.6136508  96.7797572  44.4995904  34.4521988
  96.2050535  44.4024171  33.0550046  90.4905351  46.1545245  41.1636165
  90.6197733  46.4079724  42.0775577  89.8102803  46.7472953  40.8440820
  94.6604839  56.8242495  37.2626639  94.5828868  57.7750320  37.3415120
  94.0566482  56.4788367  37.9201566  97.1522068  43.9970360  49.9188006
  96.3755403  44.5564280  49.9090871  97.7912632  44.4827143  50.4402876
 104.9442849  40.7797153  43.7530983 104.3017229  41.0729686  43.1070777
 104.4397778  40.6650073  44.5584179 102.5983013  44.5260326  34.4416842
 103.5100869  44.7587713  34.2664540 102.0892660  45.1097370  33.8791921
  95.4068441  46.8055813  49.4805973  96.1483125  47.3440857  49.2040797
  94.7005426  47.4322102  49.6377525 100.8823780  48.9484954  48.0778135
 101.2907136  48.5067364  47.3332767 100.1601042  48.3737581  48.3312328
  97.2354850  43.8857561  45.4511692  98.0816046  44.3096974  45.5946341
  97.1753488  43.2291185  46.1450255 101.2052595  49.5086145  41.8330424
 100.5761458  49.6731859  41.1306491 100.8178257  49.9227754  42.6041388
 105.0841827  50.4440582  39.1874787 104.3992865  50.8239484  38.6371821
 105.1685676  51.0535909  39.9206735 100.3854296  41.5461929  47.1092865
 100.1415228  42.3003990  46.5727141 100.6614226  41.9247277  47.9440112
 102.3392759  48.0900541  45.7870131 102.5509654  48.7332301  45.1104512
 102.2922507  47.2562858  45.3192061  99.9418988  40.7018362  42.6906703
  99.0803467  40.9999616  42.9823441  99.9681422  40.9188761  41.7587736
  96.7580557  49.2460553  39.0980509  97.2218902  49.5248256  38.3085131
  96.4937355  48.3443997  38.9153599  93.6504638  48.7932034  42.0360272
  94.2205995  49.2219303  41.3977756  94.2412750  48.5114619  42.7344458
  95.6949443  45.3683705  35.9070074  96.3973486  45.8204749  36.3744000
  95.3630072  44.7267524  36.5349967  94.1429805  43.9595462  50.2821283
  93.5128465  44.6411743  50.5156680  94.0365892  43.8478543  49.3374421
  89.4374777  43.6267258  41.2087207  88.6473831  43.8824786  40.7327318
  89.9286024  44.4415596  41.3139248 103.4538587  50.9672497  43.9592488
 104.2756030  50.5652684  43.6775170 103.4500989  50.8640731  44.9108604
  91.3889522  43.9911837  38.1670684  90.5920686  44.1030531  38.6854180
  91.1615115  44.3298489  37.3011575  97.2195190  50.5156540  46.1153199
  97.2839622  50.9776947  46.9511371  96.5106114  49.8853905  46.2435509
  87.7212480  43.8797748  43.6402198  87.9720518  44.7644758  43.9059774
  88.2572028  43.7002350  42.8677290  96.9343208  52.1824648  35.9832179
  96.7988882  53.0276183  36.4117027  97.4753020  52.3843925  35.2198113
  93.4210547  38.2616228  52.6446534  93.0277493  37.7082426  53.3194178
  94.2376688  38.5726806  53.0353052  90.3872605  49.7000086  36.5560104
  90.8997126  50.4943336  36.7065669  91.0395318  49.0026376  36.4893706
  92.1967490  52.8165842  38.6382857  92.3734118  53.7383807  38.4503841
  92.9924323  52.5024261  39.0677237  96.3378508  39.6774107  50.2366791
  97.0788222  40.2781260  50.1571253  96.5696431  38.9351744  49.6784833
  91.4819846  44.8630474  48.5145020  91.3673361  43.9615731  48.8152119
  90.6264364  45.1094171  48.1629837  98.5611684  52.8048214  50.1132521
  98.1175538  52.0184593  49.7953426  99.2228898  52.9927365  49.4476412
  93.3198805  54.3344016  44.6393200  93.8706230  54.2061079  43.8670194
  92.4810281  54.6338905  44.2888092 100.6592922  53.0851014  48.1413922
 100.6411397  53.9059895  47.6494192 101.5812842  52.9605089  48.3664064
  97.1165976  50.5995144  48.9837431  97.6494313  49.8383432  48.7536739
  96.5880057  50.3068795  49.7261585 100.2835671  35.7055210  44.5131072
  99.9399941  36.5956851  44.4370183 100.6514634  35.5156867  43.6500657
  88.3521522  48.0288740  37.3319675  89.1896744  48.4385748  37.1153382
  88.5299790  47.0888182  37.3019868 100.2485954  45.6963821  33.0203508
  99.7332577  46.4668425  33.2591895  99.9763262  45.0228957  33.6436569
  97.8333065  40.5413521  38.0788746  96.9774661  40.1520372  37.8994385
  98.2460017  40.6205482  37.2188531  99.3632212  38.0759865  42.4780306
  98.8597007  38.0390000  41.6648111  99.6562818  38.9852607  42.5376962
  95.6075097  38.1598594  41.4846487  96.4728094  37.9641403  41.1252377
  95.6752606  37.9308946  42.4115844 105.2220228  48.4496175  34.9556681
 104.4449671  48.1107335  34.5111843 105.9011709  48.4548798  34.2811646
 100.0372257  43.5690913  34.8463289  99.7322393  43.8837062  35.6973432
 100.9902699  43.6472333  34.8890622  98.4818689  49.7281136  36.4956243
  97.9540051  48.9933896  36.1829480  97.9806192  50.5055812  36.2496211
 103.4611535  47.9230157  41.6123289 102.8035209  48.6129418  41.7003418
 104.2651934  48.3126588  41.9557275  93.2137417  40.3900802  38.8562854
  93.7881168  40.1675984  38.1236047  93.8008399  40.4589497  39.6091456
 102.2716994  46.2774529  39.6627231 102.7848876  46.9104521  40.1648941
 102.9218218  45.6775725  39.2970591  93.5407004  42.4205263  32.8758740
  92.7044316  42.7579950  33.1968014  93.4011773  42.2854243  31.9385876
  95.5160084  37.2642051  37.5837924  94.8624497  36.9491068  36.9594538
  95.4740558  36.6417792  38.3097747  96.6271289  47.5461346  29.4991216
  95.7198351  47.3150600  29.6982365  97.1242321  46.7498966  29.6865197
  99.5339368  56.2558854  32.4187902  98.8601067  56.5590550  33.0272860
  99.9205190  57.0587934  32.0693359  98.7497825  43.7523985  41.9085571
  97.8320386  43.9738932  41.7507259  99.1657968  43.8270295  41.0497279
  99.5332872  45.1515400  37.0388252 100.2804691  45.6636798  36.7295374
  99.8024462  44.8299453  37.8992645  97.8059523  47.6473941  34.0215206
  96.8970742  47.3632974  34.1187676  97.8354606  48.0673020  33.1618513
 103.0378790  51.2580531  37.7906373 102.5841117  50.4171441  37.8471564
 102.4072757  51.8941929  38.1281154 101.9811710  42.1872517  39.0207041
 101.2434466  41.6749903  39.3517283 102.2338483  41.7472898  38.2090318
 101.4811729  53.0957027  38.7256192 101.7734704  53.6562084  38.0068557
 101.9910350  53.3885588  39.4809351 102.0823337  34.9648769  39.6148810
 102.3882214  34.1046132  39.3274725 102.8075942  35.5566389  39.4147804
  88.3747693  45.3679455  38.0030408  88.1772093  44.7748816  37.2781475
  87.8194357  45.0631665  38.7206347  96.3544417  45.2602562  40.1225001
  96.4093026  44.3076398  40.0467478  95.5435619  45.4162001  40.6066300
  97.5035610  49.1882685  31.3603284  97.0655040  48.4718544  30.9008922
  98.2446051  49.4158800  30.7988376  94.2936777  43.8779622  37.8815380
  93.4804642  44.1773792  38.2880572  94.7895771  43.4835310  38.5989862
  96.4445354  53.8737378  39.8149645  96.4021533  54.0998225  38.8858177
  97.3608053  53.6400753  39.9635446  99.8910988  44.3421446  46.7130274
 100.2460376  44.5692919  47.5724740 100.5383119  44.6739823  46.0907529
 105.6208725  47.4639882  37.4179603 105.4826624  47.6541478  36.4900792
 105.2644944  48.2259265  37.8747654  93.7850851  41.4497977  43.4976615
  94.4250231  41.3086736  42.7999578  92.9528382  41.1632490  43.1215217
 105.6478105  49.5316409  42.4290875 106.0814611  49.4391698  43.2773929
 106.3609685  49.5073909  41.7910891  94.5611155  50.7500407  39.6111607
  95.3551754  50.2550728  39.4094182  93.8502848  50.2218271  39.2479313
  99.3806000  53.1318503  43.9623975  99.4343022  53.7009439  44.7301691
  98.5120781  53.3020388  43.5978012  90.8693919  44.8943489  35.6871360
  89.9391507  44.8327945  35.9041322  90.9651391  44.3719442  34.8908001
  90.7879468  41.4198302  38.2749602  91.0486285  42.3343635  38.1658762
  91.6096640  40.9522745  38.4246215  92.2604393  42.8336059  45.4448426
  92.9327446  42.6253421  44.7961075  91.4334180  42.6358145  45.0053659
 106.5093654  49.5740110  44.9623760 106.7029544  50.4785920  45.2083035
 106.4094272  49.1147529  45.7962345  98.1629965  39.4598000  47.4614087
  97.5157880  40.1587950  47.3678564  98.9330980  39.8934144  47.8290335
 101.5708763  49.7246852  50.5364641 101.4194269  49.4957404  49.6194724
 101.5613442  50.6817454  50.5495986  98.3394099  47.2978765  45.5210907
  99.2686159  47.4489925  45.3479874  97.9185129  47.3862786  44.6659553
  97.1382431  51.3229429  43.2909445  96.9993517  50.9548214  44.1635383
  96.3497027  51.8377069  43.1193402  97.7330583  56.4238526  34.6334981
  97.9082339  55.9526569  35.4480604  97.0463371  57.0504292  34.8616242
  98.6887646  50.7011032  40.6798282  98.3537479  50.6611802  41.5755932
  98.1891592  50.0355748  40.2068693  92.6631890  46.1078662  46.2050864
  92.5251688  45.3758901  46.8062403  93.5736814  46.0187562  45.9235051
 101.6246838  48.0467066  30.9535342 101.0076009  47.3213895  30.8568395
 101.1563326  48.8076427  30.6102416  95.2914191  45.8198622  45.6934543
  96.0013809  45.1791814  45.6521162  95.2483499  46.0711516  46.6160724
 103.2800970  52.7565975  48.6141122 103.2213516  52.0725195  47.9471705
 103.6820488  53.4984965  48.1621748  94.0043125  42.8063839  47.5130183
  93.4680482  42.3554578  48.1651779  93.4159833  42.9409748  46.7700647
  92.2991668  59.5727889  41.4074841  92.5388267  60.2046413  42.0853860
  91.4560865  59.2215929  41.6940201  93.4145384  42.2652491  30.0756646
  92.5374850  42.1441292  29.7118893  93.8903137  41.4738569  29.8235535
 103.2818377  50.7205559  46.8455102 102.3945156  50.3831481  46.9681501
 103.8516928  49.9888590  47.0823867  89.7382246  41.9419847  44.5983177
  89.6540435  41.3345517  43.8633587  88.9164953  42.4328865  44.5992673
  96.8119530  55.3807011  43.8116345  96.7389702  56.1861983  44.3235650
  96.3696923  55.5798977  42.9864367  96.6009310  54.6178781  37.3219167
  95.8176832  55.1600461  37.4157391  97.3002055  55.1352761  37.7213408
  99.9105960  40.4273411  39.9653372 100.4074660  39.6743373  39.6454442
  99.1392942  40.4637727  39.3996582 107.7635717  46.1313776  41.6071664
 107.7525594  47.0138492  41.2365597 106.8953097  45.7785327  41.4126201
  99.2718214  55.2793845  45.9674504  99.9846186  55.9141310  45.8950405
  98.7808242  55.3757711  45.1514506 100.9935741  49.1845098  37.5391796
 100.0592019  49.3046560  37.3696500 101.1712409  48.2817565  37.2751805
  96.4940929  42.5690794  39.6925057  96.1238716  42.0161834  40.3805962
  96.9900021  41.9648927  39.1400057 104.3808292  45.0262417  38.0741830
 104.8468744  45.8590409  38.0002132 104.8315793  44.5607399  38.7787088
  94.3230127  53.0288289  46.7880075  95.0239587  53.6624772  46.9409469
  93.8525242  53.3703020  46.0275714 102.4484523  51.3706238  35.0727982
 102.7244367  51.2562833  35.9821856 101.5789022  50.9723723  35.0340155
 102.3524955  37.3943004  42.1132731 101.4388035  37.6247231  42.2814938
 102.7818056  37.4781448  42.9646763 102.1231413  45.5832896  44.6132625
 101.4702864  45.8308804  43.9585078 102.5011793  44.7697034  44.2795102
  99.0838587  55.6192589  38.7160795  99.2660982  54.8014245  39.1788548
  99.9071573  55.8360282  38.2785685  99.4180753  54.5460774  35.9775844
  99.9468519  54.0353229  35.3646006  99.6808972  54.2303305  36.8421377
  98.1718986  46.3252707  51.0998662  97.4959623  46.2246836  51.7701037
  98.9946620  46.1691921  51.5634659  89.9197845  52.5624644  43.7211177
  90.5051282  51.8168332  43.8539082  89.7222684  52.8728600  44.6047841
  92.7736501  55.5975891  38.7373620  92.1046876  56.0822019  38.2537660
  92.6349370  55.8445112  39.6516998  84.5115500  45.1330244  42.4415621
  84.5499600  44.5993835  43.2352739  84.0055793  44.6065449  41.8226598
  96.9141769  57.6319635  45.3356278  97.4660077  57.7951256  46.1005363
  97.2547963  58.2224072  44.6636303  91.8906262  39.9794784  45.9378163
  91.9547589  40.8409615  45.5255561  91.8273383  39.3668786  45.2050521
  91.3658535  42.0517917  49.5851197  91.9930574  41.6694994  50.1988721
  90.5086454  41.8332119  49.9506890 101.7652644  52.4580892  51.1904933
 102.3092548  53.0710850  50.6959887 101.1839488  53.0160471  51.7071946
  88.1424078  43.8594346  35.5169552  88.4377519  42.9505024  35.4636606
  87.2412113  43.8382085  35.1950554 100.0510156  55.5801610  42.3219960
  99.9261296  54.7791350  41.8130906 100.7089248  56.0747803  41.8333930
  91.6718325  41.9350343  41.4997101  90.9504910  42.5486310  41.3604574
  92.4611580  42.4708107  41.4213747 102.1145065  53.3810630  43.9499510
 101.1675400  53.2615981  43.8777837 102.4627838  52.4933128  44.0325772
  94.4744638  39.2704769  47.7737752  94.9979040  39.5167066  48.5364062
  94.2556972  40.1024804  47.3540890  89.8711919  41.5408444  35.6408877
  89.5424625  40.6605823  35.4583983  90.2251290  41.4856112  36.5285266
  99.1191498  53.1763346  40.1503863  98.9716461  52.2480054  40.3311433
  99.9444992  53.1983437  39.6660938  92.9853742  41.8281413  36.0084355
  93.3249815  42.3567335  35.2862963  93.4325863  42.1661820  36.7842921
 102.7225620  53.9991905  41.2368735 103.6472167  53.7934766  41.0993187
 102.5540923  53.7508306  42.1458077  95.6797183  40.2118464  45.4587423
  95.3394004  39.4126277  45.8608103  94.9736190  40.5120175  44.8864256
  96.3313655  37.2967777  43.9114746  97.1539724  36.8228255  43.7893636
  96.5751719  38.0758260  44.4113432  94.9721890  40.3256035  34.2077648
  95.6930252  40.7037288  33.7041364  94.3487194  41.0444912  34.3112626
  99.1153012  41.0301184  35.1435980  99.3316627  41.9125822  34.8424808
  98.6347080  40.6387397  34.4141622  93.8552234  43.9886897  41.7206724
  93.7096815  44.3027200  42.6131006  93.3777438  44.6071798  41.1677623
  95.7148617  40.9789445  41.7687614  95.7010186  40.0830539  41.4319912
  96.4321045  40.9860109  42.4025900  97.5674747  41.4126785  43.8140741
  97.3092525  42.3343856  43.8125072  97.0359788  41.0157220  44.5041206
 102.5120936  54.5177573  36.5930827 102.6857814  53.9523995  35.8404679
 103.0049827  55.3178467  36.4110317  88.3297896  46.5292242  44.6594386
  87.7851364  47.3052050  44.7914660  89.2077246  46.8763046  44.5013507
  95.1185513  39.8603826  37.0375184  95.2401424  38.9320472  37.2366072
  94.8287555  39.8742512  36.1253500  97.9876703  37.5458736  40.1741904
  98.0098400  37.6098069  39.2193884  98.4044762  36.7063245  40.3682410
 103.4996109  53.8344337  33.6927725 104.1947013  54.4551030  33.9115040
 103.8419259  52.9839688  33.9680103  89.1163918  45.6562138  47.5524543
  88.3745654  45.8044773  48.1389173  88.7956662  45.9170404  46.6891292
 105.3987532  51.2844043  35.2215056 105.9238856  51.6231315  34.4964376
 105.3109884  50.3491058  35.0378191  97.0607581  55.1978116  47.3504933
  97.3694707  54.9527263  48.2227632  97.8583063  55.4024755  46.8623803
  97.0828193  57.3516026  39.5810309  96.6433183  56.8592405  40.2743166
  97.8336310  56.8088993  39.3402384  89.5620532  53.5427567  39.5834937
  90.3878551  53.2431339  39.2033581  89.2114584  52.7735189  40.0324726
  94.5302065  52.8954035  41.6532611  93.9082074  52.2324740  41.3534839
  95.2006932  52.9215167  40.9706259  87.7629137  51.4613893  40.5423871
  86.9261045  51.0336067  40.3607872  87.7352782  51.6546336  41.4794662
  94.6026592  41.3735823  51.2465117  94.6514748  42.2497946  50.8642886
  95.1449106  40.8313216  50.6736760 105.0881438  51.9176946  50.5266254
 104.2976982  51.9001085  49.9870753 104.8514792  52.4565240  51.2815290
 105.2079313  48.7669413  47.8398982 105.2577318  48.6019420  48.7814505
 105.0993236  47.8996672  47.4496863  94.0915572  51.4457958  35.1291071
  94.2403692  52.1293423  34.4757744  94.8982015  51.4263048  35.6440527
 102.4983075  44.7500341  49.1558289 103.3992938  44.6106805  48.8642287
 102.5731050  44.9154795  50.0956467  96.8325881  42.1267195  48.0011475
  95.9629190  42.4200761  47.7294064  97.0685361  42.7107640  48.7218739
 106.7097510  51.1866354  48.0841004 106.4182318  51.5496335  48.9204465
 106.0969641  50.4733362  47.9054336 104.9584698  46.3098969  46.5521062
 105.4338820  46.5026615  45.7439913 104.0350263  46.3658155  46.3064446
  91.8468205  47.4723136  36.1352140  91.6014247  46.5685466  36.3332350
  92.0164119  47.4740286  35.1931618  99.5364915  38.3446812  45.5176896
 100.0546858  39.0807839  45.1923384  99.1820047  38.6510806  46.3523655
  91.1163852  43.2051493  33.6338302  90.4233097  43.2795848  32.9778338
  90.8715604  42.4411837  34.1559819  99.7877509  34.7647095  41.0377792
 100.0679262  34.0970284  41.6638219 100.5728116  34.9576190  40.5252456
  97.5910977  53.9406089  32.6002819  97.0184944  54.5596276  32.1473291
  98.1643771  54.4905450  33.1342741 103.6586367  43.1864729  44.7849368
 104.6103790  43.2862826  44.8061592 103.4889817  42.3942997  45.2947452
 101.6800746  40.2720312  44.9708768 101.0850679  40.5525325  44.2755257
 101.3950443  40.7614213  45.7425510 100.8108237  54.2243239  33.7311401
 101.7438910  54.1588800  33.9344277 100.7231450  55.0599506  33.2725934
 103.4396254  53.5409109  30.6915349 103.3609885  53.2068973  31.5851106
 104.2605920  54.0330877  30.6906821 106.1374445  46.4070848  43.8991667
 106.1050765  45.4686849  44.0851351 106.7475068  46.4854885  43.1657492
  97.9757776  45.2766901  29.9418871  98.9216880  45.1473110  30.0107289
  97.5972021  44.5381563  30.4188299 106.2868933  43.1981892  43.9449950
 105.7707982  42.4140349  43.7579879 107.1708882  42.8700609  44.1096470
 103.9479660  36.9422907  39.9045763 103.7504481  36.6337996  40.7889095
 104.5579366  37.6684546  40.0343693  97.8596468  49.3284648  51.4019528
  98.7799478  49.5063247  51.5959575  97.8246051  48.3840693  51.2499227
  96.1600693  43.2016878  29.8773756  95.2532148  42.9049991  29.9536470
  96.4376674  42.9046696  29.0108043  87.0778633  44.5223241  40.3272803
  86.7581418  43.6688549  40.0347177  86.5312061  44.7371819  41.0830770
  90.8558541  47.2385682  44.0442309  91.0744551  48.1702790  44.0630343
  91.2684315  46.8793657  44.8297113  97.7762759  37.7453768  36.0317998
  96.9663487  37.4000853  36.4073244  98.4647175  37.4361311  36.6205609
  99.7053307  36.8231814  37.6542294 100.2584345  37.2427268  38.3132317
  99.9423393  35.8967562  37.6965250  95.7286406  42.8118888  53.4345058
  95.6283133  43.7613245  53.3657149  95.5107948  42.4837127  52.5621128
  94.9299477  40.0603813  30.0185736  95.7918641  40.3858711  30.2781553
  95.1149822  39.2735309  29.5058801  86.9466893  48.1426153  42.2965924
  86.2530365  47.7280106  41.7835879  87.6939884  48.1846689  41.6999343
 103.0832114  38.9332340  37.1620959 102.5030783  39.5917144  36.7799011
 102.8168047  38.1109684  36.7508376 101.5335680  38.3337397  39.3642279
 102.0335459  38.4453932  38.5556598 102.1771288  38.0298450  40.0043087
  95.5917676  46.2416027  52.2510120  95.1084758  47.0416387  52.4574009
  95.6778615  46.2523972  51.2977564  88.8603636  48.0744407  40.1731939
  88.8374324  48.1732094  39.2213822  89.1704272  48.9209557  40.4949105
  91.5191014  50.1320562  44.2878554  92.4734267  50.1004504  44.2208485
  91.3203537  49.6711185  45.1028780  92.1090396  48.7021678  46.8549351
  92.9283285  49.1965756  46.8784189  92.3827203  47.7853646  46.8266919
 101.8656992  41.0932430  36.2177307 100.9782847  41.3782081  35.9997502
 102.2810981  40.9326193  35.3704584 105.2171528  41.1178951  39.9331646
 105.9931918  41.6075403  40.2056263 104.4919662  41.5437005  40.3903516
 107.6544087  41.8306570  40.9905587 108.2488578  41.5902306  40.2798895
 107.7270670  41.1113701  41.6179123  89.8741242  55.6740181  41.3048752
  89.7395710  54.9140582  40.7386750  89.4573305  56.3981081  40.8377540
 101.0100205  50.8577105  30.3125327 101.7136056  51.0627107  30.9282982
 100.2862854  51.4253866  30.5774410 101.8398016  46.6086966  36.4327597
 101.7833217  47.0655517  35.5935229 102.3926358  45.8477650  36.2550440
 105.6502822  42.3976698  37.2577717 105.3939756  41.9973333  38.0885924
 105.0255690  43.1120492  37.1327856  93.0310368  56.5709498  41.5167194
  92.9142752  57.5154931  41.4145885  92.2102815  56.2683060  41.9052993
 102.9186903  51.2959634  32.3623787 103.7532507  50.8640832  32.1801262
 102.7571246  51.1241647  33.2900681 102.5732795  47.7991747  33.7280126
 102.5181599  47.6336018  32.7868570 101.9478850  48.5067780  33.8842316
  87.3625310  43.0359811  47.5541548  88.0084174  42.5258765  48.0428774
  87.1542461  43.7728493  48.1284974  99.8878702  50.1040659  53.0533689
 100.7569862  50.2781311  52.6920324  99.4085454  50.9235076  52.9309418
  95.8828920  37.2999856  33.3065445  95.8707590  38.2441696  33.4633715
  96.7752342  37.1170001  33.0124906  94.0564882  57.2237760  44.7323123
  94.9592129  57.2561370  45.0489618  93.8302252  56.2938211  44.7469458
  95.8118484  55.9768746  41.3933201  94.8614115  55.9770608  41.2797574
  96.1150971  55.2301481  40.8769236  99.6981040  33.8942633  37.5611381
  98.9313436  33.3401119  37.7068064 100.1091745  33.9664501  38.4225533
  91.7022801  40.1827429  51.6516563  92.5654263  39.8264233  51.8619887
  91.1288212  39.8441323  52.3391967 104.2147700  63.6192189  38.3837379
 103.6512565  63.5282126  37.6153667 104.1000095  62.7992094  38.8639872
 101.7612132  65.1143381  41.2221600 102.5533424  64.7734206  40.8067899
 102.0008782  65.2238356  42.1423753 103.7202886  64.3752294  34.0938979
 104.4933762  63.8281281  33.9551854 104.0728285  65.2396544  34.3053440
 105.5587928  65.7028677  47.3005878 105.2677794  66.6074307  47.1852544
 106.1944913  65.7445204  48.0149947 106.4844135  63.0805525  43.8907238
 107.0807707  62.8561547  43.1764200 106.5419107  62.3390271  44.4932685
 106.0569164  60.5344960  31.7257428 106.3094684  60.0126482  30.9640891
 105.1193723  60.3711106  31.8284112 105.7765452  62.4373066  33.9281803
 105.6601710  61.7617970  34.5962888 105.8867712  61.9505440  33.1113957
 107.7602480  56.9273113  32.6289841 107.9276883  57.7953350  32.9960312
 107.5699649  57.0900395  31.7051130 103.9690295  61.8403889  40.3292376
 103.0440791  61.7080103  40.5370068 104.2174708  62.6198108  40.8262318
 107.7391701  59.3830771  33.6136508 107.6191326  59.8287821  34.4521988
 107.0444289  59.7316088  33.0550046 101.3299106  61.4837162  41.1636165
 101.4591487  61.7371641  42.0775577 100.6496557  62.0764870  40.8440820
 105.4998593  72.1534412  37.2626639 105.4222623  73.1042237  37.3415120
 104.8960237  71.8080285  37.9201566 106.2462195  62.1347731  49.4805973
 106.9876880  62.6732775  49.2040797 105.5399181  62.7614020  49.6377525
 107.5974311  64.5752470  39.0980509 108.0612657  64.8540173  38.3085131
 107.3331110  63.6735915  38.9153599 104.4898393  64.1223952  42.0360272
 105.0599750  64.5511220  41.3977756 105.0806504  63.8406537  42.7344458
 106.5343198  60.6975623  35.9070074 107.2367241  61.1496666  36.3744000
 106.2023826  60.0559442  36.5349967 104.9823559  59.2887379  50.2821283
 104.3522220  59.9703660  50.5156680 104.8759647  59.1770461  49.3374421
 100.2768531  58.9559175  41.2087207  99.4867585  59.2116704  40.7327318
 100.7679779  59.7707513  41.3139248 102.2283277  59.3203755  38.1670684
 101.4314440  59.4322449  38.6854180 102.0008869  59.6590407  37.3011575
 108.0588944  65.8448458  46.1153199 108.1233377  66.3068865  46.9511371
 107.3499868  65.2145823  46.2435509  98.5606234  59.2089666  43.6402198
  98.8114273  60.0936676  43.9059774  99.0965783  59.0294267  42.8677290
 107.7736962  67.5116565  35.9832179 107.6382637  68.3568101  36.4117027
 108.3146775  67.7135843  35.2198113 104.2604302  53.5908145  52.6446534
 103.8671247  53.0374344  53.3194178 105.0770442  53.9018724  53.0353052
 101.2266360  65.0292003  36.5560104 101.7390880  65.8235254  36.7065669
 101.8789072  64.3318294  36.4893706 103.0361244  68.1457760  38.6382857
 103.2127873  69.0675724  38.4503841 103.8318078  67.8316179  39.0677237
 107.1772263  55.0066024  50.2366791 107.9181976  55.6073177  50.1571253
 107.4090186  54.2643662  49.6784833 102.3213601  60.1922392  48.5145020
 102.2067116  59.2907649  48.8152119 101.4658119  60.4386088  48.1629837
 104.1592560  69.6635933  44.6393200 104.7099985  69.5352997  43.8670194
 103.3204036  69.9630822  44.2888092  99.1915276  63.3580658  37.3319675
 100.0290498  63.7677666  37.1153382  99.3693544  62.4180100  37.3019868
 106.4468852  53.4890512  41.4846487 107.3121849  53.2933321  41.1252377
 106.5146361  53.2600864  42.4115844 104.0531171  55.7192720  38.8562854
 104.6274923  55.4967902  38.1236047 104.6402153  55.7881415  39.6091456
 104.3800758  57.7497181  32.8758740 103.5438070  58.0871868  33.1968014
 104.2405528  57.6146161  31.9385876 106.3553839  52.5933969  37.5837924
 105.7018251  52.2782986  36.9594538 106.3134313  51.9709709  38.3097747
 107.4665044  62.8753264  29.4991216 106.5592105  62.6442517  29.6982365
 107.9636076  62.0790883  29.6865197  99.2141447  60.6971373  38.0030408
  99.0165847  60.1040734  37.2781475  98.6588111  60.3923583  38.7206347
 107.1938171  60.5894479  40.1225001 107.2486781  59.6368316  40.0467478
 106.3829373  60.7453919  40.6066300 105.1330531  59.2071539  37.8815380
 104.3198397  59.5065710  38.2880572 105.6289525  58.8127228  38.5989862
 107.2839109  69.2029296  39.8149645 107.2415288  69.4290142  38.8858177
 108.2001808  68.9692671  39.9635446 104.6244606  56.7789895  43.4976615
 105.2643985  56.6378654  42.7999578 103.7922136  56.4924408  43.1215217
 105.4004910  66.0792325  39.6111607 106.1945508  65.5842645  39.4094182
 104.6896602  65.5510188  39.2479313 101.7087673  60.2235407  35.6871360
 100.7785261  60.1619862  35.9041322 101.8045145  59.7011360  34.8908001
 101.6273222  56.7490220  38.2749602 101.8880039  57.6635553  38.1658762
 102.4490395  56.2814662  38.4246215 103.0998148  58.1627977  45.4448426
 103.7721201  57.9545339  44.7961075 102.2727934  57.9650063  45.0053659
 107.9776186  66.6521347  43.2909445 107.8387271  66.2840132  44.1635383
 107.1890782  67.1668987  43.1193402 103.5025645  61.4370580  46.2050864
 103.3645443  60.7050819  46.8062403 104.4130568  61.3479480  45.9235051
 106.1307945  61.1490539  45.6934543 106.8407564  60.5083731  45.6521162
 106.0877254  61.4003434  46.6160724 104.8436879  58.1355757  47.5130183
 104.3074236  57.6846496  48.1651779 104.2553588  58.2701666  46.7700647
 103.1385423  74.9019806  41.4074841 103.3782021  75.5338331  42.0853860
 102.2954619  74.5507846  41.6940201 104.2539138  57.5944408  30.0756646
 103.3768605  57.4733209  29.7118893 104.7296891  56.8030487  29.8235535
  95.7741279  62.3821568  40.1698153  96.4612318  62.0683298  39.5819169
  95.6189407  63.2862933  39.8965405 100.5776001  57.2711765  44.5983177
 100.4934189  56.6637434  43.8633587  99.7558707  57.7620783  44.5992673
 107.6513285  70.7098929  43.8116345 107.5783456  71.5153900  44.3235650
 107.2090678  70.9090895  42.9864367 107.4403064  69.9470699  37.3219167
 106.6570586  70.4892379  37.4157391 108.1395810  70.4644678  37.7213408
 107.3334683  57.8982711  39.6925057 106.9632471  57.3453752  40.3805962
 107.8293776  57.2940845  39.1400057 105.1623882  68.3580206  46.7880075
 105.8633341  68.9916689  46.9409469 104.6918997  68.6994938  46.0275714
 100.7591600  67.8916561  43.7211177 101.3445037  67.1460249  43.8539082
 100.5616438  68.2020518  44.6047841 103.6130255  70.9267809  38.7373620
 102.9440630  71.4113936  38.2537660 103.4743125  71.1737029  39.6516998
  95.3509255  60.4622162  42.4415621  95.3893354  59.9285752  43.2352739
  94.8449547  59.9357367  41.8226598 107.7535524  72.9611552  45.3356278
 108.3053832  73.1243174  46.1005363 108.0941717  73.5515990  44.6636303
 102.7300017  55.3086702  45.9378163 102.7941343  56.1701533  45.5255561
 102.6667137  54.6960704  45.2050521 102.2052289  57.3809835  49.5851197
 102.8324328  56.9986912  50.1988721 101.3480208  57.1624037  49.9506890
  98.9817832  59.1886264  35.5169552  99.2771273  58.2796942  35.4636606
  98.0805868  59.1674003  35.1950554 102.5112079  57.2642260  41.4997101
 101.7898665  57.8778228  41.3604574 103.3005335  57.8000025  41.4213747
 105.3138393  54.5996687  47.7737752 105.8372795  54.8458983  48.5364062
 105.0950726  55.4316722  47.3540890 100.7105674  56.8700361  35.6408877
 100.3818380  55.9897740  35.4583983 101.0645044  56.8148030  36.5285266
 103.8247497  57.1573331  36.0084355 104.1643569  57.6859252  35.2862963
 104.2719617  57.4953737  36.7842921 106.5190938  55.5410382  45.4587423
 106.1787758  54.7418195  45.8608103 105.8129944  55.8412093  44.8864256
 107.1707410  52.6259694  43.9114746 107.9933479  52.1520173  43.7893636
 107.4145473  53.4050178  44.4113432 105.8115644  55.6547953  34.2077648
 106.5324007  56.0329206  33.7041364 105.1880948  56.3736830  34.3112626
 104.6945988  59.3178815  41.7206724 104.5490569  59.6319118  42.6131006
 104.2171192  59.9363715  41.1677623 106.5542371  56.3081363  41.7687614
 106.5403940  55.4122456  41.4319912 107.2714799  56.3152027  42.4025900
  99.1691651  61.8584159  44.6594386  98.6245119  62.6343967  44.7914660
 100.0471000  62.2054964  44.5013507 105.9579267  55.1895743  37.0375184
 106.0795178  54.2612389  37.2366072 105.6681310  55.2034429  36.1253500
  99.9557672  60.9854056  47.5524543  99.2139408  61.1336691  48.1389173
  99.6350417  61.2462321  46.6891292 100.4014286  68.8719484  39.5834937
 101.2272306  68.5723256  39.2033581 100.0508338  68.1027107  40.0324726
 105.3695819  68.2245953  41.6532611 104.7475829  67.5616658  41.3534839
 106.0400686  68.2507084  40.9706259  98.6022891  66.7905811  40.5423871
  97.7654799  66.3627985  40.3607872  98.5746537  66.9838254  41.4794662
 105.4420347  56.7027741  51.2465117 105.4908502  57.5789863  50.8642886
 105.9842861  56.1605134  50.6736760 104.9309326  66.7749876  35.1291071
 105.0797447  67.4585340  34.4757744 105.7375770  66.7554966  35.6440527
 107.6719635  57.4559113  48.0011475 106.8022945  57.7492679  47.7294064
 107.9079116  58.0399558  48.7218739 102.6861959  62.8015054  36.1352140
 102.4408001  61.8977384  36.3332350 102.8557874  62.8032204  35.1931618
 101.9557607  58.5343411  33.6338302 101.2626852  58.6087766  32.9778338
 101.7109359  57.7703755  34.1559819 106.9994447  58.5308796  29.8773756
 106.0925903  58.2341908  29.9536470 107.2770428  58.2338614  29.0108043
  97.9172388  59.8515159  40.3272803  97.5975172  58.9980467  40.0347177
  97.3705816  60.0663737  41.0830770 101.6952295  62.5677600  44.0442309
 101.9138305  63.4994708  44.0630343 102.1078069  62.2085574  44.8297113
 106.5680161  58.1410806  53.4345058 106.4676887  59.0905163  53.3657149
 106.3501703  57.8129045  52.5621128 105.7693232  55.3895731  30.0185736
 106.6312396  55.7150629  30.2781553 105.9543576  54.6027227  29.5058801
  97.7860648  63.4718070  42.2965924  97.0924119  63.0572023  41.7835879
  98.5333639  63.5138607  41.6999343 106.4311431  61.5707945  52.2510120
 105.9478512  62.3708305  52.4574009 106.5172370  61.5815889  51.2977564
  99.6997390  63.4036324  40.1731939  99.6768078  63.5024011  39.2213822
 100.0098027  64.2501475  40.4949105 102.3584768  65.4612479  44.2878554
 103.3128022  65.4296422  44.2208485 102.1597292  65.0003103  45.1028780
 102.9484150  64.0313595  46.8549351 103.7677039  64.5257674  46.8784189
 103.2220958  63.1145563  46.8266919 100.7134997  71.0032099  41.3048752
 100.5789465  70.2432500  40.7386750 100.2967059  71.7272999  40.8377540
 103.8704123  71.9001416  41.5167194 103.7536507  72.8446848  41.4145885
 103.0496569  71.5974977  41.9052993  98.2019064  58.3651729  47.5541548
  98.8477928  57.8550683  48.0428774  97.9936216  59.1020411  48.1284974
 106.7222675  52.6291774  33.3065445 106.7101345  53.5733614  33.4633715
 107.6146097  52.4461919  33.0124906 104.8958637  72.5529678  44.7323123
 105.7985884  72.5853288  45.0489618 104.6696007  71.6230129  44.7469458
 106.6512239  71.3060664  41.3933201 105.7007870  71.3062526  41.2797574
 106.9544725  70.5593399  40.8769236 102.5416555  55.5119346  51.6516563
 103.4048017  55.1556151  51.8619887 101.9681966  55.1733241  52.3391967
 106.6135033  77.7113486  40.1698153 107.3006073  77.3975216  39.5819169
 106.4583162  78.6154851  39.8965405 106.1903009  75.7914079  42.4415621
 106.2287109  75.2577670  43.2352739 105.6843302  75.2649285  41.8226598
  70.6204161   5.9206176  28.1320148  70.8600759   6.5524700  28.8099166
  69.7773357   5.5694216  28.4185507  82.5360192   9.9670477  25.1082686
  81.9725057   9.8760414  24.3398974  82.4212587   9.1470381  25.5885178
  80.0824624  11.4621668  27.9466906  80.8745916  11.1212493  27.5313206
  80.3221274  11.5716643  28.8669060  88.1159751  13.6341444  20.4197151
  87.4647731  14.2195525  20.0331165  88.9104114  14.1647639  20.4792188
  82.0415378  10.7230581  20.8184285  82.8146254  10.1759569  20.6797161
  82.3940777  11.5874831  21.0298747  83.8800421  12.0506964  34.0251185
  83.5890287  12.9552595  33.9097851  84.5157405  12.0923491  34.7395254
  84.8056627   9.4283812  30.6152544  85.4020200   9.2039835  29.9009507
  84.8631599   8.6868558  31.2177992  89.5935016  11.3231876  20.9566135
  88.9580849  11.3966503  21.6687040  89.2632422  11.9125475  20.2785214
  84.0977945   8.7851354  20.6527110  83.9814203   8.1096257  21.3208194
  84.2080204   8.2983727  19.8359263  88.8390306  11.7368379  31.0200978
  88.5391029  12.6393418  30.9116785  88.4941365  11.4700562  31.8722131
  82.2902787   8.1882176  27.0537683  81.3653284   8.0558390  27.2615374
  82.5387200   8.9676395  27.5507625  79.6511598   7.8315450  27.8881472
  79.7803979   8.0849929  28.8020883  78.9709050   8.4243158  27.5686127
  83.8211085  18.5012700  23.9871946  83.7435115  19.4520525  24.0660426
  83.2172729  18.1558572  24.6446872  84.5674688   8.4826018  36.2051280
  85.3089372   9.0211062  35.9286103  83.8611673   9.1092307  36.3622832
  90.0430027  10.6255159  34.8023441  90.4513383  10.1837569  34.0578074
  89.3207289  10.0507786  35.0557634  90.3658842  11.1856349  28.5575730
  89.7367704  11.3502064  27.8551798  89.9784504  11.5997959  29.3286694
  94.2448074  12.1210787  25.9120094  93.5599112  12.5009689  25.3617127
  94.3291923  12.7306114  26.6452042  85.9186804  10.9230758  25.8225815
  86.3825149  11.2018461  25.0330438  85.6543602  10.0214202  25.6398906
  82.8110885  10.4702239  28.7605579  83.3812242  10.8989507  28.1223063
  83.4018997  10.1884824  29.4589764  92.6144833  12.6442702  30.6837795
  93.4362277  12.2422889  30.4020476  92.6107236  12.5410936  31.6353911
  86.3801437  12.1926745  32.8398505  86.4445869  12.6547152  33.6756677
  85.6712361  11.5624110  32.9680815  76.8818727   5.5567953  30.3647505
  77.1326765   6.4414963  30.6305081  77.4178275   5.3772555  29.5922597
  86.0949454  13.8594853  22.7077486  85.9595129  14.7046388  23.1362333
  86.6359267  14.0614130  21.9443419  79.5478852  11.3770291  23.2805411
  80.0603372  12.1713541  23.4310975  80.2001565  10.6796581  23.2139012
  81.3573736  14.4936047  25.3628164  81.5340365  15.4154012  25.1749148
  82.1530570  14.1794466  25.7922544  87.7217931  14.4818419  36.8377828
  87.2781785  13.6954798  36.5198732  88.3835144  14.6697570  36.1721719
  82.4805052  16.0114221  31.3638506  83.0312477  15.8831284  30.5915500
  81.6416528  16.3109110  31.0133399  89.8199169  14.7621219  34.8659229
  89.8017644  15.5830100  34.3739498  90.7419089  14.6375294  35.0909370
  86.2772223  12.2765348  35.7082737  86.8100560  11.5153637  35.4782045
  85.7486304  11.9839000  36.4506892  77.5127769   9.7058945  24.0564981
  78.3502991  10.1155953  23.8398689  77.6906036   8.7658387  24.0265175
  87.6424936  11.4051341  23.2201549  87.1146297  10.6704101  22.9074787
  87.1412438  12.1826017  22.9741518  88.6945615  17.9329058  19.1433209
  88.0207314  18.2360755  19.7518166  89.0811437  18.7358139  18.7938666
  86.9665769   9.3244146  20.7460512  86.0576989   9.0403179  20.8432982
  86.9960853   9.7443225  19.8863819  92.1985037  12.9350736  24.5151680
  91.7447364  12.0941645  24.5716871  91.5679003  13.5712134  24.8526460
  90.6417976  14.7727232  25.4501498  90.9340950  15.3332289  24.7313864
  91.1516597  15.0655793  26.2054657  77.5353940   7.0449660  24.7275715
  77.3378340   6.4519021  24.0026781  76.9800604   6.7401870  25.4451653
  85.6051601  15.5507583  26.5394951  85.5627780  15.7768430  25.6103483
  86.5214300  15.3170958  26.6880753  83.7217402  12.4270612  26.3356914
  84.5158000  11.9320933  26.1339489  83.0109094  11.8988476  25.9724620
  88.5412246  14.8088708  30.6869282  88.5949269  15.3779644  31.4546998
  87.6727028  14.9790593  30.3223319  90.7315010  11.4017057  37.2609947
  90.5800516  11.1727609  36.3440031  90.7219689  12.3587659  37.2741292
  87.5000346   8.9748970  32.2456214  88.4292406   9.1260130  32.0725181
  87.0791376   9.0632991  31.3904860  86.2988678  12.9999634  30.0154751
  86.1599764  12.6318419  30.8880689  85.5103274  13.5147274  29.8438709
  86.8936830  18.1008731  21.3580288  87.0688586  17.6296774  22.1725910
  86.2069618  18.7274497  21.5861548  87.8493893  12.3781237  27.4043589
  87.5143726  12.3382007  28.3001239  87.3497839  11.7125953  26.9313999
  81.8238137   7.7848867  32.9296170  81.6857935   7.0529106  33.5307709
  82.7343061   7.6957767  32.6480358  92.4407216  14.4336180  35.3386429
  92.3819763  13.7495400  34.6717012  92.8426735  15.1755170  34.8867055
  81.4597915  21.2498094  28.1320148  81.6994513  21.8816618  28.8099166
  80.6167112  20.8986134  28.4185507  92.4424624  12.3975764  33.5700409
  91.5551402  12.0601685  33.6926808  93.0123175  11.6658795  33.8069174
  74.0953771   8.7299855  26.8943460  74.7824811   8.4161585  26.3064475
  73.9401899   9.6341220  26.6210712  85.9725777  17.0577216  30.5361652
  85.8995949  17.8632188  31.0480956  85.5303170  17.2569182  29.7109673
  85.7615557  16.2948986  24.0464473  84.9783079  16.8370666  24.1402698
  86.4608302  16.8122966  24.4458715  88.4324461  16.9564050  32.6919811
  89.1452433  17.5911515  32.6195712  87.9414489  17.0527916  31.8759812
  90.1541987  10.8615303  24.2637102  89.2198266  10.9816765  24.0941807
  90.3318656   9.9587770  23.9997112  83.4836374  14.7058494  33.5125381
  84.1845834  15.3394977  33.6654776  83.0131489  15.0473225  32.7521021
  91.6090770  13.0476443  21.7973288  91.8850614  12.9333038  22.7067162
  90.7395269  12.6493928  21.7585461  88.2444834  17.2962794  25.4406102
  88.4267228  16.4784450  25.9033854  89.0677820  17.5130486  25.0030992
  88.5786999  16.2230979  22.7021151  89.1074766  15.7123434  22.0891313
  88.8415219  15.9073510  23.5666684  79.0804092  14.2394849  30.4456484
  79.6657529  13.4938537  30.5784388  78.8828931  14.5498805  31.3293148
  81.9342747  17.2746096  25.4618926  81.2653123  17.7592224  24.9782966
  81.7955617  17.5215316  26.3762305  73.6721747   6.8100449  29.1660927
  73.7105846   6.2764039  29.9598045  73.1662040   6.2835654  28.5471904
  86.0748016  19.3089840  32.0601585  86.6266324  19.4721461  32.8250670
  86.4154209  19.8994277  31.3881610  90.9258890  14.1351097  37.9150239
  91.4698794  14.7481055  37.4205194  90.3445735  14.6930675  38.4317252
  89.2116403  17.2571815  29.0465267  89.0867543  16.4561555  28.5376212
  89.8695494  17.7518008  28.5579237  91.2751312  15.0580835  30.6744817
  90.3281647  14.9386186  30.6023144  91.6234085  14.1703333  30.7571078
  88.2797745  14.8533551  26.8749169  88.1322707  13.9250259  27.0556739
  89.1051238  14.8753642  26.3906245  91.8831867  15.6762110  27.9614042
  92.8078414  15.4704971  27.8238493  91.7147170  15.4278511  28.8703384
  91.6727183  16.1947778  23.3176133  91.8464061  15.6294200  22.5649986
  92.1656074  16.9948672  23.1355623  77.4904143   8.2062447  31.3839692
  76.9457611   8.9822255  31.5159967  78.3683493   8.5533251  31.2258814
  92.6602355  15.5114542  20.4173032  93.3553260  16.1321235  20.6360346
  93.0025506  14.6609893  20.6925410  78.2770165   7.3332343  34.2769849
  77.5351901   7.4814978  34.8634480  77.9562909   7.5940608  33.4136599
  86.2213827  16.8748321  34.0750239  86.5300954  16.6297468  34.9472939
  87.0189309  17.0794960  33.5869109  86.2434439  19.0286231  26.3055616
  85.8039430  18.5362609  26.9988472  86.9942556  18.4859198  26.0647691
  78.7226778  15.2197772  26.3080244  79.5484798  14.9201543  25.9278887
  78.3720830  14.4505394  26.7570032  83.6908312  14.5724240  28.3777917
  83.0688321  13.9094945  28.0780145  84.3613178  14.5985372  27.6951565
  76.9235383  13.1384098  27.2669177  76.0867292  12.7106272  27.0853179
  76.8959029  13.3316541  28.2039969  94.2487685  13.5947151  37.2511561
  93.4583228  13.5771290  36.7116060  94.0121039  14.1335445  38.0060597
  83.2521818  13.1228163  21.8536378  83.4009939  13.8063628  21.2003051
  84.0588262  13.1033253  22.3685834  95.8703757  12.8636559  34.8086311
  95.5788565  13.2266540  35.6449772  95.2575888  12.1503567  34.6299643
  81.0074451   9.1493341  22.8597447  80.7620493   8.2455671  23.0577657
  81.1770366   9.1510491  21.9176925  86.7517224  15.6176294  19.3248125
  86.1791191  16.2366481  18.8718597  87.3250018  16.1675655  19.8588047
  89.9714484  15.9013444  20.4556708  90.9045157  15.8359005  20.6589583
  89.8837697  16.7369711  19.9971240  87.0202715  11.0054852  38.1264835
  87.9405724  11.1833451  38.3204881  86.9852298  10.0610898  37.9744534
  76.2384880   6.1993446  27.0518109  75.9187664   5.3458754  26.7592483
  75.6918308   6.4142024  27.8076077  80.0164788   8.9155887  30.7687616
  80.2350797   9.8472995  30.7875650  80.4290561   8.5563862  31.5542420
  76.1073140   9.8196358  29.0211231  75.4136611   9.4050310  28.5081185
  76.8546131   9.8616894  28.4244650  84.7523923   7.9186232  38.9755427
  84.2691005   8.7186592  39.1819316  84.8384862   7.9294177  38.0222871
  78.0209883   9.7514611  26.8977246  77.9980571   9.8502299  25.9459129
  78.3310519  10.5979762  27.2194412  80.6797260  11.8090766  31.0123860
  81.6340514  11.7774709  30.9453792  80.4809784  11.3481390  31.8274086
  81.2696643  10.3791882  33.5794658  82.0889532  10.8735961  33.6029495
  81.5433450   9.4623851  33.5512226  79.0347489  17.3510386  28.0294058
  78.9001957  16.5910787  27.4632056  78.6179551  18.0751286  27.5622847
  82.1916615  18.2479703  28.2412501  82.0748999  19.1925135  28.1391191
  81.3709061  17.9453265  28.6298300  89.0484949  11.7810864  39.7778996
  89.9176109  11.9551516  39.4165631  88.5691700  12.6005281  39.6554725
  83.2171129  18.9007965  31.4568429  84.1198376  18.9331575  31.7734924
  82.9908499  17.9708416  31.4714765  84.9724731  17.6538951  28.1178508
  84.0220362  17.6540813  28.0042880  85.2757217  16.9071686  27.6014543
 100.7077425  23.4899490  29.1824270 101.3455835  23.3706237  28.4787610
 100.5898268  24.4380334  29.2412222  97.5167131  23.4426918  29.1185795
  97.1785642  23.3267983  28.2306330  98.3856899  23.0418083  29.0986801
  93.3753947  25.2962394  25.1082686  92.8118812  25.2052331  24.3398974
  93.2606342  24.4762299  25.5885178  97.9986914  24.5961770  35.0772001
  97.9875555  24.2014568  34.2052504  98.1607553  23.8627842  35.6705772
  90.9218379  26.7913586  27.9466906  91.7139671  26.4504411  27.5313206
  91.1615029  26.9008561  28.8669060  98.9553505  28.9633362  20.4197151
  98.3041485  29.5487442  20.0331165  99.7497868  29.4939557  20.4792188
  92.8809133  26.0522499  20.8184285  93.6540009  25.5051486  20.6797161
  93.2334531  26.9166748  21.0298747  94.7194175  27.3798881  34.0251185
  94.4284041  28.2844512  33.9097851  95.3551159  27.4215409  34.7395254
  95.6450382  24.7575730  30.6152544  96.2413954  24.5331752  29.9009507
  95.7025353  24.0160475  31.2177992 100.2618693  21.2150944  26.2577478
 101.0481782  20.7970367  25.9067895 100.5257397  22.1197036  26.4259127
 100.4328771  26.6523794  20.9566135  99.7974603  26.7258420  21.6687040
 100.1026177  27.2417393  20.2785214  94.9371699  24.1143271  20.6527110
  94.8207957  23.4388175  21.3208194  95.0473959  23.6275645  19.8359263
  97.2803240  23.5753418  24.3573799  96.9161447  23.0484039  25.0686721
  98.1370356  23.1851887  24.1840285 103.1852541  14.8647751  31.6205065
 102.8535865  15.7343162  31.3966280 102.5898154  14.5484035  32.2999096
  99.6784060  27.0660297  31.0200978  99.3784783  27.9685336  30.9116785
  99.3335120  26.7992480  31.8722131  93.1296542  23.5174094  27.0537683
  92.2047038  23.3850308  27.2615374  93.3780955  24.2968313  27.5507625
 103.0781204  19.5842837  28.6998416 102.1698081  19.5158246  28.4057177
 103.0268800  20.0614782  29.5280241  96.8997948  21.0600976  20.3381815
  96.7797573  21.5058026  21.1767295  96.2050536  21.4086293  19.7795353
  90.4905353  23.1607367  27.8881472  90.6197734  23.4141846  28.8020883
  89.8102804  23.7535075  27.5686127  94.6604840  33.8304617  23.9871946
  94.5828870  34.7812442  24.0660426  94.0566484  33.4850490  24.6446872
  97.1522070  21.0032483  36.6433313  96.3755404  21.5626403  36.6336177
  97.7912633  21.4889266  37.1648183 104.9442850  17.7859276  30.4776289
 104.3017231  18.0791809  29.8316084 104.4397779  17.6712196  31.2829486
  95.4068442  23.8117936  36.2051280  96.1483126  24.3502980  35.9286103
  94.7005428  24.4384225  36.3622832 100.8823782  25.9547077  34.8023441
 101.2907138  25.5129487  34.0578074 100.1601043  25.3799704  35.0557634
  97.2354852  20.8919683  32.1756998  98.0816047  21.3159097  32.3191647
  97.1753489  20.2353308  32.8695561 101.2052596  26.5148267  28.5575730
 100.5761459  26.6793981  27.8551798 100.8178258  26.9289877  29.3286694
 105.0841828  27.4502705  25.9120094 104.3992866  27.8301606  25.3617127
 105.1685678  28.0598032  26.6452042 100.3854297  18.5524052  33.8338172
 100.1415229  19.3066112  33.2972448 100.6614228  18.9309399  34.6685419
 102.3392760  25.0962664  32.5115437 102.5509655  25.7394424  31.8349819
 102.2922508  24.2624981  32.0437368  99.9418989  17.7080485  29.4152010
  99.0803468  18.0061738  29.7068747  99.9681423  17.9250884  28.4833042
  96.7580558  26.2522675  25.8225815  97.2218904  26.5310378  25.0330438
  96.4937356  25.3506120  25.6398906  93.6504639  25.7994157  28.7605579
  94.2205996  26.2281425  28.1223063  94.2412751  25.5176741  29.4589764
  95.6949444  22.3745828  22.6315380  96.3973488  22.8266871  23.0989307
  95.3630073  21.7329646  23.2595274  94.1429806  20.9657584  37.0066590
  93.5128466  21.6473865  37.2401987  94.0365894  20.8540666  36.0619728
  89.4374778  20.6329380  27.9332514  88.6473832  20.8886909  27.4572625
  89.9286026  21.4477718  28.0384555 103.4538588  27.9734619  30.6837795
 104.2756032  27.5714807  30.4020476 103.4500991  27.8702854  31.6353911
  91.3889524  20.9973960  24.8915991  90.5920687  21.1092654  25.4099486
  91.1615116  21.3360612  24.0256881  97.2195191  27.5218663  32.8398505
  97.2839624  27.9839070  33.6756677  96.5106115  26.8916028  32.9680815
  87.7212481  20.8859871  30.3647505  87.9720520  21.7706881  30.6305081
  88.2572030  20.7064472  29.5922597  96.9343209  29.1886770  22.7077486
  96.7988884  30.0338306  23.1362333  97.4753021  29.3906048  21.9443419
  93.4210549  15.2678350  39.3691841  93.0277494  14.7144549  40.0439485
  94.2376689  15.5788929  39.7598358  90.3872606  26.7062208  23.2805411
  90.8997127  27.5005459  23.4310975  91.0395319  26.0088499  23.2139012
  92.1967491  29.8227965  25.3628164  92.3734119  30.7445929  25.1749148
  92.9924325  29.5086384  25.7922544  96.3378510  16.6836229  36.9612097
  97.0788223  17.2843382  36.8816560  96.5696432  15.9413867  36.4030140
  91.4819848  21.8692596  35.2390327  91.3673363  20.9677854  35.5397426
  90.6264365  22.1156293  34.8875144  98.5611685  29.8110337  36.8377828
  98.1175539  29.0246715  36.5198732  99.2228899  29.9989487  36.1721719
  93.3198806  31.3406138  31.3638506  93.8706232  31.2123202  30.5915500
  92.4810282  31.6401027  31.0133399 100.6592923  30.0913137  34.8659229
 100.6411399  30.9122018  34.3739498 101.5812843  29.9667212  35.0909370
  97.1165978  27.6057266  35.7082737  97.6494314  26.8445554  35.4782045
  96.5880059  27.3130918  36.4506892  88.3521523  25.0350863  24.0564981
  89.1896745  25.4447871  23.8398689  88.5299791  24.0950305  24.0265175
  97.8333066  17.5475644  24.8034053  96.9774663  17.1582494  24.6239691
  98.2460018  17.6267605  23.9433838  99.3632213  15.0821987  29.2025612
  98.8597008  15.0452122  28.3893418  99.6562820  15.9914730  29.2622269
  95.6075099  15.1660717  28.2091794  96.4728096  14.9703526  27.8497684
  95.6752608  14.9371069  29.1361151  98.4818690  26.7343259  23.2201549
  97.9540052  25.9996018  22.9074787  97.9806193  27.5117935  22.9741518
 103.4611536  24.9292279  28.3368596 102.8035211  25.6191541  28.4248724
 104.2651935  25.3188711  28.6802582  93.2137418  17.3962925  25.5808161
  93.7881170  17.1738106  24.8481354  93.8008400  17.4651619  26.3336762
 102.2716995  23.2836652  26.3872537 102.7848877  23.9166644  26.8894247
 102.9218219  22.6837847  26.0215897  93.5407005  19.4267386  19.6004046
  92.7044317  19.7642072  19.9213321  93.4011775  19.2916366  18.6631183
  95.5160086  14.2704174  24.3083230  94.8624498  13.9553191  23.6839845
  95.4740560  13.6479914  25.0343053  99.5339369  33.2620976  19.1433209
  98.8601068  33.5652673  19.7518166  99.9205191  34.0650056  18.7938666
  98.7497826  20.7586107  28.6330878  97.8320387  20.9801054  28.4752566
  99.1657970  20.8332418  27.7742585  99.5332874  22.1577523  23.7633558
 100.2804693  22.6698920  23.4540680  99.8024463  21.8361576  24.6237952
  97.8059524  24.6536064  20.7460512  96.8970743  24.3695097  20.8432982
  97.8354608  25.0735142  19.8863819 103.0378791  28.2642653  24.5151680
 102.5841118  27.4233563  24.5716871 102.4072758  28.9004052  24.8526460
 101.4811730  30.1019150  25.4501498 101.7734705  30.6624207  24.7313864
 101.9910351  30.3947711  26.2054657  88.3747694  22.3741578  24.7275715
  88.1772094  21.7810939  24.0026781  87.8194358  22.0693788  25.4451653
  96.3544418  22.2664684  26.8470308  96.4093028  21.3138521  26.7712784
  95.5435620  22.4224123  27.3311606  94.2936778  20.8841744  24.6060687
  93.4804643  21.1835915  25.0125879  94.7895772  20.4897433  25.3235169
  96.4445356  30.8799501  26.5394951  96.4021534  31.1060347  25.6103483
  97.3608055  30.6462876  26.6880753  99.8910989  21.3483569  33.4375581
 100.2460377  21.5755042  34.2970046 100.5383121  21.6801945  32.8152836
  93.7850853  18.4560100  30.2221922  94.4250232  18.3148859  29.5244885
  92.9528383  18.1694613  29.8460524 105.6478106  26.5378531  29.1536181
 106.0814613  26.4453821  30.0019235 106.3609687  26.5136032  28.5156197
  94.5611156  27.7562530  26.3356914  95.3551755  27.2612850  26.1339489
  93.8502849  27.2280393  25.9724620  99.3806001  30.1380626  30.6869282
  99.4343023  30.7071562  31.4546998  98.5120782  30.3082511  30.3223319
  90.8693920  21.9005612  22.4116667  89.9391508  21.8390067  22.6286629
  90.9651392  21.3781565  21.6153308  90.7879469  18.4260425  24.9994908
  91.0486286  19.3405758  24.8904069  91.6096641  17.9584867  25.1491521
  92.2604394  19.8398182  32.1693733  92.9327448  19.6315544  31.5206382
  91.4334181  19.6420268  31.7298965 106.5093656  26.5802232  31.6869067
 106.7029546  27.4848043  31.9328341 106.4094274  26.1209651  32.5207652
  98.1629966  16.4660123  34.1859394  97.5157881  17.1650072  34.0923870
  98.9330982  16.8996267  34.5535642 101.5708764  26.7308975  37.2609947
 101.4194271  26.5019527  36.3440031 101.5613444  27.6879576  37.2741292
  98.3394101  24.3040888  32.2456214  99.2686161  24.4552047  32.0725181
  97.9185131  24.3924908  31.3904860  97.1382432  28.3291552  30.0154751
  96.9993518  27.9610336  30.8880689  96.3497029  28.8439191  29.8438709
  97.7330584  33.4300649  21.3580288  97.9082340  32.9588692  22.1725910
  97.0463372  34.0566415  21.5861548  98.6887648  27.7073155  27.4043589
  98.3537480  27.6673925  28.3001239  98.1891593  27.0417871  26.9313999
  92.6631892  23.1140785  32.9296170  92.5251689  22.3821024  33.5307709
  93.5736815  23.0249685  32.6480358  95.2914192  22.8260744  32.4179850
  96.0013811  22.1853936  32.3766468  95.2483500  23.0773639  33.3406031
 103.2800971  29.7628097  35.3386429 103.2213517  29.0787318  34.6717012
 103.6820489  30.5047087  34.8867055  94.0043126  19.8125962  34.2375489
  93.4680483  19.3616700  34.8897086  93.4159835  19.9471871  33.4945954
  92.2991670  36.5790011  28.1320148  92.5388268  37.2108535  28.8099166
  91.4560866  36.2278051  28.4185507 103.2818378  27.7267681  33.5700409
 102.3945157  27.3893603  33.6926808 103.8516929  26.9950713  33.8069174
  84.9347525  24.0591773  26.8943460  85.6218565  23.7453503  26.3064475
  84.7795654  24.9633138  26.6210712  89.7382247  18.9481970  31.3228484
  89.6540436  18.3407639  30.5878894  88.9164954  19.4390988  31.3237980
  96.8119532  32.3869134  30.5361652  96.7389703  33.1924105  31.0480956
  96.3696925  32.5861100  29.7109673  96.6009311  31.6240904  24.0464473
  95.8176833  32.1662584  24.1402698  97.3002056  32.1414883  24.4458715
  99.9105961  17.4335533  26.6898679 100.4074661  16.6805496  26.3699749
  99.1392943  17.4699850  26.1241888 107.7635719  23.1375899  28.3316970
 107.7525595  24.0200614  27.9610903 106.8953098  22.7847450  28.1371507
  99.2718215  32.2855968  32.6919811  99.9846187  32.9203433  32.6195712
  98.7808244  32.3819834  31.8759812 100.9935742  26.1907220  24.2637102
 100.0592021  26.3108683  24.0941807 101.1712410  25.2879687  23.9997112
  96.4940930  19.5752916  26.4170363  96.1238718  19.0223957  27.1051269
  96.9900023  18.9711050  25.8645363  94.3230129  30.0350411  33.5125381
  95.0239588  30.6686894  33.6654776  93.8525244  30.3765143  32.7521021
 102.4484524  28.3768361  21.7973288 102.7244368  28.2624956  22.7067162
 101.5789023  27.9785846  21.7585461 102.3524956  14.4005127  28.8378038
 101.4388036  14.6309354  29.0060245 102.7818058  14.4843571  29.6892070
 102.1231415  22.5895019  31.3377932 101.4702865  22.8370926  30.6830384
 102.5011794  21.7759157  31.0040409  99.0838588  32.6254712  25.4406102
  99.2660983  31.8076368  25.9033854  99.9071574  32.8422404  25.0030992
  99.4180754  31.5522897  22.7021151  99.9468520  31.0415352  22.0891313
  99.6808974  31.2365427  23.5666684  98.1718988  23.3314830  37.8243969
  97.4959625  23.2308959  38.4946344  98.9946621  23.1754043  38.2879966
  89.9197847  29.5686766  30.4456484  90.5051283  28.8230454  30.5784388
  89.7222685  29.8790723  31.3293148  92.7736502  32.6038014  25.4618926
  92.1046877  33.0884141  24.9782966  92.6349372  32.8507234  26.3762305
  84.5115501  22.1392366  29.1660927  84.5499601  21.6055957  29.9598045
  84.0055794  21.6127572  28.5471904  96.9141770  34.6381757  32.0601585
  97.4660079  34.8013379  32.8250670  97.2547964  35.2286195  31.3881610
  91.8906264  16.9856907  32.6623470  91.9547590  17.8471738  32.2500867
  91.8273384  16.3730909  31.9295828  91.3658536  19.0580040  36.3096504
  91.9930575  18.6757117  36.9234028  90.5086455  18.8394241  36.6752196
 101.7652645  29.4643015  37.9150239 102.3092549  30.0772973  37.4205194
 101.1839490  30.0222593  38.4317252  88.1424079  20.8656469  22.2414859
  88.4377520  19.9567147  22.1881912  87.2412115  20.8444208  21.9195861
 100.0510158  32.5863733  29.0465267  99.9261297  31.7853473  28.5376212
 100.7089249  33.0809926  28.5579237  91.6718326  18.9412465  28.2242407
  90.9504912  19.5548433  28.0849881  92.4611582  19.4770230  28.1459053
 102.1145066  30.3872753  30.6744817 101.1675402  30.2678104  30.6023144
 102.4627839  29.4995251  30.7571078  94.4744640  16.2766892  34.4983059
  94.9979041  16.5229188  35.2609368  94.2556973  17.1086927  34.0786196
  89.8711921  18.5470566  22.3654184  89.5424627  17.6667945  22.1829290
  90.2251291  18.4918235  23.2530573  99.1191499  30.1825469  26.8749169
  98.9716462  29.2542176  27.0556739  99.9444993  30.2045560  26.3906245
  92.9853744  18.8343536  22.7329661  93.3249816  19.3629457  22.0108270
  93.4325864  19.1723942  23.5088228 102.7225621  31.0054028  27.9614042
 103.6472169  30.7996889  27.8238493 102.5540925  30.7570429  28.8703384
  95.6797185  17.2180587  32.1832729  95.3394005  16.4188400  32.5853409
  94.9736191  17.5182298  31.6109563  96.3313656  14.3029899  30.6360052
  97.1539726  13.8290377  30.5138943  96.5751720  15.0820383  31.1358739
  93.8552235  20.9949020  28.4452031  93.7096816  21.3089323  29.3376313
  93.3777439  21.6133920  27.8922930  95.7148618  17.9851568  28.4932921
  95.7010187  17.0892661  28.1565219  96.4321046  17.9922232  29.1271207
  97.5674749  18.4188908  30.5386048  97.3092527  19.3405979  30.5370379
  97.0359789  18.0219343  31.2286512 102.5120937  31.5239695  23.3176133
 102.6857815  30.9586118  22.5649986 103.0049829  32.3240590  23.1355623
  88.3297897  23.5354364  31.3839692  87.7851365  24.3114172  31.5159967
  89.2077247  23.8825169  31.2258814  95.1185514  16.8665948  23.7620491
  95.2401425  15.9382594  23.9611378  94.8287556  16.8804634  22.8498806
  97.9876704  14.5520859  26.8987211  98.0098401  14.6160192  25.9439190
  98.4044763  13.7125367  27.0927717 103.4996110  30.8406460  20.4173032
 104.1947015  31.4613152  20.6360346 103.8419260  29.9901811  20.6925410
  89.1163919  22.6624261  34.2769849  88.3745655  22.8106896  34.8634480
  88.7956663  22.9232526  33.4136599  97.0607582  32.2040239  34.0750239
  97.3694708  31.9589386  34.9472939  97.8583064  32.4086877  33.5869109
  97.0828194  34.3578148  26.3055616  96.6433184  33.8654527  26.9988472
  97.8336311  33.8151116  26.0647691  89.5620533  30.5489689  26.3080244
  90.3878553  30.2493461  25.9278887  89.2114585  29.7797312  26.7570032
  94.5302066  29.9016157  28.3777917  93.9082075  29.2386863  28.0780145
  95.2006933  29.9277289  27.6951565  87.7629138  28.4676016  27.2669177
  86.9261046  28.0398190  27.0853179  87.7352783  28.6608459  28.2039969
  94.6026593  18.3797946  37.9710423  94.6514749  19.2560068  37.5888193
  95.1449108  17.8375339  37.3982067 105.0881439  28.9239069  37.2511561
 104.2976983  28.9063208  36.7116060 104.8514794  29.4627362  38.0060597
 105.2079314  25.7731535  34.5644289 105.2577319  25.6081543  35.5059812
 105.0993238  24.9058794  34.1742170  94.0915573  28.4520081  21.8536378
  94.2403693  29.1355545  21.2003051  94.8982016  28.4325171  22.3685834
 102.4983077  21.7562463  35.8803596 103.3992939  21.6168928  35.5887594
 102.5731051  21.9216918  36.8201773  96.8325882  19.1329318  34.7256782
  95.9629191  19.4262884  34.4539371  97.0685362  19.7169763  35.4464046
 106.7097511  28.1928477  34.8086311 106.4182319  28.5558457  35.6449772
 106.0969642  27.4795485  34.6299643 104.9584699  23.3161091  33.2766369
 105.4338821  23.5088738  32.4685220 104.0350265  23.3720277  33.0309752
  91.8468206  24.4785258  22.8597447  91.6014248  23.5747588  23.0577657
  92.0164120  24.4802409  21.9176925  99.5364916  15.3508935  32.2422202
 100.0546860  16.0869962  31.9168691  99.1820049  15.6572928  33.0768962
  91.1163853  20.2113616  20.3583608  90.4233098  20.2857971  19.7023644
  90.8715605  19.4473960  20.8805125  97.5910978  30.9468211  19.3248125
  97.0184946  31.5658398  18.8718597  98.1643772  31.4967573  19.8588047
 103.6586368  20.1926851  31.5094674 104.6103791  20.2924949  31.5306898
 103.4889819  19.4005120  32.0192759 101.6800748  17.2782435  31.6954075
 101.0850680  17.5587447  31.0000564 101.3950444  17.7676336  32.4670816
 100.8108238  31.2305361  20.4556708 101.7438911  31.1650923  20.6589583
 100.7231451  32.0661628  19.9971240 106.1374446  23.4132971  30.6236974
 106.1050766  22.4748972  30.8096658 106.7475070  23.4917008  29.8902799
 106.2868935  20.2044014  30.6695257 105.7707983  19.4202471  30.4825186
 107.1708883  19.8762731  30.8341776  97.8596469  26.3346770  38.1264835
  98.7799479  26.5125369  38.3204881  97.8246053  25.3902816  37.9744534
  87.0778634  21.5285364  27.0518109  86.7581419  20.6750672  26.7592483
  86.5312063  21.7433942  27.8076077  90.8558542  24.2447805  30.7687616
  91.0744552  25.1764913  30.7875650  91.2684316  23.8855779  31.5542420
  95.7286407  19.8181011  40.1590365  95.6283134  20.7675368  40.0902456
  95.5107949  19.4899249  39.2866435  86.9466894  25.1488275  29.0211231
  86.2530366  24.7342228  28.5081185  87.6939885  25.1908812  28.4244650
  95.5917677  23.2478149  38.9755427  95.1084759  24.0478510  39.1819316
  95.6778616  23.2586094  38.0222871  88.8603637  25.0806529  26.8977246
  88.8374325  25.1794216  25.9459129  89.1704273  25.9271680  27.2194412
  91.5191015  27.1382684  31.0123860  92.4734268  27.1066626  30.9453792
  91.3203538  26.6773308  31.8274086  92.1090397  25.7083800  33.5794658
  92.9283286  26.2027879  33.6029495  92.3827205  24.7915768  33.5512226
  89.8741244  32.6802304  28.0294058  89.7395712  31.9202705  27.4632056
  89.4573306  33.4043203  27.5622847  93.0310370  33.5771621  28.2412501
  92.9142754  34.5217053  28.1391191  92.2102816  33.2745182  28.6298300
  87.3625311  20.0421934  34.2786855  88.0084175  19.5320888  34.7674080
  87.1542462  20.7790616  34.8530280  99.8878703  27.1102782  39.7778996
 100.7569863  27.2843434  39.4165631  99.4085455  27.9297198  39.6554725
  94.0564884  34.2299883  31.4568429  94.9592130  34.2623493  31.7734924
  93.8302254  33.3000333  31.4714765  95.8118486  32.9830869  28.1178508
  94.8614117  32.9832731  28.0042880  96.1150972  32.2363604  27.6014543
  91.7022802  17.1889551  38.3761869  92.5654264  16.8326356  38.5865194
  91.1288213  16.8503446  39.0637274 104.2147701  40.6254312  25.1082686
 103.6512566  40.5344249  24.3398974 104.1000096  39.8054216  25.5885178
 101.7612133  42.1205504  27.9466906 102.5533425  41.7796328  27.5313206
 102.0008783  42.2300479  28.8669060 103.7202887  41.3814417  20.8184285
 104.4933763  40.8343404  20.6797161 104.0728286  42.2458666  21.0298747
 105.5587930  42.7090799  34.0251185 105.2677796  43.6136430  33.9097851
 106.1944914  42.7507327  34.7395254 106.4844136  40.0867648  30.6152544
 107.0807709  39.8623670  29.9009507 106.5419108  39.3452393  31.2177992
 105.7765454  39.4435189  20.6527110 105.6601712  38.7680092  21.3208194
 105.8867713  38.9567563  19.8359263 103.9690296  38.8466011  27.0537683
 103.0440793  38.7142226  27.2615374 104.2174709  39.6260231  27.5507625
 107.7391702  36.3892893  20.3381815 107.6191328  36.8349944  21.1767295
 107.0444291  36.7378211  19.7795353 101.3299107  38.4899285  27.8881472
 101.4591488  38.7433764  28.8020883 100.6496558  39.0826993  27.5686127
 105.4998594  49.1596535  23.9871946 105.4222624  50.1104360  24.0660426
 104.8960238  48.8142407  24.6446872 106.2462197  39.1409854  36.2051280
 106.9876881  39.6794898  35.9286103 105.5399182  39.7676143  36.3622832
 107.5974313  41.5814593  25.8225815 108.0612658  41.8602296  25.0330438
 107.3331111  40.6798038  25.6398906 104.4898394  41.1286074  28.7605579
 105.0599751  41.5573343  28.1223063 105.0806506  40.8468659  29.4589764
 106.5343199  37.7037745  22.6315380 107.2367242  38.1558789  23.0989307
 106.2023827  37.0621564  23.2595274 104.9823560  36.2949502  37.0066590
 104.3522221  36.9765783  37.2401987 104.8759648  36.1832584  36.0619728
 100.2768533  35.9621298  27.9332514  99.4867587  36.2178826  27.4572625
 100.7679780  36.7769636  28.0384555 102.2283278  36.3265877  24.8915991
 101.4314441  36.4384571  25.4099486 102.0008870  36.6652529  24.0256881
 108.0588946  42.8510580  32.8398505 108.1233378  43.3130988  33.6756677
 107.3499870  42.2207945  32.9680815  98.5606236  36.2151788  30.3647505
  98.8114274  37.0998798  30.6305081  99.0965784  36.0356390  29.5922597
 107.7736963  44.5178688  22.7077486 107.6382638  45.3630224  23.1362333
 108.3146776  44.7197966  21.9443419 104.2604303  30.5970268  39.3691841
 103.8671249  30.0436466  40.0439485 105.0770443  30.9080846  39.7598358
 101.2266361  42.0354126  23.2805411 101.7390881  42.8297376  23.4310975
 101.8789074  41.3380416  23.2139012 103.0361245  45.1519882  25.3628164
 103.2127874  46.0737847  25.1749148 103.8318079  44.8378301  25.7922544
 107.1772264  32.0128147  36.9612097 107.9181977  32.6135300  36.8816560
 107.4090187  31.2705785  36.4030140 102.3213602  37.1984514  35.2390327
 102.2067117  36.2969771  35.5397426 101.4658120  37.4448211  34.8875144
 104.1592561  46.6698056  31.3638506 104.7099986  46.5415119  30.5915500
 103.3204037  46.9692945  31.0133399  99.1915278  40.3642780  24.0564981
 100.0290500  40.7739789  23.8398689  99.3693545  39.4242222  24.0265175
 106.4468853  30.4952635  28.2091794 107.3121850  30.2995443  27.8497684
 106.5146362  30.2662986  29.1361151 104.0531172  32.7254843  25.5808161
 104.6274924  32.5030024  24.8481354 104.6402155  32.7943537  26.3336762
 104.3800759  34.7559304  19.6004046 103.5438072  35.0933990  19.9213321
 104.2405529  34.6208283  18.6631183 106.3553840  29.5996092  24.3083230
 105.7018252  29.2845109  23.6839845 106.3134314  28.9771832  25.0343053
  99.2141449  37.7033496  24.7275715  99.0165849  37.1102856  24.0026781
  98.6588113  37.3985706  25.4451653 107.1938172  37.5956602  26.8470308
 107.2486782  36.6430438  26.7712784 106.3829374  37.7516041  27.3311606
 105.1330532  36.2133662  24.6060687 104.3198398  36.5127832  25.0125879
 105.6289526  35.8189351  25.3235169 107.2839110  46.2091419  26.5394951
 107.2415289  46.4352265  25.6103483 108.2001809  45.9754793  26.6880753
 104.6244607  33.7852017  30.2221922 105.2643986  33.6440776  29.5244885
 103.7922138  33.4986531  29.8460524 105.4004911  43.0854448  26.3356914
 106.1945509  42.5904768  26.1339489 104.6896603  42.5572311  25.9724620
 101.7087674  37.2297529  22.4116667 100.7785262  37.1681985  22.6286629
 101.8045146  36.7073482  21.6153308 101.6273223  33.7552342  24.9994908
 101.8880041  34.6697676  24.8904069 102.4490396  33.2876785  25.1491521
 103.0998149  35.1690099  32.1693733 103.7721202  34.9607462  31.5206382
 102.2727935  34.9712185  31.7298965 107.9776187  43.6583470  30.0154751
 107.8387273  43.2902254  30.8880689 107.1890783  44.1731109  29.8438709
 103.5025646  38.4432702  32.9296170 103.3645444  37.7112941  33.5307709
 104.4130570  38.3541603  32.6480358 106.1307947  38.1552662  32.4179850
 106.8407565  37.5145854  32.3766468 106.0877255  38.4065557  33.3406031
 104.8436881  35.1417880  34.2375489 104.3074238  34.6908618  34.8897086
 104.2553589  35.2763788  33.4945954 103.1385424  51.9081929  28.1320148
 103.3782022  52.5400453  28.8099166 102.2954621  51.5569969  28.4185507
  95.7741280  39.3883691  26.8943460  96.4612320  39.0745421  26.3064475
  95.6189408  40.2925055  26.6210712 100.5776002  34.2773887  31.3228484
 100.4934191  33.6699557  30.5878894  99.7558708  34.7682906  31.3237980
 107.6513286  47.7161051  30.5361652 107.5783458  48.5216023  31.0480956
 107.2090679  47.9153017  29.7109673 107.4403066  46.9532821  24.0464473
 106.6570588  47.4954502  24.1402698 108.1395811  47.4706801  24.4458715
 107.3334685  34.9044834  26.4170363 106.9632472  34.3515874  27.1051269
 107.8293777  34.3002967  25.8645363 105.1623883  45.3642329  33.5125381
 105.8633343  45.9978812  33.6654776 104.6918998  45.7057060  32.7521021
 100.7591601  44.8978684  30.4456484 101.3445038  44.1522372  30.5784388
 100.5616440  45.2082641  31.3293148 103.6130256  47.9329931  25.4618926
 102.9440632  48.4176059  24.9782966 103.4743126  48.1799152  26.3762305
  95.3509256  37.4684284  29.1660927  95.3893355  36.9347875  29.9598045
  94.8449549  36.9419490  28.5471904 107.7535525  49.9673675  32.0601585
 108.3053833  50.1305296  32.8250670 108.0941718  50.5578113  31.3881610
 102.7300018  32.3148825  32.6623470 102.7941345  33.1763656  32.2500867
 102.6667138  31.7022826  31.9295828 102.2052291  34.3871957  36.3096504
 102.8324330  34.0049035  36.9234028 101.3480210  34.1686159  36.6752196
  98.9817833  36.1948386  22.2414859  99.2771275  35.2859065  22.1881912
  98.0805869  36.1736126  21.9195861 102.5112080  34.2704383  28.2242407
 101.7898666  34.8840351  28.0849881 103.3005336  34.8062148  28.1459053
 105.3138394  31.6058809  34.4983059 105.8372796  31.8521106  35.2609368
 105.0950727  32.4378844  34.0786196 100.7105675  33.8762484  22.3654184
 100.3818381  32.9959863  22.1829290 101.0645046  33.8210153  23.2530573
 103.8247498  34.1635454  22.7329661 104.1643571  34.6921375  22.0108270
 104.2719619  34.5015860  23.5088228 106.5190939  32.5472505  32.1832729
 106.1787759  31.7480318  32.5853409 105.8129945  32.8474215  31.6109563
 107.1707411  29.6321817  30.6360052 107.9933480  29.1582295  30.5138943
 107.4145474  30.4112301  31.1358739 104.6945990  36.3240938  28.4452031
 104.5490570  36.6381241  29.3376313 104.2171193  36.9425838  27.8922930
 106.5542373  33.3143486  28.4932921 106.5403941  32.4184579  28.1565219
 107.2714801  33.3214149  29.1271207  99.1691652  38.8646282  31.3839692
  98.6245120  39.6406090  31.5159967 100.0471002  39.2117086  31.2258814
 105.9579268  32.1957866  23.7620491 106.0795180  31.2674512  23.9611378
 105.6681311  32.2096552  22.8498806  99.9557674  37.9916178  34.2769849
  99.2139410  38.1398814  34.8634480  99.6350418  38.2524444  33.4136599
 100.4014287  45.8781607  26.3080244 101.2272307  45.5785379  25.9278887
 100.0508339  45.1089229  26.7570032 105.3695820  45.2308075  28.3777917
 104.7475830  44.5678780  28.0780145 106.0400687  45.2569207  27.6951565
  98.6022892  43.7967933  27.2669177  97.7654801  43.3690108  27.0853179
  98.5746538  43.9900377  28.2039969 105.4420348  33.7089863  37.9710423
 105.4908503  34.5851986  37.5888193 105.9842862  33.1667256  37.3982067
 104.9309327  43.7811999  21.8536378 105.0797448  44.4647463  21.2003051
 105.7375771  43.7617089  22.3685834 107.6719636  34.4621236  34.7256782
 106.8022946  34.7554802  34.4539371 107.9079117  35.0461681  35.4464046
 102.6861960  39.8077176  22.8597447 102.4408002  38.9039506  23.0577657
 102.8557875  39.8094327  21.9176925 101.9557608  35.5405534  20.3583608
 101.2626853  35.6149889  19.7023644 101.7109360  34.7765877  20.8805125
  97.9172389  36.8577282  27.0518109  97.5975173  36.0042590  26.7592483
  97.3705817  37.0725860  27.8076077 101.6952297  39.5739723  30.7687616
 101.9138306  40.5056830  30.7875650 102.1078070  39.2147697  31.5542420
 106.5680162  35.1472928  40.1590365 106.4676889  36.0967285  40.0902456
 106.3501704  34.8191167  39.2866435  97.7860649  40.4780193  29.0211231
  97.0924120  40.0634146  28.5081185  98.5333640  40.5200730  28.4244650
 106.4311432  38.5770067  38.9755427 105.9478514  39.3770427  39.1819316
 106.5172371  38.5878012  38.0222871  99.6997391  40.4098447  26.8977246
  99.6768080  40.5086134  25.9459129 100.0098028  41.2563598  27.2194412
 102.3584769  42.4674602  31.0123860 103.3128023  42.4358544  30.9453792
 102.1597293  42.0065226  31.8274086 102.9484151  41.0375718  33.5794658
 103.7677040  41.5319797  33.6029495 103.2220959  40.1207686  33.5512226
 100.7134998  48.0094221  28.0294058 100.5789466  47.2494622  27.4632056
 100.2967060  48.7335121  27.5622847 103.8704124  48.9063538  28.2412501
 103.7536508  49.8508971  28.1391191 103.0496570  48.6037100  28.6298300
  98.2019066  35.3713852  34.2786855  98.8477929  34.8612806  34.7674080
  97.9936217  36.1082533  34.8530280 104.8958638  49.5591800  31.4568429
 105.7985885  49.5915410  31.7734924 104.6696008  48.6292251  31.4714765
 106.6512240  48.3122787  28.1178508 105.7007871  48.3124648  28.0042880
 106.9544726  47.5655521  27.6014543 102.5416557  32.5181469  38.3761869
 103.4048018  32.1618274  38.5865194 101.9681967  32.1795364  39.0637274
 106.6135034  54.7175608  26.8943460 107.3006074  54.4037339  26.3064475
 106.4583163  55.6216973  26.6210712 106.1903010  52.7976202  29.1660927
 106.2287110  52.2639793  29.9598045 105.6843303  52.2711407  28.5471904
   1.4009709  51.9571243  86.7970615   0.7497688  52.5425323  86.4104628
   2.1954071  52.4877438  86.8565652   2.7074896  44.2088825  92.6350942
   3.4937986  43.7908248  92.2841359   2.9713601  45.1134917  92.8032590
   2.8784974  49.6461675  87.3339599   2.2430807  49.7196301  88.0460504
   2.5482380  50.2355274  86.6558678   8.1083324  44.1464058  93.5383921
   8.8408496  43.5763275  93.7721750   7.3522679  43.7585658  93.9790426
   5.0439217  44.5260330  87.5435612   5.9557073  44.7587716  87.3683310
   4.5348864  45.1097374  86.9810691   3.6508800  49.5086148  94.9349194
   3.0217662  49.6731862  94.2325262   3.2634462  49.9227758  95.7060158
   7.5298032  50.4440586  92.2893558   6.8449070  50.8239487  91.7390591
   7.6141881  51.0535913  93.0225505   5.8994791  50.9672500  97.0611259
   6.7212235  50.5652688  96.7793940   5.8957194  50.8640735  98.0127374
  13.9900784  47.3111249  93.4096230  13.2364493  46.7418647  93.2540234
  14.1248325  47.2773913  94.3566865   2.6942158  45.6963824  86.1222278
   2.1788782  46.4668429  86.3610665   2.4219467  45.0228960  86.7455339
   7.6676433  48.4496179  88.0575451   6.8905875  48.1107338  87.6130614
   8.3467914  48.4548802  87.3830416   2.4828462  43.5690916  87.9482059
   2.1778597  43.8837065  88.7992202   3.4358904  43.6472336  87.9909392
   5.9067740  47.9230160  94.7142059   5.2491414  48.6129421  94.8022188
   6.7108139  48.3126592  95.0576046   4.7173198  46.2774533  92.7646001
   5.2305080  46.9104525  93.2667711   5.3674422  45.6775728  92.3989361
   1.9795573  56.2558857  85.5206672   1.3057271  56.5590554  86.1291630
   2.3661395  57.0587937  85.1712129   1.9789077  45.1515404  90.1407022
   2.7260896  45.6636801  89.8314144   2.2480666  44.8299457  91.0011416
   5.4834995  51.2580534  90.8925144   5.0297322  50.4171444  90.9490334
   4.8528961  51.8941933  91.2299924   4.4267914  42.1872520  92.1225811
   3.6890671  41.6749906  92.4536054   4.6794688  41.7472902  91.3109088
   3.9267934  53.0957031  91.8274962   4.2190908  53.6562088  91.1087328
   4.4366554  53.3885592  92.5828121   8.0664930  47.4639885  90.5198373
   7.9282828  47.6541481  89.5919563   7.7101149  48.2259268  90.9766425
   8.0934309  49.5316412  95.5309645   8.5270816  49.4391702  96.3792699
   8.8065890  49.5073913  94.8929661   1.8262204  53.1318507  97.0642745
   1.8799226  53.7009443  97.8320461   0.9576986  53.3020392  96.6996783
   1.1343851  50.7011036  93.7817053   0.7993683  50.6611806  94.6774703
   0.6347797  50.0355752  93.3087463   4.0703043  48.0467070  84.0554112
   3.4532213  47.3213898  83.9587165   3.6019531  48.8076430  83.7121187
  10.2091922  46.1313780  94.7090434  10.1981798  47.0138495  94.3384367
   9.3409301  45.7785331  94.5144971   3.4391945  49.1845101  90.6410566
   2.5048224  49.3046564  90.4715270   3.6168614  48.2817568  90.3770576
   6.8264497  45.0262421  91.1760600   7.2924949  45.8590412  91.1020903
   7.2771997  44.5607402  91.8805859   4.8940728  51.3706242  88.1746752
   5.1700572  51.2562837  89.0840626   4.0245226  50.9723727  88.1358925
   1.5294792  55.6192593  91.8179566   1.7117186  54.8014249  92.2807318
   2.3527778  55.8360285  91.3804456   1.8636957  54.5460778  89.0794614
   2.3924724  54.0353233  88.4664776   2.1265177  54.2303308  89.9440147
   2.4966361  55.5801614  95.4238731   2.3717501  54.7791354  94.9149676
   3.1545452  56.0747807  94.9352701   4.5601269  53.3810634  97.0518281
   3.6131605  53.2615985  96.9796608   4.9084043  52.4933132  97.1344542
   1.5647703  53.1763350  93.2522633   1.4172665  52.2480057  93.4330203
   2.3901196  53.1983441  92.7679708   5.1681825  53.9991909  94.3387506
   6.0928372  53.7934770  94.2011957   4.9997128  53.7508310  95.2476847
   1.5609217  41.0301188  88.2454750   1.7772831  41.9125825  87.9443578
   1.0803284  40.6387401  87.5160392   4.9577141  54.5177576  89.6949597
   5.1314018  53.9523999  88.9423450   5.4506032  55.3178471  89.5129087
  10.8116532  47.2813999  91.3139897  11.2547678  46.5321324  90.9159020
   9.9343042  47.2724135  90.9313629   5.9452313  53.8344341  86.7946496
   6.6403218  54.4551033  87.0133810   6.2875463  52.9839692  87.0698873
   7.8443736  51.2844046  88.3233826   8.3695060  51.6231319  87.5983146
   7.7566089  50.3491061  88.1396961  10.3549397  48.7519237  93.7062345
  11.1896288  49.1909041  93.8699905  10.4908525  48.2757891  92.8870590
   3.2564442  54.2243242  86.8330171   4.1895115  54.1588804  87.0363047
   3.1687654  55.0599509  86.3744704   5.8852458  53.5409113  83.7934119
   5.8066090  53.2068976  84.6869877   6.7062125  54.0330881  83.7925591
  14.4007199  47.4686859  96.1416474  15.1310588  47.2072147  96.7024178
  13.7914145  46.7315581  96.1818542  12.4822496  45.6094721  96.7390926
  11.7555660  45.4750686  96.1307417  12.0669783  45.9171550  97.5447644
   5.5288318  38.9332343  90.2639729   4.9486988  39.5917147  89.8817781
   5.2624251  38.1109688  89.8527147   4.3113197  41.0932433  89.3196077
   3.4239052  41.3782084  89.1016272   4.7267186  40.9326197  88.4723354
   7.6627733  41.1178954  93.0350417   8.4388123  41.6075407  93.3075033
   6.9375867  41.5437009  93.4922286  10.1000291  41.8306574  94.0924357
  10.6944782  41.5902310  93.3817665  10.1726875  41.1113704  94.7197893
   3.4556410  50.8577108  83.4144097   4.1592260  51.0627111  84.0301753
   2.7319059  51.4253870  83.6793181   4.2854220  46.6086969  89.5346367
   4.2289422  47.0655521  88.6954000   4.8382563  45.8477654  89.3569210
   8.0959026  42.3976701  90.3596487   7.8395960  41.9973337  91.1904695
   7.4711894  43.1120495  90.2346626  12.4071364  45.1372774  92.8667778
  11.8470922  45.2065964  93.6399340  11.8014867  44.9613759  92.1467275
   5.3643107  51.2959637  85.4642557   6.1988711  50.8640836  85.2820032
   5.2027450  51.1241651  86.3919452   5.0189000  47.7991751  86.8298897
   4.9637803  47.6336022  85.8887341   4.3935055  48.5067784  86.9861086
  13.9927382  61.8129288  95.5597734  14.6305792  61.6936036  94.8561074
  13.8748225  62.7610132  95.6185686  10.8017089  61.7656717  95.4959259
  10.4635600  61.6497781  94.6079794  11.6706857  61.3647882  95.4760265
   6.6603904  63.6192193  91.4856150   6.0968770  63.5282130  90.7172437
   6.5456299  62.7992097  91.9658642  11.2836872  62.9191568 101.4545464
  11.2725513  62.5244367 100.5825968  11.4457511  62.1857641 102.0479236
   4.2068336  65.1143385  94.3240370   4.9989628  64.7734209  93.9086669
   4.4464987  65.2238360  95.2442523  12.2403463  67.2863161  86.7970615
  11.5891443  67.8717241  86.4104628  13.0347826  67.8169356  86.8565652
   6.1659090  64.3752298  87.1957749   6.9389966  63.8281285  87.0570625
   6.5184489  65.2396547  87.4072210   8.9300340  63.0805529  96.9926008
   9.5263912  62.8561551  96.2782971   8.9875311  62.3390274  97.5951456
   8.5025368  60.5344964  84.8276199   8.7550889  60.0126485  84.0659662
   7.5649927  60.3711109  84.9302882  13.5468651  59.5380742  92.6350942
  14.3331740  59.1200165  92.2841359  13.8107355  60.4426834  92.8032590
  13.7178728  64.9753593  87.3339599  13.0824561  65.0488219  88.0460504
  13.3876135  65.5647191  86.6558678  18.9477078  59.4755975  93.5383921
  19.6802250  58.9055192  93.7721750  18.1916434  59.0877576  93.9790426
   8.2221657  62.4373070  87.0300574   8.1057915  61.7617973  87.6981658
   8.3323917  61.9505444  86.2132727  10.5653198  61.8983217  90.7347263
  10.2011405  61.3713838  91.4460185  11.4220314  61.5081686  90.5613748
  16.4702498  53.1877550  97.9978529  16.1385823  54.0572961  97.7739744
  15.8748112  52.8713834  98.6772560  10.2058685  56.9273117  85.7308612
  10.3733087  57.7953353  86.0979083  10.0155854  57.0900398  84.8069901
  12.9634018  65.3890096  97.3974442  12.6634741  66.2915134  97.2890249
  12.6185077  65.1222279  98.2495595   6.4146499  61.8403892  93.4311146
   5.4896996  61.7080107  93.6388838   6.6630913  62.6198112  93.9281089
  16.3631162  57.9072636  95.0771879  15.4548039  57.8388044  94.7830640
  16.3118758  58.3844581  95.9053705  10.1847906  59.3830774  86.7155278
  10.0647531  59.8287825  87.5540759   9.4900494  59.7316092  86.1568817
   3.7755310  61.4837166  94.2654935   3.9047692  61.7371645  95.1794347
   3.0952762  62.0764874  93.9459591   7.9454798  72.1534416  90.3645410
   7.8678827  73.1042241  90.4433890   7.3416441  71.8080288  91.0220336
  18.2292808  56.1089074  96.8549753  17.5867188  56.4021607  96.2089548
  17.7247737  55.9941994  97.6602950  15.8832972  59.8552247  87.5435612
  16.7950828  60.0879634  87.3683310  15.3742619  60.4389292  86.9810691
  14.1673739  64.2776875 101.1796905  14.5757096  63.8359286 100.4351537
  13.4451001  63.7029503 101.4331098  10.5204810  59.2149482  98.5530462
  11.3666005  59.6388896  98.6965111  10.4603447  58.5583106  99.2469025
  14.4902554  64.8378066  94.9349194  13.8611417  65.0023780  94.2325262
  14.1028216  65.2519675  95.7060158  18.3691786  65.7732504  92.2893558
  17.6842824  66.1531405  91.7390591  18.4535635  66.3827830  93.0225505
  13.6704255  56.8753850 100.2111636  13.4265187  57.6295911  99.6745911
  13.9464185  57.2539198 101.0458883  15.6242718  63.4192463  98.8888901
  15.8359613  64.0624223  98.2123282  15.5772466  62.5854779  98.4210831
  13.2268947  56.0310283  95.7925473  12.3653426  56.3291537  96.0842211
  13.2531381  56.2480682  94.8606506  10.0430516  64.5752474  92.1999279
  10.5068862  64.8540177  91.4103902   9.7787314  63.6735918  92.0172370
   6.9354597  64.1223955  95.1379042   7.5055954  64.5511224  94.4996527
   7.5262709  63.8406540  95.8363228   8.9799402  60.6975626  89.0088844
   9.6823445  61.1496670  89.4762771   8.6480031  60.0559445  89.6368737
   2.7224736  58.9559179  94.3105978   1.9323790  59.2116707  93.8346088
   3.2135983  59.7707517  94.4158018  16.7388546  66.2964418  97.0611259
  17.5605989  65.8944605  96.7793940  16.7350948  66.1932652  98.0127374
   4.6739481  59.3203758  91.2689454   3.8770645  59.4322452  91.7872950
   4.4465074  59.6590410  90.4030345  24.8294539  62.6403167  93.4096230
  24.0758247  62.0710565  93.2540234  24.9642080  62.6065831  94.3566865
  10.2193167  67.5116569  89.0850949  10.0838841  68.3568105  89.5135797
  10.7602979  67.7135847  88.3216883   3.6722564  65.0292007  89.6578874
   4.1847085  65.8235257  89.8084439   4.3245277  64.3318297  89.5912476
   5.4817449  68.1457763  91.7401628   5.6584077  69.0675728  91.5522612
   6.2774282  67.8316182  92.1696007  13.9442881  68.4142935 101.2432693
  13.9261356  69.2351816 100.7512962  14.8662801  68.2897011 101.4682834
  13.5685630  51.0347131  97.6149843  13.2249900  51.9248772  97.5388953
  13.9364593  50.8448788  96.7519428   1.6371481  63.3580661  90.4338445
   2.4746703  63.7677670  90.2172153   1.8149749  62.4180103  90.4038639
  13.5335913  61.0255742  86.1222278  13.0182536  61.7960347  86.3610665
  13.2613221  60.3520878  86.7455339  11.1183024  55.8705443  91.1807516
  10.2624620  55.4812293  91.0013155  11.5309976  55.9497403  90.3207302
  12.6482171  53.4051786  95.5799076  12.1446966  53.3681921  94.7666881
  12.9412778  54.3144529  95.6395733   8.8925057  53.4890516  94.5865258
   9.7578053  53.2933324  94.2271147   8.9602565  53.2600867  95.5134615
  18.5070187  63.7788097  88.0575451  17.7299630  63.4399256  87.6130614
  19.1861668  63.7840720  87.3830416  13.3222216  58.8982834  87.9482059
  13.0172352  59.2128983  88.7992202  14.2752658  58.9764254  87.9909392
  11.7668648  65.0573057  89.5975013  11.2390010  64.3225817  89.2848251
  11.2656151  65.8347734  89.3514981  16.7461494  63.2522078  94.7142059
  16.0885168  63.9421339  94.8022188  17.5501893  63.6418510  95.0576046
   6.4987376  55.7192724  91.9581625   7.0731128  55.4967905  91.2254818
   7.0858358  55.7881418  92.7110226  15.5566953  61.6066450  92.7646001
  16.0698835  62.2396442  93.2667711  16.2068177  61.0067646  92.3989361
   6.8256963  57.7497185  85.9777510   5.9894275  58.0871871  86.2986785
   6.6861732  57.6146164  85.0404647   8.8010043  52.5933972  90.6856694
   8.1474456  52.2782990  90.0613309   8.7590517  51.9709713  91.4116517
   9.9121248  62.8753268  82.6009986   9.0048310  62.6442521  82.8001135
  10.4092280  62.0790887  82.7883968  12.8189327  71.5850775  85.5206672
  12.1451026  71.8882471  86.1291630  13.2055149  72.3879855  85.1712129
  12.0347784  59.0815906  95.0104342  11.1170345  59.3030853  94.8526030
  12.4507927  59.1562216  94.1516049  12.8182831  60.4807322  90.1407022
  13.5654650  60.9928719  89.8314144  13.0874421  60.1591374  91.0011416
  11.0909482  62.9765862  87.1233976  10.1820701  62.6924895  87.2206446
  11.1204565  63.3964941  86.2637283  16.3228749  66.5872452  90.8925144
  15.8691076  65.7463362  90.9490334  15.6922716  67.2233850  91.2299924
  15.2661669  57.5164438  92.1225811  14.5284425  57.0041824  92.4536054
  15.5188442  57.0764820  91.3109088  14.7661688  68.4248949  91.8274962
  15.0584663  68.9854006  91.1087328  15.2760309  68.7177510  92.5828121
  15.3673296  50.2940690  92.7167581  15.6732173  49.4338053  92.4293496
  16.0925901  50.8858310  92.5166574   1.6597652  60.6971377  91.1049178
   1.4622052  60.1040737  90.3800245   1.1044316  60.3923587  91.8225117
   9.6394376  60.5894483  93.2243772   9.6942985  59.6368319  93.1486248
   8.8285578  60.7453922  93.7085070  10.7885569  64.5174606  84.4622055
  10.3504999  63.8010465  84.0027692  11.5296010  64.7450721  83.9007146
   7.5786736  59.2071543  90.9834150   6.7654601  59.5065713  91.3899343
   8.0745730  58.8127232  91.7008633   9.7295313  69.2029300  92.9168415
   9.6871492  69.4290146  91.9876947  10.6458012  68.9692674  93.0654216
  13.1760947  59.6713367  99.8149044  13.5310335  59.8984840 100.6743510
  13.8233078  60.0031744  99.1926300  18.9058684  62.7931803  90.5198373
  18.7676583  62.9833399  89.5919563  18.5494903  63.5551186  90.9766425
   7.0700810  56.7789898  96.5995385   7.7100190  56.6378657  95.9018349
   6.2378341  56.4924412  96.2233987  18.9328064  64.8608330  95.5309645
  19.3664570  64.7683619  96.3792699  19.6459644  64.8365831  94.8929661
   7.8461114  66.0792329  92.7130378   8.6401713  65.5842649  92.5112953
   7.1352807  65.5510192  92.3498083  12.6655959  68.4610424  97.0642745
  12.7192981  69.0301361  97.8320461  11.7970740  68.6312309  96.6996783
   4.1543878  60.2235410  88.7890131   3.2241466  60.1619866  89.0060093
   4.2501350  59.7011363  87.9926772   4.0729427  56.7490223  91.3768372
   4.3336244  57.6635557  91.2677533   4.8946599  56.2814666  91.5264985
   5.5454352  58.1627980  98.5467197   6.2177406  57.9545343  97.8979846
   4.7184139  57.9650066  98.1072429  19.7943613  64.9032031  98.0642530
  19.9879503  65.8077841  98.3101805  19.6944232  64.4439450  98.8981115
  11.4479924  54.7889921 100.5632858  10.8007839  55.4879871 100.4697334
  12.2180939  55.2226065 100.9309106  11.6244058  62.6270686  98.6229677
  12.5536118  62.7781846  98.4498645  11.2035088  62.7154707  97.7678324
  10.4232390  66.6521351  96.3928215  10.2843476  66.2840135  97.2654153
   9.6346986  67.1668990  96.2212173  11.0180542  71.7530447  87.7353751
  11.1932298  71.2818490  88.5499374  10.3313330  72.3796213  87.9635012
  11.9737605  66.0302953  93.7817053  11.6387438  65.9903723  94.6774703
  11.4741551  65.3647669  93.3087463  14.9096797  63.3758988  84.0554112
  14.2925968  62.6505816  83.9587165  14.4413285  64.1368348  83.7121187
   8.5764150  61.1490543  98.7953314   9.2863769  60.5083735  98.7539932
   8.5333458  61.4003438  99.7179494  16.5650929  68.0857896 101.7159893
  16.5063475  67.4017116 101.0490476  16.9670447  68.8276886 101.2640519
   7.2893084  58.1355761 100.6148953   6.7530441  57.6846499 101.2670549
   6.7009792  58.2701669  99.8719417   6.6995343  57.5944412  83.1775417
   5.8224809  57.4733213  82.8137663   7.1753096  56.8030490  82.9254305
  16.5668336  66.0497480  99.9473872  15.6795115  65.7123402 100.0700271
  17.1366887  65.3180511 100.1842638   3.0232205  57.2711768  97.7001948
   2.9390394  56.6637438  96.9652357   2.2014912  57.7620787  97.7011444
   9.8859269  69.9470702  90.4237937   9.1026791  70.4892383  90.5176162
  10.5852014  70.4644682  90.8232178  13.1955919  55.7565332  93.0672143
  13.6924619  55.0035294  92.7473213  12.4242901  55.7929649  92.5015352
  21.0485676  61.4605697  94.7090434  21.0375553  62.3430413  94.3384367
  20.1803056  61.1077248  94.5144971  14.2785700  64.5137019  90.6410566
  13.3441979  64.6338482  90.4715270  14.4562368  63.6109486  90.3770576
   9.7790888  57.8982715  92.7943827   9.4088675  57.3453755  93.4824733
  10.2749980  57.2940848  92.2418827  17.6658251  60.3554338  91.1760600
  18.1318703  61.1882330  91.1020903  18.1165752  59.8899320  91.8805859
  15.7334482  66.6998160  88.1746752  16.0094326  66.5854754  89.0840626
  14.8638981  66.3015645  88.1358925  15.6374914  52.7234925  95.2151501
  14.7237994  52.9539152  95.3833708  16.0668015  52.8073369  96.0665534
  15.4081372  60.9124817  97.7151395  14.7552823  61.1600725  97.0603848
  15.7861752  60.0988956  97.3813873  12.3688546  70.9484510  91.8179566
  12.5510941  70.1306166  92.2807318  13.1921532  71.1652203  91.3804456
  12.7030712  69.8752696  89.0794614  13.2318478  69.3645150  88.4664776
  12.9658931  69.5595226  89.9440147   6.0586460  70.9267812  91.8392390
   5.3896835  71.4113940  91.3556430   5.9199329  71.1737033  92.7535769
   5.1756221  55.3086706  99.0396933   5.2397548  56.1701537  98.6274331
   5.1123342  54.6960707  98.3069292   1.4274037  59.1886267  88.6188322
   1.7227478  58.2796946  88.5655376   0.5262073  59.1674007  88.2969325
  13.3360116  70.9093531  95.4238731  13.2111255  70.1083271  94.9149676
  13.9939207  71.4039725  94.9352701   4.9568284  57.2642264  94.6015871
   4.2354870  57.8778232  94.4623344   5.7461540  57.8000029  94.5232517
  15.3995024  68.7102551  97.0518281  14.4525359  68.5907903  96.9796608
  15.7477797  67.8225049  97.1344542   7.7594597  54.5996690 100.8756523
   8.2828999  54.8458987 101.6382832   7.5406931  55.4316725 100.4559660
   3.1561878  56.8700365  88.7427647   2.8274585  55.9897744  88.5602753
   3.5101249  56.8148034  89.6304037  12.4041457  68.5055268  93.2522633
  12.2566420  67.5771975  93.4330203  13.2294951  68.5275358  92.7679708
   6.2703702  57.1573335  89.1103125   6.6099774  57.6859256  88.3881734
   6.7175822  57.4953741  89.8861692  16.0075579  69.3283826  94.3387506
  16.9322127  69.1226688  94.2011957  15.8390882  69.0800228  95.2476847
   8.9647142  55.5410385  98.5606193   8.6243963  54.7418199  98.9626873
   8.2586149  55.8412096  97.9883026   9.6163614  52.6259698  97.0133516
  10.4389683  52.1520176  96.8912407   9.8601678  53.4050182  97.5132203
   8.2571849  55.6547956  87.3096418   8.9780211  56.0329209  86.8060135
   7.6337153  56.3736833  87.4131396  12.4002972  56.3593105  88.2454750
  12.6166586  57.2417743  87.9443578  11.9197039  55.9679319  87.5160392
   7.1402193  59.3178819  94.8225495   6.9946774  59.6319122  95.7149776
   6.6627397  59.9363719  94.2696393   8.9998576  56.3081367  94.8706384
   8.9860145  55.4122460  94.5338682   9.7171004  56.3152030  95.5044670
  10.8524707  56.7418707  96.9159512  10.5942484  57.6635777  96.9143842
  10.3209747  56.3449141  97.6059976  15.7970895  69.8469494  89.6949597
  15.9707773  69.2815916  88.9423450  16.2899787  70.6470389  89.5129087
   8.4035472  55.1895747  90.1393955   8.5251383  54.2612393  90.3384842
   8.1137514  55.2034433  89.2272270  11.2726662  52.8750657  93.2760674
  11.2948359  52.9389990  92.3212654  11.6894721  52.0355166  93.4701181
  21.6510286  62.6105917  91.3139897  22.0941432  61.8613242  90.9159020
  20.7736797  62.6016053  90.9313629  16.7846068  69.1636258  86.7946496
  17.4796972  69.7842951  87.0133810  17.1269218  68.3131609  87.0698873
  18.6837491  66.6135964  88.3233826  19.2088815  66.9523237  87.5983146
  18.5959843  65.6782979  88.1396961  10.3678152  72.6807947  92.6829079
   9.9283142  72.1884326  93.3761936  11.1186269  72.1380915  92.4421155
   7.8152024  68.2245956  94.7551381   7.1932033  67.5616661  94.4553609
   8.4856891  68.2507088  94.0725029  18.3731397  67.2468867 103.6285024
  17.5826941  67.2293006 103.0889524  18.1364752  67.7857161 104.3834061
  18.4929272  64.0961334 100.9417753  18.5427277  63.9311341 101.8833276
  18.3843195  63.2288593 100.5515634   7.3765531  66.7749879  88.2309842
   7.5253651  67.4585344  87.5776514   8.1831974  66.7554970  88.7459297
  15.7833034  60.0792262 102.2577059  16.6842897  59.9398727 101.9661057
  15.8581009  60.2446717 103.1975237  10.1175840  57.4559117 101.1030246
   9.2479149  57.7492683 100.8312834  10.3535320  58.0399562 101.8237509
  19.9947469  66.5158275 101.1859774  19.7032277  66.8788256 102.0223235
  19.3819600  65.8025284 101.0073106  21.1943151  64.0811155  93.7062345
  22.0290043  64.5200959  93.8699905  21.3302280  63.6049808  92.8870590
  18.2434657  61.6390890  99.6539832  18.7188779  61.8318536  98.8458684
  17.3200222  61.6950076  99.4083216   5.1318164  62.8015057  89.2370911
   4.8864206  61.8977387  89.4351121   5.3014078  62.8032208  88.2950389
  12.8214874  53.6738733  98.6195666  13.3396817  54.4099760  98.2942155
  12.4670006  53.9802727  99.4542425   4.4013811  58.5343415  86.7357072
   3.7083056  58.6087770  86.0797108   4.1565563  57.7703758  87.2578589
  13.0727468  50.0939016  94.1396563  13.3529221  49.4262205  94.7656989
  13.8578075  50.2868112  93.6271227  10.8760936  69.2698010  85.7021589
  10.3034903  69.8888197  85.2492061  11.4493730  69.8197372  86.2361511
  16.9436326  58.5156650  97.8868138  17.8953749  58.6154748  97.9080362
  16.7739776  57.7234919  98.3966222  14.9650706  55.6012233  98.0727539
  14.3700638  55.8817246  97.3774027  14.6800402  56.0906134  98.8444280
  14.0958196  69.5535160  86.8330171  15.0288869  69.4880722  87.0363047
  14.0081409  70.3891427  86.3744704  16.7246213  68.8701030  83.7934119
  16.6459844  68.5360894  84.6869877  17.5455879  69.3622798  83.7925591
  19.4224404  61.7362770  97.0010438  19.3900724  60.7978770  97.1870121
  20.0325028  61.8146806  96.2676262  11.2607735  60.6058823  83.0437642
  12.2066839  60.4765031  83.1126060  10.8821980  59.8673485  83.5207070
  19.5718892  58.5273813  97.0468721  19.0557941  57.7432270  96.8598650
  20.4558841  58.1992530  97.2115240  17.2329619  52.2714829  93.0064533
  17.0354440  51.9629917  93.8907865  17.8429325  52.9976468  93.1362463
  25.2400954  62.7978777  96.1416474  25.9704342  62.5364065  96.7024178
  24.6307899  62.0607498  96.1818542  23.3216251  60.9386639  96.7390926
  22.5949414  60.8042604  96.1307417  22.9063538  61.2463468  97.5447644
   9.4450652  58.5308799  82.9792527   8.5382107  58.2341912  83.0555240
   9.7226633  58.2338617  82.1126813  11.0612718  53.0745689  89.1336768
  10.2513446  52.7292774  89.5092014  11.7497135  52.7653233  89.7224380
  12.9903266  52.1523736  90.7561065  13.5434304  52.5719189  91.4151088
  13.2273352  51.2259484  90.7984021   8.2149437  55.3895734  83.1204506
   9.0768600  55.7150633  83.3800323   8.3999781  54.6027230  82.6077572
  16.3682073  54.2624261  90.2639729  15.7880742  54.9209065  89.8817781
  16.1018006  53.4401605  89.8527147  14.8185639  53.6629318  92.4661049
  15.3185418  53.7745853  91.6575368  15.4621247  53.3590371  93.1061858
   2.1453595  63.4036328  93.2750710   2.1224283  63.5024015  92.3232593
   2.4554231  64.2501479  93.5967876  15.1506951  56.4224351  89.3196077
  14.2632806  56.7074002  89.1016272  15.5660940  56.2618114  88.4723354
  18.5021487  56.4470872  93.0350417  19.2781877  56.9367325  93.3075033
  17.7769621  56.8728926  93.4922286  20.9394046  57.1598491  94.0924357
  21.5338537  56.9194227  93.3817665  21.0120629  56.4405622  94.7197893
  14.2950164  66.1869026  83.4144097  14.9986015  66.3919028  84.0301753
  13.5712813  66.7545788  83.6793181  15.1247975  61.9378887  89.5346367
  15.0683176  62.3947438  88.6954000  15.6776317  61.1769572  89.3569210
  18.9352781  57.7268619  90.3596487  18.6789715  57.3265255  91.1904695
  18.3105649  58.4412413  90.2346626  23.2465119  60.4664692  92.8667778
  22.6864676  60.5357881  93.6399340  22.6408622  60.2905677  92.1467275
  16.2036862  66.6251555  85.4642557  17.0382466  66.1932753  85.2820032
  16.0421205  66.4533569  86.3919452  15.8582754  63.1283668  86.8298897
  15.8031558  62.9627940  85.8887341  15.2328809  63.8359701  86.9861086
   9.1678880  52.6291777  86.4084215   9.1557549  53.5733617  86.5652486
  10.0602301  52.4461923  86.1143676   9.0968443  71.3060668  94.4951972
   8.1464074  71.3062529  94.3816344   9.4000930  70.5593402  93.9788006
  12.9830999  49.2234554  90.6630152  12.2163395  48.6693041  90.8086834
  13.3941704  49.2956423  91.5244303  24.8321137  77.1421206  95.5597734
  25.4699547  77.0227953  94.8561074  24.7141980  78.0902050  95.6185686
  21.6410843  77.0948634  95.4959259  21.3029355  76.9789699  94.6079794
  22.5100611  76.6939799  95.4760265  17.4997659  78.9484111  91.4856150
  16.9362524  78.8574048  90.7172437  17.3850054  78.1284015  91.9658642
  22.1230626  78.2483486 101.4545464  22.1119267  77.8536284 100.5825968
  22.2851266  77.5149559 102.0479236  15.0462091  80.4435302  94.3240370
  15.8383383  80.1026127  93.9086669  15.2858741  80.5530277  95.2442523
  23.0797218  82.6155078  86.7970615  22.4285197  83.2009159  86.4104628
  23.8741580  83.1461273  86.8565652  17.0052845  79.7044215  87.1957749
  17.7783721  79.1573203  87.0570625  17.3578244  80.5688465  87.4072210
  19.7694094  78.4097446  96.9926008  20.3657666  78.1853469  96.2782971
  19.8269066  77.6682192  97.5951456  19.3419123  75.8636882  84.8276199
  19.5944643  75.3418403  84.0659662  18.4043682  75.7003027  84.9302882
  24.3862405  74.8672660  92.6350942  25.1725495  74.4492083  92.2841359
  24.6501110  75.7718752  92.8032590  24.5572483  80.3045510  87.3339599
  23.9218316  80.3780137  88.0460504  24.2269889  80.8939109  86.6558678
  29.7870833  74.8047893  93.5383921  30.5196005  74.2347110  93.7721750
  29.0310188  74.4169494  93.9790426  19.0615411  77.7664988  87.0300574
  18.9451669  77.0909891  87.6981658  19.1717671  77.2797361  86.2132727
  21.4046952  77.2275135  90.7347263  21.0405160  76.7005756  91.4460185
  22.2614068  76.8373604  90.5613748  27.3096253  68.5169467  97.9978529
  26.9779578  69.3864878  97.7739744  26.7141866  68.2005751  98.6772560
  21.0452439  72.2565034  85.7308612  21.2126842  73.1245271  86.0979083
  20.8549608  72.4192316  84.8069901  23.8027772  80.7182013  97.3974442
  23.5028496  81.6207052  97.2890249  23.4578832  80.4514196  98.2495595
  17.2540254  77.1695810  93.4311146  16.3290750  77.0372024  93.6388838
  17.5024667  77.9490029  93.9281089  27.2024916  73.2364553  95.0771879
  26.2941794  73.1679962  94.7830640  27.1512512  73.7136498  95.9053705
  21.0241660  74.7122692  86.7155278  20.9041285  75.1579743  87.5540759
  20.3294249  75.0608010  86.1568817  14.6149065  76.8129084  94.2654935
  14.7441446  77.0663563  95.1794347  13.9346516  77.4056792  93.9459591
  18.7848552  87.4826334  90.3645410  18.7072582  88.4334159  90.4433890
  18.1810196  87.1372206  91.0220336  29.0686563  71.4380992  96.8549753
  28.4260943  71.7313525  96.2089548  28.5641491  71.3233912  97.6602950
  26.7226726  75.1844165  87.5435612  27.6344582  75.4171552  87.3683310
  26.2136373  75.7681209  86.9810691  25.0067494  79.6068793 101.1796905
  25.4150850  79.1651203 100.4351537  24.2844755  79.0321420 101.4331098
  21.3598564  74.5441400  98.5530462  22.2059759  74.9680813  98.6965111
  21.2997202  73.8875024  99.2469025  25.3296309  80.1669983  94.9349194
  24.7005171  80.3315698  94.2325262  24.9421971  80.5811593  95.7060158
  29.2085541  81.1024421  92.2893558  28.5236579  81.4823323  91.7390591
  29.2929390  81.7119748  93.0225505  24.5098009  72.2045768 100.2111636
  24.2658941  72.9587829  99.6745911  24.7857940  72.5831116 101.0458883
  26.4636472  78.7484380  98.8888901  26.6753367  79.3916140  98.2123282
  26.4166220  77.9146697  98.4210831  24.0662701  71.3602201  95.7925473
  23.2047180  71.6583455  96.0842211  24.0925136  71.5772600  94.8606506
  20.8824270  79.9044392  92.1999279  21.3462616  80.1832095  91.4103902
  20.6181069  79.0027836  92.0172370  17.7748352  79.4515873  95.1379042
  18.3449709  79.8803141  94.4996527  18.3656463  79.1698458  95.8363228
  19.8193157  76.0267544  89.0088844  20.5217200  76.4788588  89.4762771
  19.4873785  75.3851363  89.6368737  13.5618491  74.2851097  94.3105978
  12.7717544  74.5408625  93.8346088  14.0529738  75.0999434  94.4158018
  27.5782300  81.6256336  97.0611259  28.3999744  81.2236523  96.7793940
  27.5744703  81.5224570  98.0127374  15.5133236  74.6495676  91.2689454
  14.7164399  74.7614370  91.7872950  15.2858828  74.9882328  90.4030345
  35.6688293  77.9695084  93.4096230  34.9152002  77.4002482  93.2540234
  35.8035834  77.9357749  94.3566865  21.0586921  82.8408487  89.0850949
  20.9232596  83.6860022  89.5135797  21.5996734  83.0427764  88.3216883
  14.5116319  80.3583925  89.6578874  15.0240839  81.1527175  89.8084439
  15.1639031  79.6610215  89.5912476  16.3211203  83.4749681  91.7401628
  16.4977832  84.3967646  91.5522612  17.1168037  83.1608100  92.1696007
  20.4622222  70.3357946 103.3385561  21.2031935  70.9365099 103.2590024
  20.6940145  69.5935583 102.7803604  24.7836636  83.7434853 101.2432693
  24.7655111  84.5643734 100.7512962  25.7056556  83.6188928 101.4682834
  24.4079385  66.3639048  97.6149843  24.0643654  67.2540690  97.5388953
  24.7758347  66.1740706  96.7519428  12.4765235  78.6872579  90.4338445
  13.3140457  79.0969587  90.2172153  12.6543503  77.7472021  90.4038639
  24.3729667  76.3547660  86.1222278  23.8576291  77.1252264  86.3610665
  24.1006976  75.6812796  86.7455339  21.9576778  71.1997360  91.1807516
  21.1018375  70.8104211  91.0013155  22.3703730  71.2789321  90.3207302
  23.4875925  68.7343704  95.5799076  22.9840721  68.6973839  94.7666881
  23.7806532  69.6436446  95.6395733  19.7318811  68.8182433  94.5865258
  20.5971808  68.6225242  94.2271147  19.7996320  68.5892785  95.5134615
  29.3463942  79.1080014  88.0575451  28.5693384  78.7691174  87.6130614
  30.0255423  79.1132637  87.3830416  24.1615971  74.2274752  87.9482059
  23.8566106  74.5420901  88.7992202  25.1146413  74.3056172  87.9909392
  22.6062402  80.3864975  89.5975013  22.0783764  79.6517735  89.2848251
  22.1049905  81.1639651  89.3514981  27.5855248  78.5813995  94.7142059
  26.9278923  79.2713257  94.8022188  28.3895648  78.9710427  95.0576046
  17.3381130  71.0484641  91.9581625  17.9124882  70.8259823  91.2254818
  17.9252113  71.1173336  92.7110226  26.3960707  76.9358368  92.7646001
  26.9092589  77.5688360  93.2667711  27.0461931  76.3359564  92.3989361
  17.6650717  73.0789102  85.9777510  16.8288029  73.4163789  86.2986785
  17.5255487  72.9438082  85.0404647  19.6403798  67.9225890  90.6856694
  18.9868210  67.6074907  90.0613309  19.5984272  67.3001631  91.4116517
  20.7515003  78.2045185  82.6009986  19.8442064  77.9734439  82.8001135
  21.2486035  77.4082804  82.7883968  23.6583082  86.9142692  85.5206672
  22.9844780  87.2174389  86.1291630  24.0448904  87.7171773  85.1712129
  22.8741538  74.4107824  95.0104342  21.9564100  74.6322771  94.8526030
  23.2901682  74.4854134  94.1516049  23.6576586  75.8099239  90.1407022
  24.4048405  76.3220637  89.8314144  23.9268175  75.4883292  91.0011416
  21.9303236  78.3057780  87.1233976  21.0214455  78.0216813  87.2206446
  21.9598320  78.7256859  86.2637283  27.1622504  81.9164370  90.8925144
  26.7084831  81.0755279  90.9490334  26.5316470  82.5525768  91.2299924
  26.1055423  72.8456356  92.1225811  25.3678180  72.3333742  92.4536054
  26.3582197  72.4056737  91.3109088  25.6055443  83.7540866  91.8274962
  25.8978417  84.3145923  91.1087328  26.1154063  84.0469427  92.5828121
  26.2067050  65.6232608  92.7167581  26.5125927  64.7629971  92.4293496
  26.9319655  66.2150228  92.5166574  12.4991406  76.0263294  91.1049178
  12.3015806  75.4332655  90.3800245  11.9438070  75.7215504  91.8225117
  20.4788130  75.9186401  93.2243772  20.5336740  74.9660237  93.1486248
  19.6679332  76.0745840  93.7085070  21.6279324  79.8466524  84.4622055
  21.1898754  79.1302383  84.0027692  22.3689765  80.0742639  83.9007146
  18.4180490  74.5363460  90.9834150  17.6048356  74.8357631  91.3899343
  18.9139484  74.1419149  91.7008633  20.5689068  84.5321217  92.9168415
  20.5265247  84.7582064  91.9876947  21.4851767  84.2984592  93.0654216
  24.0154702  75.0005285  99.8149044  24.3704089  75.2276758 100.6743510
  24.6626833  75.3323662  99.1926300  29.7452439  78.1223721  90.5198373
  29.6070337  78.3125317  89.5919563  29.3888657  78.8843104  90.9766425
  17.9094565  72.1081816  96.5995385  18.5493944  71.9670575  95.9018349
  17.0772095  71.8216329  96.2233987  29.7721818  80.1900248  95.5309645
  30.2058325  80.0975537  96.3792699  30.4853399  80.1657748  94.8929661
  18.6854869  81.4084246  92.7130378  19.4795467  80.9134567  92.5112953
  17.9746561  80.8802110  92.3498083  23.5049713  83.7902342  97.0642745
  23.5586735  84.3593278  97.8320461  22.6364495  83.9604227  96.6996783
  14.9937632  75.5527328  88.7890131  14.0635220  75.4911784  89.0060093
  15.0895104  75.0303281  87.9926772  14.9123181  72.0782141  91.3768372
  15.1729999  72.9927474  91.2677533  15.7340354  71.6106584  91.5264985
  16.3848107  73.4919898  98.5467197  17.0571160  73.2837260  97.8979846
  15.5577893  73.2941984  98.1072429  30.6337368  80.2323948  98.0642530
  30.8273258  81.1369759  98.3101805  30.5337986  79.7731368  98.8981115
  22.2873679  70.1181839 100.5632858  21.6401594  70.8171789 100.4697334
  23.0574694  70.5517983 100.9309106  22.4637813  77.9562604  98.6229677
  23.3929873  78.1073764  98.4498645  22.0428843  78.0446625  97.7678324
  21.2626145  81.9813268  96.3928215  21.1237230  81.6132053  97.2654153
  20.4740741  82.4960908  96.2212173  21.8574297  87.0822365  87.7353751
  22.0326052  86.6110408  88.5499374  21.1707085  87.7088131  87.9635012
  22.8131360  81.3594871  93.7817053  22.4781192  81.3195641  94.6774703
  22.3135306  80.6939587  93.3087463  25.7490552  78.7050905  84.0554112
  25.1319722  77.9797734  83.9587165  25.2807040  79.4660266  83.7121187
  19.4157904  76.4782460  98.7953314  20.1257523  75.8375653  98.7539932
  19.3727213  76.7295355  99.7179494  27.4044683  83.4149814 101.7159893
  27.3457229  82.7309034 101.0490476  27.8064202  84.1568804 101.2640519
  18.1286838  73.4647678 100.6148953  17.5924195  73.0138417 101.2670549
  17.5403547  73.5993587  99.8719417  17.5389097  72.9236330  83.1775417
  16.6618564  72.8025130  82.8137663  18.0146850  72.1322408  82.9254305
  27.4062090  81.3789398  99.9473872  26.5188869  81.0415319 100.0700271
  27.9760642  80.6472429 100.1842638  13.8625960  72.6003686  97.7001948
  13.7784148  71.9929356  96.9652357  13.0408666  73.0912704  97.7011444
  20.7253023  85.2762620  90.4237937  19.9420545  85.8184300  90.5176162
  21.4245769  85.7936600  90.8232178  24.0349674  71.0857250  93.0672143
  24.5318373  70.3327212  92.7473213  23.2636655  71.1221566  92.5015352
  31.8879431  76.7897615  94.7090434  31.8769307  77.6722330  94.3384367
  31.0196810  76.4369166  94.5144971  25.1179454  79.8428937  90.6410566
  24.1835733  79.9630399  90.4715270  25.2956123  78.9401404  90.3770576
  20.6184642  73.2274633  92.7943827  20.2482430  72.6745673  93.4824733
  21.1143735  72.6232766  92.2418827  28.5052006  75.6846256  91.1760600
  28.9712458  76.5174248  91.1020903  28.9559506  75.2191238  91.8805859
  26.5728237  82.0290077  88.1746752  26.8488081  81.9146672  89.0840626
  25.7032735  81.6307562  88.1358925  26.4768668  68.0526843  95.2151501
  25.5631748  68.2831070  95.3833708  26.9061770  68.1365287  96.0665534
  26.2475127  76.2416735  97.7151395  25.5946577  76.4892642  97.0603848
  26.6255507  75.4280873  97.3813873  23.2082301  86.2776428  91.8179566
  23.3904695  85.4598084  92.2807318  24.0315287  86.4944120  91.3804456
  23.5424466  85.2044613  89.0794614  24.0712233  84.6937068  88.4664776
  23.8052686  84.8887144  89.9440147  16.8980214  86.2559730  91.8392390
  16.2290589  86.7405858  91.3556430  16.7593084  86.5028950  92.7535769
  16.0149976  70.6378623  99.0396933  16.0791302  71.4993454  98.6274331
  15.9517096  70.0252625  98.3069292  12.2667791  74.5178185  88.6188322
  12.5621232  73.6088863  88.5655376  11.3655827  74.4965924  88.2969325
  24.1753870  86.2385449  95.4238731  24.0505009  85.4375189  94.9149676
  24.8332961  86.7331642  94.9352701  15.7962038  72.5934182  94.6015871
  15.0748624  73.2070149  94.4623344  16.5855294  73.1291946  94.5232517
  26.2388778  84.0394469  97.0518281  25.2919114  83.9199820  96.9796608
  26.5871552  83.1516967  97.1344542  18.5988352  69.9288608 100.8756523
  19.1222754  70.1750905 101.6382832  18.3800685  70.7608643 100.4559660
  13.9955633  72.1992283  88.7427647  13.6668339  71.3189662  88.5602753
  14.3495004  72.1439951  89.6304037  23.2435212  83.8347185  93.2522633
  23.0960174  82.9063893  93.4330203  24.0688705  83.8567276  92.7679708
  17.1097456  72.4865252  89.1103125  17.4493529  73.0151174  88.3881734
  17.5569576  72.8245659  89.8861692  26.8469334  84.6575744  94.3387506
  27.7715881  84.4518605  94.2011957  26.6784637  84.4092145  95.2476847
  19.8040897  70.8702303  98.5606193  19.4637717  70.0710116  98.9626873
  19.0979903  71.1704014  97.9883026  20.4557369  67.9551616  97.0133516
  21.2783438  67.4812094  96.8912407  20.6995432  68.7342099  97.5132203
  19.0965603  70.9839874  87.3096418  19.8173966  71.3621127  86.8060135
  18.4730907  71.7028751  87.4131396  23.2396726  71.6885023  88.2454750
  23.4560340  72.5709661  87.9443578  22.7590793  71.2971236  87.5160392
  17.9795947  74.6470736  94.8225495  17.8340528  74.9611039  95.7149776
  17.5021151  75.2655637  94.2696393  19.8392330  71.6373284  94.8706384
  19.8253899  70.7414377  94.5338682  20.5564758  71.6443948  95.5044670
  21.6918461  72.0710624  96.9159512  21.4336239  72.9927695  96.9143842
  21.1603501  71.6741059  97.6059976  26.6364650  85.1761412  89.6949597
  26.8101527  84.6107834  88.9423450  27.1293541  85.9762306  89.5129087
  19.2429226  70.5187664  90.1393955  19.3645137  69.5904311  90.3384842
  18.9531269  70.5326350  89.2272270  22.1120417  68.2042575  93.2760674
  22.1342113  68.2681908  92.3212654  22.5288476  67.3647084  93.4701181
  32.4904041  77.9397834  91.3139897  32.9335187  77.1905160  90.9159020
  31.6130551  77.9307971  90.9313629  27.6239822  84.4928176  86.7946496
  28.3190727  85.1134869  87.0133810  27.9662972  83.6423527  87.0698873
  29.5231245  81.9427881  88.3233826  30.0482569  82.2815154  87.5983146
  29.4353598  81.0074897  88.1396961  21.2071906  88.0099865  92.6829079
  20.7676896  87.5176243  93.3761936  21.9580023  87.4672832  92.4421155
  18.6545778  83.5537874  94.7551381  18.0325788  82.8908579  94.4553609
  19.3250645  83.5799006  94.0725029  29.2125151  82.5760785 103.6285024
  28.4220695  82.5584924 103.0889524  28.9758506  83.1149079 104.3834061
  29.3323026  79.4253251 100.9417753  29.3821031  79.2603259 101.8833276
  29.2236950  78.5580510 100.5515634  18.2159285  82.1041797  88.2309842
  18.3647406  82.7877262  87.5776514  19.0225729  82.0846887  88.7459297
  26.6226789  75.4084179 102.2577059  27.5236652  75.2690644 101.9661057
  26.6974763  75.5738634 103.1975237  20.9569594  72.7851034 101.1030246
  20.0872904  73.0784600 100.8312834  21.1929075  73.3691479 101.8237509
  30.8341223  81.8450193 101.1859774  30.5426032  82.2080174 102.0223235
  30.2213355  81.1317201 101.0073106  32.0336906  79.4103073  93.7062345
  32.8683797  79.8492877  93.8699905  32.1696034  78.9341726  92.8870590
  29.0828412  76.9682808  99.6539832  29.5582533  77.1610454  98.8458684
  28.1593977  77.0241993  99.4083216  15.9711918  78.1306975  89.2370911
  15.7257960  77.2269305  89.4351121  16.1407833  78.1324125  88.2950389
  23.6608628  69.0030651  98.6195666  24.1790572  69.7391678  98.2942155
  23.3063761  69.3094644  99.4542425  15.2407566  73.8635332  86.7357072
  14.5476811  73.9379687  86.0797108  14.9959318  73.0995676  87.2578589
  23.9121222  65.4230934  94.1396563  24.1922976  64.7554123  94.7656989
  24.6971829  65.6160029  93.6271227  21.7154691  84.5989928  85.7021589
  21.1428658  85.2180115  85.2492061  22.2887484  85.1489289  86.2361511
  27.7830081  73.8448568  97.8868138  28.7347503  73.9446665  97.9080362
  27.6133531  73.0526836  98.3966222  25.8044460  70.9304151  98.0727539
  25.2094392  71.2109164  97.3774027  25.5194157  71.4198052  98.8444280
  24.9351950  84.8827078  86.8330171  25.8682624  84.8172639  87.0363047
  24.8475163  85.7183345  86.3744704  27.5639967  84.1992948  83.7934119
  27.4853599  83.8652812  84.6869877  28.3849634  84.6914716  83.7925591
  30.2618158  77.0654687  97.0010438  30.2294478  76.1270688  97.1870121
  30.8718782  77.1438724  96.2676262  22.1001489  75.9350740  83.0437642
  23.0460594  75.8056948  83.1126060  21.7215734  75.1965402  83.5207070
  30.4112647  73.8565731  97.0468721  29.8951695  73.0724187  96.8598650
  31.2952595  73.5284447  97.2115240  28.0723374  67.6006746  93.0064533
  27.8748195  67.2921835  93.8907865  28.6823079  68.3268385  93.1362463
  36.0794708  78.1270694  96.1416474  36.8098097  77.8655982  96.7024178
  35.4701654  77.3899416  96.1818542  34.1610005  76.2678557  96.7390926
  33.4343169  76.1334522  96.1307417  33.7457292  76.5755385  97.5447644
  20.2844406  73.8600717  82.9792527  19.3775862  73.5633829  83.0555240
  20.5620387  73.5630535  82.1126813  11.2022347  75.1807080  93.4291573
  10.8825131  74.3272388  93.1365947  10.6555775  75.3955658  94.1849541
  21.9006472  68.4037606  89.1336768  21.0907200  68.0584691  89.5092014
  22.5890889  68.0945150  89.7224380  23.8297020  67.4815653  90.7561065
  24.3828059  67.9011107  91.4151088  24.0667107  66.5551401  90.7984021
  19.0543191  70.7187652  83.1204506  19.9162355  71.0442550  83.3800323
  19.2393535  69.9319148  82.6077572  27.2075827  69.5916178  90.2639729
  26.6274497  70.2500982  89.8817781  26.9411760  68.7693523  89.8527147
  25.6579394  68.9921236  92.4661049  26.1579172  69.1037771  91.6575368
  26.3015002  68.6882289  93.1061858  12.9847349  78.7328245  93.2750710
  12.9618037  78.8315933  92.3232593  13.2947986  79.5793396  93.5967876
  25.9900705  71.7516269  89.3196077  25.1026561  72.0365919  89.1016272
  26.4054695  71.5910032  88.4723354  29.3415242  71.7762790  93.0350417
  30.1175632  72.2659242  93.3075033  28.6163376  72.2020844  93.4922286
  31.7787800  72.4890409  94.0924357  32.3732291  72.2486145  93.3817665
  31.8514384  71.7697540  94.7197893  25.1343919  81.5160943  83.4144097
  25.8379769  81.7210946  84.0301753  24.4106568  82.0837705  83.6793181
  25.9641729  77.2670805  89.5346367  25.9076931  77.7239356  88.6954000
  26.5170072  76.5061489  89.3569210  29.7746535  73.0560537  90.3596487
  29.5183469  72.6557172  91.1904695  29.1499403  73.7704331  90.2346626
  34.0858873  75.7956610  92.8667778  33.5258431  75.8649799  93.6399340
  33.4802376  75.6197594  92.1467275  27.0430616  81.9543473  85.4642557
  27.8776220  81.5224671  85.2820032  26.8814959  81.7825486  86.3919452
  26.6976509  78.4575586  86.8298897  26.6425312  78.2919857  85.8887341
  26.0722564  79.1651619  86.9861086  20.0072634  67.9583695  86.4084215
  19.9951304  68.9025535  86.5652486  20.8996056  67.7753840  86.1143676
  19.9362198  86.6352585  94.4951972  18.9857829  86.6354447  94.3816344
  20.2394684  85.8885320  93.9788006  23.8224753  64.5526472  90.6630152
  23.0557149  63.9984958  90.8086834  24.2335458  64.6248340  91.5244303
  35.6714891  92.4713124  95.5597734  36.3093301  92.3519871  94.8561074
  35.5535734  93.4193968  95.6185686  32.4804598  92.4240552  95.4959259
  32.1423109  92.3081617  94.6079794  33.3494366  92.0231717  95.4760265
  28.3391413  94.2776028  91.4856150  27.7756279  94.1865965  90.7172437
  28.2243808  93.4575933  91.9658642  32.9624381  93.5775404 101.4545464
  32.9513021  93.1828202 100.5825968  33.1245020  92.8441476 102.0479236
  25.8855845  95.7727220  94.3240370  26.6777137  95.4318045  93.9086669
  26.1252496  95.8822195  95.2442523  33.9190972  97.9446996  86.7970615
  33.2678952  98.5301076  86.4104628  34.7135335  98.4753191  86.8565652
  27.8446599  95.0336133  87.1957749  28.6177475  94.4865120  87.0570625
  28.1971998  95.8980382  87.4072210  30.6087849  93.7389364  96.9926008
  31.2051421  93.5145386  96.2782971  30.6662820  92.9974109  97.5951456
  30.1812877  91.1928799  84.8276199  30.4338398  90.6710321  84.0659662
  29.2437436  91.0294945  84.9302882  35.2256160  90.1964578  92.6350942
  36.0119249  89.7784001  92.2841359  35.4894864  91.1010670  92.8032590
  35.3966237  95.6337428  87.3339599  34.7612070  95.7072054  88.0460504
  35.0663644  96.2231027  86.6558678  40.6264587  90.1339811  93.5383921
  41.3589759  89.5639028  93.7721750  39.8703943  89.7461411  93.9790426
  29.9009166  93.0956905  87.0300574  29.7845424  92.4201809  87.6981658
  30.0111426  92.6089279  86.2132727  32.2440707  92.5567052  90.7347263
  31.8798914  92.0297673  91.4460185  33.1007823  92.1665521  90.5613748
  38.1490007  83.8461385  97.9978529  37.8173332  84.7156796  97.7739744
  37.5535621  83.5297669  98.6772560  31.8846194  87.5856952  85.7308612
  32.0520596  88.4537188  86.0979083  31.6943363  87.7484234  84.8069901
  34.6421527  96.0473931  97.3974442  34.3422250  96.9498970  97.2890249
  34.2972586  95.7806114  98.2495595  28.0934008  92.4987728  93.4311146
  27.1684505  92.3663942  93.6388838  28.3418422  93.2781947  93.9281089
  38.0418671  88.5656471  95.0771879  37.1335548  88.4971880  94.7830640
  37.9906267  89.0428416  95.9053705  31.8635415  90.0414610  86.7155278
  31.7435040  90.4871660  87.5540759  31.1688003  90.3899927  86.1568817
  25.4542819  92.1421001  94.2654935  25.5835201  92.3955480  95.1794347
  24.7740271  92.7348709  93.9459591  39.9080317  86.7672910  96.8549753
  39.2654697  87.0605443  96.2089548  39.4035246  86.6525830  97.6602950
  37.5620481  90.5136083  87.5435612  38.4738337  90.7463469  87.3683310
  37.0530128  91.0973127  86.9810691  35.8461248  94.9360711 101.1796905
  36.2544604  94.4943121 100.4351537  35.1238510  94.3613338 101.4331098
  32.1992319  89.8733317  98.5530462  33.0453514  90.2972731  98.6965111
  32.1390956  89.2166942  99.2469025  36.1690063  95.4961901  94.9349194
  35.5398926  95.6607615  94.2325262  35.7815725  95.9103511  95.7060158
  40.0479295  96.4316339  92.2893558  39.3630333  96.8115240  91.7390591
  40.1323144  97.0411666  93.0225505  35.3491764  87.5337686 100.2111636
  35.1052696  88.2879746  99.6745911  35.6251694  87.9123033 101.0458883
  37.3030227  94.0776298  98.8888901  37.5147122  94.7208058  98.2123282
  37.2559975  93.2438615  98.4210831  34.9056456  86.6894119  95.7925473
  34.0440935  86.9875372  96.0842211  34.9318890  86.9064518  94.8606506
  31.7218025  95.2336309  92.1999279  32.1856371  95.5124012  91.4103902
  31.4574823  94.3319754  92.0172370  28.6142106  94.7807791  95.1379042
  29.1843463  95.2095059  94.4996527  29.2050218  94.4990375  95.8363228
  30.6586911  91.3559462  89.0088844  31.3610954  91.8080505  89.4762771
  30.3267540  90.7143280  89.6368737  24.4012245  89.6143014  94.3105978
  23.6111299  89.8700543  93.8346088  24.8923492  90.4291352  94.4158018
  38.4176055  96.9548253  97.0611259  39.2393498  96.5528441  96.7793940
  38.4138457  96.8516488  98.0127374  26.3526990  89.9787594  91.2689454
  25.5558154  90.0906288  91.7872950  26.1252583  90.3174246  90.4030345
  46.5082048  93.2987002  93.4096230  45.7545756  92.7294400  93.2540234
  46.6429589  93.2649666  94.3566865  31.8980676  98.1700404  89.0850949
  31.7626350  99.0151940  89.5135797  32.4390488  98.3719682  88.3216883
  25.3510073  95.6875842  89.6578874  25.8634594  96.4819093  89.8084439
  26.0032786  94.9902133  89.5912476  27.1604958  98.8041599  91.7401628
  27.3371586  99.7259563  91.5522612  27.9561791  98.4900018  92.1696007
  31.3015976  85.6649863 103.3385561  32.0425690  86.2657016 103.2590024
  31.5333899  84.9227501 102.7803604  35.6230390  99.0726771 101.2432693
  35.6048865  99.8935652 100.7512962  36.5450310  98.9480846 101.4682834
  35.2473139  81.6930966  97.6149843  34.9037409  82.5832608  97.5388953
  35.6152102  81.5032624  96.7519428  23.3158990  94.0164497  90.4338445
  24.1534212  94.4261505  90.2172153  23.4937258  93.0763939  90.4038639
  35.2123422  91.6839577  86.1222278  34.6970045  92.4544182  86.3610665
  34.9400730  91.0104713  86.7455339  32.7970533  86.5289278  91.1807516
  31.9412129  86.1396128  91.0013155  33.2097485  86.6081239  90.3207302
  34.3269680  84.0635621  95.5799076  33.8234475  84.0265756  94.7666881
  34.6200286  84.9728364  95.6395733  30.5712565  84.1474351  94.5865258
  31.4365562  83.9517160  94.2271147  30.6390074  83.9184703  95.5134615
  40.1857696  94.4371932  88.0575451  39.4087139  94.0983091  87.6130614
  40.8649177  94.4424555  87.3830416  35.0009725  89.5566669  87.9482059
  34.6959861  89.8712818  88.7992202  35.9540167  89.6348089  87.9909392
  33.4456157  95.7156893  89.5975013  32.9177519  94.9809652  89.2848251
  32.9443660  96.4931569  89.3514981  38.4249003  93.9105913  94.7142059
  37.7672677  94.6005175  94.8022188  39.2289402  94.3002345  95.0576046
  28.1774885  86.3776559  91.9581625  28.7518636  86.1551740  91.2254818
  28.7645867  86.4465253  92.7110226  37.2354462  92.2650286  92.7646001
  37.7486344  92.8980278  93.2667711  37.8855686  91.6651481  92.3989361
  28.5044472  88.4081020  85.9777510  27.6681784  88.7455706  86.2986785
  28.3649241  88.2730000  85.0404647  30.4797552  83.2517808  90.6856694
  29.8261965  82.9366825  90.0613309  30.4378026  82.6293548  91.4116517
  31.5908757  93.5337103  82.6009986  30.6835819  93.3026356  82.8001135
  32.0879789  92.7374722  82.7883968  34.4976836 102.2434610  85.5206672
  33.8238535 102.5466307  86.1291630  34.8842658 103.0463690  85.1712129
  33.7135293  89.7399741  95.0104342  32.7957854  89.9614688  94.8526030
  34.1295436  89.8146052  94.1516049  34.4970340  91.1391157  90.1407022
  35.2442159  91.6512554  89.8314144  34.7661930  90.8175210  91.0011416
  32.7696991  93.6349698  87.1233976  31.8608210  93.3508731  87.2206446
  32.7992074  94.0548776  86.2637283  38.0016258  97.2456287  90.8925144
  37.5478585  96.4047197  90.9490334  37.3710225  97.8817686  91.2299924
  36.9449178  88.1748273  92.1225811  36.2071934  87.6625660  92.4536054
  37.1975951  87.7348655  91.3109088  36.4449197  99.0832784  91.8274962
  36.7372172  99.6437841  91.1087328  36.9547818  99.3761345  92.5828121
  37.0460805  80.9524525  92.7167581  37.3519682  80.0921889  92.4293496
  37.7713410  81.5442145  92.5166574  23.3385161  91.3555212  91.1049178
  23.1409561  90.7624573  90.3800245  22.7831825  91.0507422  91.8225117
  31.3181885  91.2478318  93.2243772  31.3730494  90.2952155  93.1486248
  30.5073087  91.4037757  93.7085070  32.4673078  95.1758441  84.4622055
  32.0292508  94.4594300  84.0027692  33.2083519  95.4034556  83.9007146
  29.2574245  89.8655378  90.9834150  28.4442110  90.1649549  91.3899343
  29.7533239  89.4711067  91.7008633  31.4082822  99.8613135  92.9168415
  31.3659001 100.0873981  91.9876947  32.3245521  99.6276510  93.0654216
  34.8548456  90.3297203  99.8149044  35.2097844  90.5568676 100.6743510
  35.5020587  90.6615579  99.1926300  40.5846193  93.4515638  90.5198373
  40.4464092  93.6417234  89.5919563  40.2282412  94.2135021  90.9766425
  28.7488319  87.4373734  96.5995385  29.3887699  87.2962493  95.9018349
  27.9165850  87.1508247  96.2233987  40.6115573  95.5192165  95.5309645
  41.0452079  95.4267455  96.3792699  41.3247153  95.4949666  94.8929661
  29.5248623  96.7376164  92.7130378  30.3189222  96.2426484  92.5112953
  28.8140316  96.2094027  92.3498083  34.3443468  99.1194260  97.0642745
  34.3980490  99.6885196  97.8320461  33.4758249  99.2896145  96.6996783
  25.8331387  90.8819246  88.7890131  24.9028975  90.8203701  89.0060093
  25.9288859  90.3595199  87.9926772  25.7516936  87.4074059  91.3768372
  26.0123753  88.3219392  91.2677533  26.5734108  86.9398501  91.5264985
  27.2241861  88.8211816  98.5467197  27.8964914  88.6129178  97.8979846
  26.3971648  88.6233902  98.1072429  41.4731122  95.5615866  98.0642530
  41.6667012  96.4661677  98.3101805  41.3731740  95.1023285  98.8981115
  33.1267433  85.4473757 100.5632858  32.4795348  86.1463706 100.4697334
  33.8968448  85.8809901 100.9309106  33.3031567  93.2854522  98.6229677
  34.2323627  93.4365681  98.4498645  32.8822597  93.3738542  97.7678324
  32.1019899  97.3105186  96.3928215  31.9630985  96.9423970  97.2654153
  31.3134495  97.8252825  96.2212173  32.6968051 102.4114283  87.7353751
  32.8719807 101.9402326  88.5499374  32.0100839 103.0380049  87.9635012
  33.6525114  96.6886789  93.7817053  33.3174947  96.6487559  94.6774703
  33.1529060  96.0231505  93.3087463  36.5884306  94.0342823  84.0554112
  35.9713477  93.3089651  83.9587165  36.1200794  94.7952183  83.7121187
  30.2551659  91.8074378  98.7953314  30.9651278  91.1667570  98.7539932
  30.2120967  92.0587273  99.7179494  28.9680593  88.7939596 100.6148953
  28.4317950  88.3430334 101.2670549  28.3797301  88.9285505  99.8719417
  28.3782852  88.2528247  83.1775417  27.5012318  88.1317048  82.8137663
  28.8540605  87.4614326  82.9254305  38.2455845  96.7081315  99.9473872
  37.3582624  96.3707237 100.0700271  38.8154396  95.9764347 100.1842638
  24.7019714  87.9295604  97.7001948  24.6177903  87.3221273  96.9652357
  23.8802421  88.4204622  97.7011444  31.5646778 100.6054538  90.4237937
  30.7814300 101.1476218  90.5176162  32.2639523 101.1228517  90.8232178
  34.8743428  86.4149167  93.0672143  35.3712128  85.6619130  92.7473213
  34.1030410  86.4513484  92.5015352  42.7273185  92.1189533  94.7090434
  42.7163062  93.0014248  94.3384367  41.8590565  91.7661084  94.5144971
  35.9573209  95.1720854  90.6410566  35.0229487  95.2922317  90.4715270
  36.1349877  94.2693321  90.3770576  31.4578397  88.5566550  92.7943827
  31.0876184  88.0037591  93.4824733  31.9537489  87.9524684  92.2418827
  39.3445760  91.0138174  91.1760600  39.8106212  91.8466165  91.1020903
  39.7953261  90.5483155  91.8805859  37.4121991  97.3581995  88.1746752
  37.6881835  97.2438590  89.0840626  36.5426490  96.9599480  88.1358925
  37.3162423  83.3818761  95.2151501  36.4025503  83.6122988  95.3833708
  37.7455524  83.4657205  96.0665534  37.0868881  91.5708653  97.7151395
  36.4340332  91.8184560  97.0603848  37.4649261  90.7572791  97.3813873
  34.0476055 101.6068346  91.8179566  34.2298450 100.7890002  92.2807318
  34.8709041 101.8236038  91.3804456  34.3818221 100.5336531  89.0794614
  34.9105987 100.0228986  88.4664776  34.6446440 100.2179061  89.9440147
  26.8543730  85.9670541  99.0396933  26.9185057  86.8285372  98.6274331
  26.7910851  85.3544543  98.3069292  23.1061546  89.8470103  88.6188322
  23.4014987  88.9380781  88.5655376  22.2049582  89.8257842  88.2969325
  35.0147625 101.5677367  95.4238731  34.8898764 100.7667107  94.9149676
  35.6726716 102.0623560  94.9352701  26.6355793  87.9226099  94.6015871
  25.9142379  88.5362067  94.4623344  27.4249049  88.4583864  94.5232517
  37.0782533  99.3686387  97.0518281  36.1312868  99.2491738  96.9796608
  37.4265306  98.4808885  97.1344542  29.4382106  85.2580526 100.8756523
  29.9616508  85.5042822 101.6382832  29.2194440  86.0900561 100.4559660
  24.8349387  87.5284200  88.7427647  24.5062093  86.6481579  88.5602753
  25.1888758  87.4731869  89.6304037  34.0828966  99.1639103  93.2522633
  33.9353929  98.2355810  93.4330203  34.9082460  99.1859194  92.7679708
  27.9491210  87.8157170  89.1103125  28.2887283  88.3443091  88.3881734
  28.3963331  88.1537576  89.8861692  37.6863088  99.9867662  94.3387506
  38.6109636  99.7810523  94.2011957  37.5178391  99.7384063  95.2476847
  30.6434651  86.1994221  98.5606193  30.3031472  85.4002034  98.9626873
  29.9373658  86.4995932  97.9883026  31.2951123  83.2843533  97.0133516
  32.1177192  82.8104011  96.8912407  31.5389187  84.0634017  97.5132203
  29.9359358  86.3131792  87.3096418  30.6567720  86.6913044  86.8060135
  29.3124662  87.0320668  87.4131396  34.0790481  87.0176941  88.2454750
  34.2954095  87.9001579  87.9443578  33.5984548  86.6263154  87.5160392
  28.8189702  89.9762654  94.8225495  28.6734283  90.2902957  95.7149776
  28.3414906  90.5947554  94.2696393  30.6786085  86.9665202  94.8706384
  30.6647654  86.0706295  94.5338682  31.3958513  86.9735866  95.5044670
  32.5312216  87.4002542  96.9159512  32.2729993  88.3219613  96.9143842
  31.9997256  87.0032977  97.6059976  37.4758404 100.5053329  89.6949597
  37.6495282  99.9399752  88.9423450  37.9687295 101.3054224  89.5129087
  30.0822981  85.8479582  90.1393955  30.2038892  84.9196228  90.3384842
  29.7925023  85.8618268  89.2272270  32.9514171  83.5334493  93.2760674
  32.9735868  83.5973826  92.3212654  33.3682230  82.6939001  93.4701181
  43.3297795  93.2689752  91.3139897  43.7728941  92.5197077  90.9159020
  42.4524306  93.2599888  90.9313629  38.4633577  99.8220094  86.7946496
  39.1584481 100.4426786  87.0133810  38.8056727  98.9715445  87.0698873
  40.3625000  97.2719799  88.3233826  40.8876324  97.6107072  87.5983146
  40.2747352  96.3366814  88.1396961  32.0465661 103.3391782  92.6829079
  31.6070651 102.8468161  93.3761936  32.7973778 102.7964750  92.4421155
  29.4939533  98.8829791  94.7551381  28.8719542  98.2200497  94.4553609
  30.1644400  98.9090923  94.0725029  40.1716781  94.7545169 100.9417753
  40.2214786  94.5895177 101.8833276  40.0630704  93.8872428 100.5515634
  29.0553040  97.4333715  88.2309842  29.2041160  98.1169179  87.5776514
  29.8619483  97.4138805  88.7459297  37.4620543  90.7376097 102.2577059
  38.3630406  90.5982562 101.9661057  37.5368518  90.9030552 103.1975237
  31.7963349  88.1142952 101.1030246  30.9266658  88.4076518 100.8312834
  32.0322829  88.6983397 101.8237509  42.8730660  94.7394990  93.7062345
  43.7077552  95.1784794  93.8699905  43.0089789  94.2633644  92.8870590
  39.9222166  92.2974725  99.6539832  40.3976288  92.4902372  98.8458684
  38.9987731  92.3533911  99.4083216  26.8105673  93.4598892  89.2370911
  26.5651715  92.5561222  89.4351121  26.9801587  93.4616043  88.2950389
  34.5002383  84.3322569  98.6195666  35.0184326  85.0683596  98.2942155
  34.1457515  84.6386562  99.4542425  26.0801320  89.1927250  86.7357072
  25.3870565  89.2671605  86.0797108  25.8353072  88.4287594  87.2578589
  34.7514977  80.7522851  94.1396563  35.0316730  80.0846040  94.7656989
  35.5365584  80.9451947  93.6271227  32.5548445  99.9281845  85.7021589
  31.9822412 100.5472032  85.2492061  33.1281239 100.4781207  86.2361511
  38.6223835  89.1740485  97.8868138  39.5741258  89.2738583  97.9080362
  38.4527285  88.3818754  98.3966222  36.6438215  86.2596069  98.0727539
  36.0488147  86.5401081  97.3774027  36.3587911  86.7489970  98.8444280
  35.7745705 100.2118995  86.8330171  36.7076378 100.1464557  87.0363047
  35.6868918 101.0475262  86.3744704  38.4033722  99.5284866  83.7934119
  38.3247353  99.1944729  84.6869877  39.2243388 100.0206634  83.7925591
  41.1011913  92.3946605  97.0010438  41.0688233  91.4562606  97.1870121
  41.7112536  92.4730642  96.2676262  32.9395244  91.2642658  83.0437642
  33.8854348  91.1348866  83.1126060  32.5609489  90.5257320  83.5207070
  41.2506401  89.1857648  97.0468721  40.7345450  88.4016105  96.8598650
  42.1346350  88.8576365  97.2115240  38.9117128  82.9298664  93.0064533
  38.7141949  82.6213752  93.8907865  39.5216834  83.6560303  93.1362463
  46.9188463  93.4562612  96.1416474  47.6491851  93.1947900  96.7024178
  46.3095408  92.7191334  96.1818542  45.0003760  91.5970474  96.7390926
  44.2736923  91.4626439  96.1307417  44.5851047  91.9047303  97.5447644
  31.1238161  89.1892634  82.9792527  30.2169616  88.8925747  83.0555240
  31.4014142  88.8922452  82.1126813  22.0416101  90.5098998  93.4291573
  21.7218886  89.6564306  93.1365947  21.4949529  90.7247576  94.1849541
  32.7400227  83.7329524  89.1336768  31.9300955  83.3876609  89.5092014
  33.4284644  83.4237068  89.7224380  34.6690775  82.8107571  90.7561065
  35.2221813  83.2303024  91.4151088  34.9060861  81.8843319  90.7984021
  29.8936945  86.0479570  83.1204506  30.7556109  86.3734468  83.3800323
  30.0787290  85.2611066  82.6077572  38.0469582  84.9208096  90.2639729
  37.4668251  85.5792900  89.8817781  37.7805515  84.0985441  89.8527147
  36.4973148  84.3213154  92.4661049  36.9972927  84.4329688  91.6575368
  37.1408756  84.0174207  93.1061858  23.8241104  94.0620163  93.2750710
  23.8011792  94.1607850  92.3232593  24.1341740  94.9085314  93.5967876
  36.8294460  87.0808186  89.3196077  35.9420315  87.3657837  89.1016272
  37.2448449  86.9201950  88.4723354  40.1808996  87.1054707  93.0350417
  40.9569386  87.5951160  93.3075033  39.4557130  87.5312762  93.4922286
  42.6181555  87.8182327  94.0924357  43.2126046  87.5778063  93.3817665
  42.6908138  87.0989457  94.7197893  35.9737673  96.8452861  83.4144097
  36.6773524  97.0502864  84.0301753  35.2500322  97.4129623  83.6793181
  36.8035484  92.5962722  89.5346367  36.7470685  93.0531274  88.6954000
  37.3563826  91.8353407  89.3569210  40.6140290  88.3852454  90.3596487
  40.3577224  87.9849090  91.1904695  39.9893158  89.0996248  90.2346626
  44.9252627  91.1248528  92.8667778  44.3652185  91.1941717  93.6399340
  44.3196131  90.9489512  92.1467275  37.8824371  97.2835390  85.4642557
  38.7169975  96.8516589  85.2820032  37.7208714  97.1117404  86.3919452
  37.5370263  93.7867504  86.8298897  37.4819067  93.6211775  85.8887341
  36.9116318  94.4943537  86.9861086  30.8466388  83.2875613  86.4084215
  30.8345058  84.2317453  86.5652486  31.7389810  83.1045758  86.1143676
  30.7755952 101.9644503  94.4951972  29.8251583 101.9646365  94.3816344
  31.0788439 101.2177238  93.9788006  34.6618508  79.8818389  90.6630152
  33.8950904  79.3276876  90.8086834  35.0729213  79.9540258  91.5244303
  41.0206632 106.5220717  84.8276199  41.2732152 106.0002238  84.0659662
  40.0831191 106.3586862  84.9302882  46.0649914 105.5256495  92.6350942
  46.8513004 105.1075918  92.2841359  46.3288619 106.4302587  92.8032590
  42.7239948 102.9148870  85.7308612  42.8914351 103.7829106  86.0979083
  42.5337117 103.0776151  84.8069901  42.7029169 105.3706527  86.7155278
  42.5828794 105.8163578  87.5540759  42.0081758 105.7191845  86.1568817
  48.4014235 105.8428000  87.5435612  49.3132091 106.0755387  87.3683310
  47.8923882 106.4265045  86.9810691  45.7450210 102.0186036  95.7925473
  44.8834689 102.3167290  96.0842211  45.7712645 102.2356435  94.8606506
  41.4980666 106.6851379  89.0088844  42.2004709 107.1372423  89.4762771
  41.1661294 106.0435198  89.6368737  46.0866894  97.0222884  97.6149843
  45.7431163  97.9124525  97.5388953  46.4545856  96.8324541  96.7519428
  46.0517176 107.0131495  86.1222278  45.5363800 107.7836100  86.3610665
  45.7794485 106.3396631  86.7455339  43.6364287 101.8581196  91.1807516
  42.7805884 101.4688046  91.0013155  44.0491239 101.9373156  90.3207302
  45.1663434  99.3927539  95.5799076  44.6628230  99.3557674  94.7666881
  45.4594041 100.3020282  95.6395733  41.4106320  99.4766269  94.5865258
  42.2759317  99.2809077  94.2271147  41.4783829  99.2476620  95.5134615
  51.0251451 109.7663850  88.0575451  50.2480893 109.4275009  87.6130614
  51.7042932 109.7716473  87.3830416  45.8403480 104.8858587  87.9482059
  45.5353615 105.2004736  88.7992202  46.7933922 104.9640007  87.9909392
  39.0168639 101.7068477  91.9581625  39.5912391 101.4843658  91.2254818
  39.6039622 101.7757171  92.7110226  39.3438226 103.7372938  85.9777510
  38.5075538 104.0747624  86.2986785  39.2042996 103.6021917  85.0404647
  41.3191307  98.5809725  90.6856694  40.6655719  98.2658743  90.0613309
  41.2771781  97.9585466  91.4116517  44.5529047 105.0691659  95.0104342
  43.6351609 105.2906606  94.8526030  44.9689191 105.1437970  94.1516049
  45.3364095 106.4683075  90.1407022  46.0835914 106.9804472  89.8314144
  45.6055684 106.1467127  91.0011416  47.7842932 103.5040191  92.1225811
  47.0465689 102.9917577  92.4536054  48.0369706 103.0640573  91.3109088
  47.8854559  96.2816443  92.7167581  48.1913436  95.4213806  92.4293496
  48.6107164  96.8734063  92.5166574  42.1575639 106.5770236  93.2243772
  42.2124249 105.6244072  93.1486248  41.3466841 106.7329675  93.7085070
  40.0967999 105.1947296  90.9834150  39.2835865 105.4941466  91.3899343
  40.5926993 104.8002985  91.7008633  39.5882074 102.7665651  96.5995385
  40.2281453 102.6254410  95.9018349  38.7559604 102.4800165  96.2233987
  36.5910690 102.7365976  91.3768372  36.8517508 103.6511310  91.2677533
  37.4127863 102.2690419  91.5264985  39.2176606 103.5820165  83.1775417
  38.3406073 103.4608966  82.8137663  39.6934359 102.7906243  82.9254305
  35.5413469 103.2587521  97.7001948  35.4571657 102.6513191  96.9652357
  34.7196175 103.7496540  97.7011444  45.7137183 101.7441085  93.0672143
  46.2105882 100.9911047  92.7473213  44.9424164 101.7805402  92.5015352
  42.2972151 103.8858468  92.7943827  41.9269939 103.3329508  93.4824733
  42.7931244 103.2816601  92.2418827  50.1839515 106.3430091  91.1760600
  50.6499967 107.1758083  91.1020903  50.6347015 105.8775073  91.8805859
  48.1556177  98.7110678  95.2151501  47.2419257  98.9414905  95.3833708
  48.5849279  98.7949122  96.0665534  37.6937485 101.2962459  99.0396933
  37.7578811 102.1577290  98.6274331  37.6304605 100.6836460  98.3069292
  37.4749547 103.2518017  94.6015871  36.7536133 103.8653985  94.4623344
  38.2642803 103.7875782  94.5232517  35.6743142 102.8576118  88.7427647
  35.3455848 101.9773497  88.5602753  36.0282513 102.8023787  89.6304037
  38.7884965 103.1449088  89.1103125  39.1281037 103.6735009  88.3881734
  39.2357085 103.4829494  89.8861692  42.1344878  98.6135451  97.0133516
  42.9570947  98.1395929  96.8912407  42.3782941  99.3925935  97.5132203
  40.7753112 101.6423709  87.3096418  41.4961475 102.0204962  86.8060135
  40.1518416 102.3612586  87.4131396  44.9184235 102.3468858  88.2454750
  45.1347849 103.2293496  87.9443578  44.4378302 101.9555072  87.5160392
  39.6583456 105.3054572  94.8225495  39.5128037 105.6194875  95.7149776
  39.1808660 105.9239472  94.2696393  41.5179839 102.2957120  94.8706384
  41.5041408 101.3998213  94.5338682  42.2352267 102.3027783  95.5044670
  40.9216735 101.1771500  90.1393955  41.0432646 100.2488146  90.3384842
  40.6318778 101.1910186  89.2272270  43.7907926  98.8626410  93.2760674
  43.8129622  98.9265743  92.3212654  44.2075985  98.0230919  93.4701181
  36.9195075 104.5219168  86.7357072  36.2264320 104.5963523  86.0797108
  36.6746827 103.7579511  87.2578589  45.5908731  96.0814769  94.1396563
  45.8710485  95.4137958  94.7656989  46.3759338  96.2743865  93.6271227
  43.7788998 106.5934576  83.0437642  44.7248103 106.4640784  83.1126060
  43.4003243 105.8549238  83.5207070  49.7510883  98.2590582  93.0064533
  49.5535704  97.9505670  93.8907865  50.3610588  98.9852221  93.1362463
  41.9631915 104.5184552  82.9792527  41.0563371 104.2217665  83.0555240
  42.2407896 104.2214370  82.1126813  43.5793981  99.0621442  89.1336768
  42.7694709  98.7168527  89.5092014  44.2678398  98.7528986  89.7224380
  45.5084529  98.1399489  90.7561065  46.0615568  98.5594942  91.4151088
  45.7454616  97.2135237  90.7984021  40.7330700 101.3771487  83.1204506
  41.5949864 101.7026386  83.3800323  40.9181044 100.5902983  82.6077572
  48.8863336 100.2500014  90.2639729  48.3062005 100.9084818  89.8817781
  48.6199269  99.4277358  89.8527147  47.3366903  99.6505071  92.4661049
  47.8366681  99.7621606  91.6575368  47.9802511  99.3466124  93.1061858
  47.6688214 102.4100104  89.3196077  46.7814069 102.6949755  89.1016272
  48.0842204 102.2493868  88.4723354  51.0202751 102.4346625  93.0350417
  51.7963141 102.9243078  93.3075033  50.2950885 102.8604679  93.4922286
  47.6429238 107.9254640  89.5346367  47.5864440 108.3823192  88.6954000
  48.1957581 107.1645325  89.3569210  51.4534044 103.7144372  90.3596487
  51.1970978 103.3141008  91.1904695  50.8286912 104.4288166  90.2346626
  41.6860143  98.6167530  86.4084215  41.6738813  99.5609370  86.5652486
  42.5783565  98.4337676  86.1143676  45.5012262  95.2110307  90.6630152
  44.7344658  94.6568794  90.8086834  45.9122967  95.2832176  91.5244303
   1.4009710  28.9633366  73.5215921   0.7497690  29.5487446  73.1349935
   2.1954073  29.4939560  73.5810959   2.7074898  21.2150947  79.3596249
   3.4937987  20.7970370  79.0086666   2.9713602  22.1197039  79.5277897
   2.8784975  26.6523798  74.0584906   2.2430808  26.7258424  74.7705810
   2.5482381  27.2417396  73.3803985   8.1083325  21.1526180  80.2629227
   8.8408497  20.5825397  80.4967057   7.3522681  20.7647781  80.7035733
   5.0439219  21.5322452  74.2680919   5.9557075  21.7649839  74.0928617
   4.5348866  22.1159496  73.7055998   3.6508801  26.5148271  81.6594501
   3.0217663  26.6793985  80.9570568   3.2634463  26.9289880  82.4305465
   7.5298033  27.4502709  79.0138864   6.8449071  27.8301610  78.4635898
   7.6141882  28.0598035  79.7470812   5.8994792  27.9734623  83.7856565
   6.7212236  27.5714810  83.5039247   5.8957195  27.8702857  84.7372681
  13.9900785  24.3173371  80.1341537  13.2364494  23.7480770  79.9785541
  14.1248327  24.2836036  81.0812171   2.6942160  22.7025947  72.8467585
   2.1788783  23.4730551  73.0855972   2.4219468  22.0291083  73.4700646
   7.6676434  25.4558301  74.7820758   6.8905877  25.1169461  74.3375920
   8.3467915  25.4610925  74.1075723   2.4828463  20.5753039  74.6727366
   2.1778598  20.8899188  75.5237509   3.4358905  20.6534459  74.7154699
   5.9067741  24.9292283  81.4387366   5.2491415  25.6191544  81.5267495
   6.7108140  25.3188715  81.7821352   4.7173200  23.2836655  79.4891308
   5.2305081  23.9166647  79.9913018   5.3674423  22.6837851  79.1234668
   1.9795574  33.2620980  72.2451979   1.3057273  33.5652676  72.8536937
   2.3661396  34.0650060  71.8957436   1.9789078  22.1577527  76.8652329
   2.7260897  22.6698924  76.5559451   2.2480668  21.8361579  77.7256722
   5.4834996  28.2642657  77.6170450   5.0297323  27.4233567  77.6735641
   4.8528962  28.9004055  77.9545231   4.4267915  19.1934643  78.8471118
   3.6890672  18.6812029  79.1781360   4.6794689  18.7535024  78.0354395
   3.9267935  30.1019154  78.5520269   4.2190909  30.6624211  77.8332634
   4.4366556  30.3947715  79.3073428   8.0664931  24.4702008  77.2443680
   7.9282830  24.6603604  76.3164869   7.7101150  25.2321391  77.7011731
   8.0934311  26.5378535  82.2554952   8.5270817  26.4453824  83.1038006
   8.8065891  26.5136036  81.6174968   1.8262205  30.1380629  83.7888052
   1.8799228  30.7071565  84.5565768   0.9576987  30.3082514  83.4242089
   1.1343852  27.7073158  80.5062359   0.7993685  27.6673928  81.4020009
   0.6347798  27.0417874  80.0332770   4.0703044  25.0529193  70.7799419
   3.4532214  24.3276021  70.6832472   3.6019532  25.8138553  70.4366493
  10.2091923  23.1375902  81.4335741  10.1981799  24.0200618  81.0629674
   9.3409303  22.7847453  81.2390278   1.7174420  32.2855971  85.7938581
   2.4302392  32.9203436  85.7214482   1.2264448  32.3819837  84.9778583
   3.4391947  26.1907224  77.3655873   2.5048225  26.3108686  77.1960577
   3.6168615  25.2879691  77.1015882   6.8264498  22.0324543  77.9005907
   7.2924950  22.8652535  77.8266209   7.2771998  21.5669525  78.6051165
   4.8940729  28.3768365  74.8992059   5.1700573  28.2624959  75.8085933
   4.0245228  27.9785849  74.8604232   1.5294793  32.6254715  78.5424872
   1.7117188  31.8076371  79.0052625   2.3527779  32.8422408  78.1049762
   1.8636959  31.5522901  75.8039921   2.3924725  31.0415355  75.1910083
   2.1265178  31.2365431  76.6685454   2.4966362  32.5863736  82.1484037
   2.3717502  31.7853476  81.6394983   3.1545453  33.0809930  81.6598007
   4.5601271  30.3872756  83.7763587   3.6131606  30.2678108  83.7041914
   4.9084044  29.4995254  83.8589849   1.5647704  30.1825473  79.9767940
   1.4172666  29.2542180  80.1575510   2.3901198  30.2045563  79.4925015
   5.1681826  31.0054031  81.0632812   6.0928373  30.7996893  80.9257264
   4.9997129  30.7570432  81.9722154   1.5609218  18.0363310  74.9700057
   1.7772833  18.9187948  74.6688885   1.0803285  17.6449524  74.2405699
   4.9577142  31.5239699  76.4194904   5.1314020  30.9586121  75.6668756
   5.4506033  32.3240594  76.2374394  10.8116533  24.2876122  78.0385204
  11.2547679  23.5383447  77.6404327   9.9343044  24.2786258  77.6558936
   5.9452315  30.8406463  73.5191802   6.6403219  31.4613156  73.7379117
   6.2875465  29.9901814  73.7944180   7.8443738  28.2906169  75.0479133
   8.3695062  28.6293441  74.3228453   7.7566090  27.3553184  74.8642268
  10.3549398  25.7581360  80.4307651  11.1896289  26.1971164  80.5945212
  10.4908527  25.2820013  79.6115897   3.2564443  31.2305365  73.5575478
   4.1895116  31.1650927  73.7608354   3.1687656  32.0661632  73.0990011
   5.8852459  30.5471235  70.5179426   5.8066091  30.2131099  71.4115183
   6.7062126  31.0393003  70.5170898  14.4007200  24.4748981  82.8661781
  15.1310589  24.2134270  83.4269484  13.7914146  23.7377703  82.9063849
  12.4822498  22.6156844  83.4636232  11.7555661  22.4812809  82.8552724
  12.0669784  22.9233673  84.2692950   5.5288320  15.9394466  76.9885036
   4.9486989  16.5979270  76.6063088   5.2624252  15.1171810  76.5772453
   4.3113198  18.0994556  76.0441384   3.4239053  18.3844207  75.8261579
   4.7267187  17.9388319  75.1968661   7.6627734  18.1241077  79.7595723
   8.4388124  18.6137529  80.0320340   6.9375868  18.5499131  80.2167593
  10.1000293  18.8368696  80.8169664  10.6944783  18.5964432  80.1062972
  10.1726876  18.1175827  81.4443200   3.4556411  27.8639231  70.1389404
   4.1592261  28.0689233  70.7547059   2.7319060  28.4315993  70.4038487
   4.2854222  23.6149092  76.2591674   4.2289423  24.0717643  75.4199306
   4.8382564  22.8539777  76.0814517   8.0959027  19.4038824  77.0841794
   7.8395962  19.0035460  77.9150001   7.4711895  20.1182618  76.9591933
  12.4071365  22.1434897  79.5913085  11.8470923  22.2128086  80.3644647
  11.8014869  21.9675882  78.8712581   5.3643109  28.3021760  72.1887864
   6.1988713  27.8702958  72.0065339   5.2027452  28.1303774  73.1164758
   5.0189001  24.8053873  73.5544203   4.9637805  24.6398145  72.6132647
   4.3935056  25.5129906  73.7106393  10.8017090  38.7718839  82.2204565
  10.4635602  38.6559904  81.3325100  11.6706858  38.3710004  82.2005572
   6.6603906  40.6254316  78.2101456   6.0968771  40.5344252  77.4417744
   6.5456301  39.8054220  78.6903949  11.2836873  39.9253691  88.1790771
  11.2725514  39.5306489  87.3071275  11.4457512  39.1919763  88.7724542
   4.2068338  42.1205507  81.0485677   4.9989630  41.7796332  80.6331976
   4.4464988  42.2300482  81.9687830  12.2403464  44.2925283  73.5215921
  11.5891444  44.8779364  73.1349935  13.0347827  44.8231478  73.5810959
   6.1659092  41.3814420  73.9203056   6.9389968  40.8343407  73.7815931
   6.5184490  42.2458670  74.1317517   8.0044134  42.7090803  87.1269955
   7.7134000  43.6136434  87.0116621   8.6401118  42.7507330  87.8414024
   8.9300341  40.0867651  83.7171315   9.5263913  39.8623674  83.0028277
   8.9875313  39.3452397  84.3196762   8.5025369  37.5407087  71.5521505
   8.7550890  37.0188608  70.7904969   7.5649928  37.3773232  71.6548189
  13.5468652  36.5442865  79.3596249  14.3331741  36.1262288  79.0086666
  13.8107357  37.4488957  79.5277897  18.9477079  36.4818098  80.2629227
  19.6802251  35.9117315  80.4967057  18.1916435  36.0939699  80.7035733
   8.2221658  39.4435192  73.7545880   8.1057916  38.7680096  74.4226965
   8.3323918  38.9567566  72.9378034  10.5653199  38.9045340  77.4592570
  10.2011406  38.3775961  78.1705491  11.4220315  38.5143809  77.2859055
  16.4702500  30.1939672  84.7223836  16.1385824  31.0635083  84.4985051
  15.8748113  29.8775956  85.4017866  10.2058686  33.9335239  72.4553918
  10.3733088  34.8015476  72.8224389  10.0155855  34.0962521  71.5315207
   6.4146501  38.8466015  80.1556453   5.4896997  38.7142229  80.3634145
   6.6630914  39.6260234  80.6526395  16.3631163  34.9134758  81.8017186
  15.4548040  34.8450167  81.5075947  16.3118759  35.3906703  82.6299011
  10.1847907  36.3892897  73.4400585  10.0647532  36.8349948  74.2786065
   9.4900495  36.7378214  72.8814123   3.7755312  38.4899289  80.9900242
   3.9047693  38.7433767  81.9039654   3.0952763  39.0826997  80.6704897
   7.9454799  49.1596539  77.0890716   7.8678829  50.1104364  77.1679197
   7.3416443  48.8142411  77.7465643  10.4372029  36.3324404  89.7452083
   9.6605363  36.8918324  89.7354948  11.0762592  36.8181187  90.2666953
  18.2292809  33.1151197  83.5795060  17.5867190  33.4083730  82.9334854
  17.7247738  33.0004117  84.3848256  15.8832973  36.8614370  74.2680919
  16.7950829  37.0941757  74.0928617  15.3742620  37.4451414  73.7055998
   8.6918401  39.1409857  89.3070050   9.4333085  39.6794901  89.0304874
   7.9855387  39.7676146  89.4641602  14.1673741  41.2838998  87.9042212
  14.5757097  40.8421408  87.1596844  13.4451002  40.7091625  88.1576405
  10.5204811  36.2211605  85.2775769  11.3666006  36.6451018  85.4210418
  10.4603448  35.5645229  85.9714332  13.6704256  33.8815973  86.9356942
  13.4265188  34.6358033  86.3991218  13.9464187  34.2601321  87.7704189
  15.6242719  40.4254585  85.6134208  15.8359614  41.0686345  84.9368589
  15.5772467  39.5916902  85.1456138  13.2268948  33.0372406  82.5170780
  12.3653427  33.3353659  82.8087518  13.2531383  33.2542805  81.5851813
   6.9354598  41.1286078  81.8624349   7.5055955  41.5573346  81.2241833
   7.5262710  40.8468663  82.5608535   8.9799403  37.7037749  75.7334151
   9.6823447  38.1558793  76.2008077   8.6480032  37.0621568  76.3614044
   7.4279765  36.2949505  90.1085360   6.7978425  36.9765786  90.3420757
   7.3215853  36.1832587  89.1638498   2.7224737  35.9621302  81.0351284
   1.9323791  36.2178830  80.5591395   3.2135985  36.7769639  81.1403325
   4.6739483  36.3265881  77.9934761   3.8770646  36.4384575  78.5118257
   4.4465075  36.6652533  77.1275652  10.5045150  42.8510584  85.9417276
  10.5689583  43.3130991  86.7775448   9.7956074  42.2207949  86.0699586
   1.0062440  36.2151792  83.4666275   1.2570479  37.0998802  83.7323851
   1.5421989  36.0356393  82.6941367  10.2193168  44.5178691  75.8096256
  10.0838843  45.3630227  76.2381104  10.7602980  44.7197969  75.0462190
   3.6722565  42.0354130  76.3824181   4.1847086  42.8297380  76.5329746
   4.3245278  41.3380420  76.3157783   5.4817450  45.1519886  78.4646934
   5.6584078  46.0737850  78.2767918   6.2774284  44.8378305  78.8941314
   4.7669807  37.1984518  88.3409097   4.6523322  36.2969775  88.6416196
   3.9114324  37.4448214  87.9893914  11.8461644  45.1402258  89.9396598
  11.4025499  44.3538637  89.6217503  12.5078858  45.3281408  89.2740489
   6.6048765  46.6698060  84.4657277   7.1556191  46.5415123  83.6934271
   5.7660241  46.9692949  84.1152169  13.9442882  45.4205058  87.9677999
  13.9261358  46.2413939  87.4758269  14.8662802  45.2959133  88.1928141
  10.4015937  42.9349187  88.8101508  10.9344273  42.1737476  88.5800816
   9.8730018  42.6422839  89.5525662  13.5685632  28.0409253  84.3395149
  13.2249901  28.9310895  84.2634260  13.9364594  27.8510911  83.4764734
   1.6371482  40.3642784  77.1583752   2.4746704  40.7739792  76.9417459
   1.8149750  39.4242226  77.1283946  13.5335914  38.0317864  72.8467585
  13.0182538  38.8022469  73.0855972  13.2613223  37.3583001  73.4700646
  11.1183025  32.8767565  77.9052823  10.2624622  32.4874416  77.7258462
  11.5309977  32.9559526  77.0452608  12.6482172  30.4113909  82.3044383
  12.1446967  30.3744044  81.4912188  12.9412779  31.3206651  82.3641039
   8.8925058  30.4952638  81.3110564   9.7578055  30.2995447  80.9516454
   8.9602567  30.2662990  82.2379921  13.3222217  35.9044957  74.6727366
  13.0172353  36.2191106  75.5237509  14.2752660  35.9826376  74.7154699
   6.4987377  32.7254846  78.6826931   7.0731129  32.5030028  77.9500124
   7.0858359  32.7943541  79.4355533   6.8256964  34.7559307  72.7022817
   5.9894276  35.0933994  73.0232091   6.6861734  34.6208287  71.7649954
   8.8010045  29.5996095  77.4102001   8.1474457  29.2845112  76.7858615
   8.7590519  28.9771836  78.1361824   9.9121249  39.8815390  69.3255293
   9.0048311  39.6504644  69.5246442  10.4092281  39.0853009  69.5129274
  12.8189328  48.5912897  72.2451979  12.1451027  48.8944594  72.8536937
  13.2055150  49.3941978  71.8957436  12.0347785  36.0878029  81.7349648
  11.1170346  36.3092976  81.5771336  12.4507929  36.1624339  80.8761356
  11.0909483  39.9827985  73.8479283  10.1820702  39.6987018  73.9451753
  11.1204567  40.4027064  72.9882590  15.2661670  34.5226561  78.8471118
  14.5284427  34.0103947  79.1781360  15.5188443  34.0826942  78.0354395
  15.3673297  27.3002813  79.4412887  15.6732174  26.4400176  79.1538802
  16.0925902  27.8920433  79.2411881   1.6597653  37.7033499  77.8294485
   1.4622053  37.1102860  77.1045552   1.1044317  37.3985709  78.5470424
   9.6394377  37.5956606  79.9489078   9.6942987  36.6430442  79.8731555
   8.8285579  37.7516045  80.4330377  10.7885571  41.5236729  71.1867361
  10.3505001  40.8072588  70.7272999  11.5296012  41.7512844  70.6252453
   7.5786737  36.2133665  77.7079457   6.7654602  36.5127836  78.1144649
   8.0745731  35.8189354  78.4253939   9.7295315  46.2091422  79.6413722
   9.6871494  46.4352269  78.7122254  10.6458014  45.9754797  79.7899523
  13.1760949  36.6775490  86.5394351  13.5310336  36.9046963  87.3988817
  13.8233080  37.0093867  85.9171606   7.0700812  33.7852021  83.3240692
   7.7100191  33.6440780  82.6263655   6.2378342  33.4986534  82.9479294
   7.8461115  43.0854451  79.4375684   8.6401714  42.5904771  79.2358259
   7.1352808  42.5572314  79.0743390  12.6655960  45.4672547  83.7888052
  12.7192982  46.0363483  84.5565768  11.7970741  45.6374432  83.4242089
   4.1543879  37.2297533  75.5135437   3.2241467  37.1681989  75.7305399
   4.2501351  36.7073486  74.7172078   4.0729428  33.7552346  78.1013679
   4.3336245  34.6697679  77.9922839   4.8946600  33.2876788  78.2510292
   5.5454353  35.1690103  85.2712503   6.2177407  34.9607465  84.6225152
   4.7184140  34.9712189  84.8317736  11.4479925  31.7952044  87.2878164
  10.8007840  32.4941994  87.1942641  12.2180941  32.2288188  87.6554412
  14.8558723  42.0600896  90.3628718  14.7044230  41.8311448  89.4458801
  14.8463403  43.0171498  90.3760063  11.6244060  39.6332809  85.3474984
  12.5536120  39.7843968  85.1743951  11.2035090  39.7216830  84.4923630
  11.0180543  48.7592570  74.4599058  11.1932299  48.2880613  75.2744681
  10.3313331  49.3858336  74.6880319   5.9481851  38.4432706  86.0314941
   5.8101649  37.7112945  86.6326480   6.8586774  38.3541606  85.7499128
  14.9096798  40.3821110  70.7799419  14.2925969  39.6567938  70.6832472
  14.4413287  41.1430471  70.4366493   8.5764151  38.1552665  85.5198620
   9.2863770  37.5145858  85.4785239   8.5333459  38.4065560  86.4424801
  16.5650930  45.0920019  88.4405199  16.5063476  44.4079239  87.7735782
  16.9670448  45.8339009  87.9885825   7.2893085  35.1417883  87.3394260
   6.7530442  34.6908622  87.9915856   6.7009794  35.2763792  86.5964724
   5.5841629  51.9081933  81.2338918   5.8238227  52.5400457  81.9117937
   4.7410825  51.5569973  81.5204278   6.6995344  34.6006535  69.9020723
   5.8224811  34.4795335  69.5382970   7.1753097  33.8092613  69.6499612
  16.5668337  43.0559603  86.6719179  15.6795116  42.7185524  86.7945578
  17.1366888  42.3242634  86.9087944   3.0232206  34.2773891  84.4247254
   2.9390395  33.6699560  83.6897664   2.2014913  34.7682909  84.4256750
  10.0969491  47.7161055  83.6380422  10.0239662  48.5216026  84.1499727
   9.6546884  47.9153021  82.8128444   9.8859270  46.9532825  77.1483244
   9.1026792  47.4954505  77.2421468  10.5852015  47.4706805  77.5477485
  13.1955920  32.7627454  79.7917449  13.6924620  32.0097417  79.4718519
  12.4242902  32.7991771  79.2260659  12.5568174  47.6147889  85.7938581
  13.2696146  48.2495354  85.7214482  12.0658203  47.7111755  84.9778583
   9.7790889  34.9044837  79.5189134   9.4088677  34.3515878  80.2070039
  10.2749982  34.3002971  78.9664134  17.6658252  37.3616461  77.9005907
  18.1318705  38.1944453  77.8266209  18.1165753  36.8961443  78.6051165
   7.6080088  45.3642332  86.6144152   8.3089547  45.9978815  86.7673546
   7.1375203  45.7057064  85.8539791  15.6374915  29.7297048  81.9396808
  14.7237995  29.9601275  82.1079015  16.0668017  29.8135492  82.7910840
  15.4081374  37.9186940  84.4396702  14.7552824  38.1662847  83.7849155
  15.7861754  37.1051078  84.1059179  11.4568947  38.6606751  90.9262739
  10.7809584  38.5600880  91.5965114  12.2796581  38.5045965  91.3898736
   3.2047806  44.8978688  83.5475254   3.7901243  44.1522375  83.6803159
   3.0072644  45.2082644  84.4311918   6.0586461  47.9329935  78.5637697
   5.3896836  48.4176063  78.0801737   5.9199331  48.1799155  79.4781075
  10.1991730  49.9673678  85.1620355  10.7510038  50.1305300  85.9269440
  10.5397923  50.5578116  84.4900380   5.1756223  32.3148828  85.7642240
   5.2397549  33.1763659  85.3519638   5.1123343  31.7022830  85.0314598
  15.0502604  44.7934936  91.0169010  15.5942508  45.4064894  90.5223964
  14.4689449  45.3514514  91.5336023   1.4274038  36.1948390  75.3433629
   1.7227479  35.2859068  75.2900683   0.5262074  36.1736129  75.0214631
   4.9568285  34.2704386  81.3261178   4.2354871  34.8840354  81.1868651
   5.7461541  34.8062151  81.2477824   7.7594599  31.6058813  87.6001829
   8.2829000  31.8521109  88.3628139   7.5406932  32.4378848  87.1804967
   3.1561880  33.8762488  75.4672954   2.8274586  32.9959866  75.2848060
   3.5101250  33.8210156  76.3549343   6.2703703  34.1635457  75.8348432
   6.6099775  34.6921379  75.1127040   6.7175823  34.5015863  76.6106998
   8.9647144  32.5472508  85.2851500   8.6243964  31.7480321  85.6872180
   8.2586150  32.8474219  84.7128333   9.6163615  29.6321820  83.7378823
  10.4389685  29.1582299  83.6157713   9.8601679  30.4112304  84.2377509
   8.2571850  32.6610079  74.0341725   8.9780212  33.0391332  73.5305441
   7.6337154  33.3798956  74.1376703  12.4002973  33.3655228  74.9700057
  12.6166587  34.2479866  74.6688885  11.9197040  32.9741441  74.2405699
   7.1402194  36.3240941  81.5470801   6.9946775  36.6381244  82.4395083
   6.6627398  36.9425841  80.9941700   8.9998577  33.3143489  81.5951691
   8.9860146  32.4184582  81.2583989   9.7171005  33.3214153  82.2289977
  10.8524708  33.7480829  83.6404818  10.5942486  34.6697900  83.6389149
  10.3209748  33.3511264  84.3305283   1.6147856  38.8646286  84.4858463
   1.0701324  39.6406093  84.6178737   2.4927206  39.2117090  84.3277584
   8.4035473  32.1957869  76.8639261   8.5251384  31.2674516  77.0630149
   8.1137515  32.2096555  75.9517577  11.2726663  29.8812780  80.0005981
  11.2948360  29.9452113  79.0457961  11.6894722  29.0417288  80.1946487
   2.4013878  37.9916182  87.3788620   1.6595614  38.1398817  87.9653250
   2.0806622  38.2524447  86.5155369  10.3457541  47.5332160  87.1769010
  10.6544667  47.2881307  88.0491709  11.1433023  47.7378798  86.6887880
  10.3678153  49.6870070  79.4074386   9.9283143  49.1946448  80.1007243
  11.1186270  49.1443037  79.1666461   2.8470492  45.8781610  79.4099014
   3.6728512  45.5785382  79.0297658   2.4964544  45.1089233  79.8588803
   7.8152025  45.2308079  81.4796688   7.1932034  44.5678784  81.1798916
   8.4856892  45.2569211  80.7970336  18.3731398  44.2530990  90.3530331
  17.5826942  44.2355129  89.8134830  18.1364753  44.7919284  91.1079367
  18.4929273  41.1023456  87.6663059  18.5427278  40.9373464  88.6078582
  18.3843197  40.2350715  87.2760940   7.3765532  43.7812002  74.9555148
   7.5253652  44.4647466  74.3021821   8.1831975  43.7617092  75.4704604
  15.7833036  37.0854384  88.9822366  16.6842898  36.9460849  88.6906364
  15.8581010  37.2508839  89.9220544  10.1175841  34.4621239  87.8275552
   9.2479150  34.7554805  87.5558141  10.3535321  35.0461684  88.5482816
  19.9947470  43.5220398  87.9105081  19.7032278  43.8850378  88.7468542
  19.3819601  42.8087406  87.7318413  18.2434658  38.6453013  86.3785139
  18.7188780  38.8380659  85.5703990  17.3200224  38.7012198  86.1328523
   5.1318165  39.8077180  75.9616217   4.8864207  38.9039510  76.1596427
   5.3014079  39.8094330  75.0195695  12.8214875  30.6800856  85.3440973
  13.3396819  31.4161883  85.0187461  12.4670008  30.9864849  86.1787732
   4.4013812  35.5405537  73.4602379   3.7083057  35.6149892  72.8042415
   4.1565564  34.7765881  73.9823896  13.0727469  27.1001139  80.8641869
  13.3529223  26.4324328  81.4902296  13.8578076  27.2930234  80.3516533
  10.8760937  46.2760133  72.4266896  10.3034905  46.8950320  71.9737368
  11.4493731  46.8259494  72.9606818  16.9436327  35.5218773  84.6113445
  17.8953750  35.6216870  84.6325669  16.7739778  34.7297041  85.1211529
  14.9650707  32.6074356  84.7972845  14.3700639  32.8879369  84.1019334
  14.6800404  33.0968257  85.5689587  14.0958197  46.5597283  73.5575478
  15.0288870  46.4942844  73.7608354  14.0081410  47.3953549  73.0990011
  16.7246214  45.8763153  70.5179426  16.6459845  45.5423017  71.4115183
  17.5455881  46.3684921  70.5170898  19.4224405  38.7424892  83.7255744
  19.3900725  37.8040893  83.9115428  20.0325029  38.8208929  82.9921569
  11.2607736  37.6120945  69.7682948  12.2066841  37.4827153  69.8371366
  10.8821981  36.8735607  70.2452376  19.5718894  35.5335936  83.7714027
  19.0557942  34.7494392  83.5843956  20.4558842  35.2054652  83.9360547
  17.2329621  29.2776951  79.7309840  17.0354442  28.9692039  80.6153172
  17.8429326  30.0038590  79.8607770  25.2400955  39.8040899  82.8661781
  25.9704343  39.5426187  83.4269484  24.6307900  39.0669621  82.9063849
  23.3216252  37.9448762  83.4636232  22.5949416  37.8104727  82.8552724
  22.9063539  38.2525590  84.2692950  11.1446429  41.6638691  91.2283605
  12.0649438  41.8417290  91.4223652  11.1096012  40.7194737  91.0763304
   9.4450653  35.5370922  69.7037833   8.5382109  35.2404034  69.7800547
   9.7226634  35.2400740  68.8372120   4.1408501  39.5739726  83.8706386
   4.3594511  40.5056834  83.8894420   4.5534275  39.2147700  84.6561190
  11.0612719  30.0807811  75.8582075  10.2513447  29.7354896  76.2337321
  11.7497136  29.7715355  76.4469686  12.9903267  29.1585858  77.4806371
  13.5434306  29.5781312  78.1396394  13.2273354  28.2321606  77.5229327
   8.2149438  32.3957857  69.8449813   9.0768602  32.7212755  70.1045630
   8.3999782  31.6089353  69.3322878  16.3682074  31.2686383  76.9885036
  15.7880743  31.9271187  76.6063088  16.1018007  30.4463728  76.5772453
  14.8185641  30.6691441  79.1906356  15.3185419  30.7807976  78.3820675
  15.4621249  30.3652494  79.8307164   8.8767636  38.5770071  92.0774197
   8.3934718  39.3770431  92.2838086   8.9628575  38.5878016  91.1241641
   2.1453596  40.4098450  79.9996016   2.1224284  40.5086138  79.0477899
   2.4554233  41.2563601  80.3213182   4.8040974  42.4674605  84.1142631
   5.7584227  42.4358548  84.0472562   4.6053498  42.0065229  84.9292857
   5.3940356  41.0375721  86.6813428   6.2133245  41.5319800  86.7048266
   5.6677164  40.1207690  86.6530996  15.1506952  33.4286474  76.0441384
  14.2632807  33.7136124  75.8261579  15.5660941  33.2680237  75.1968661
  18.5021488  33.4532995  79.7595723  19.2781879  33.9429447  80.0320340
  17.7769623  33.8791049  80.2167593  20.9394047  34.1660614  80.8169664
  21.5338538  33.9256350  80.1062972  21.0120631  33.4467744  81.4443200
   3.1591203  48.0094225  81.1312829   3.0245671  47.2494626  80.5650827
   2.7423265  48.7335125  80.6641617  14.2950166  43.1931148  70.1389404
  14.9986016  43.3981151  70.7547059  13.5712814  43.7607910  70.4038487
  18.9352782  34.7330742  77.0841794  18.6789716  34.3327377  77.9150001
  18.3105650  35.4474535  76.9591933   6.3160329  48.9063542  81.3431271
   6.1992713  49.8508974  81.2409962   5.4952775  48.6037103  81.7317070
  16.2036863  43.6313678  72.1887864  17.0382467  43.1994876  72.0065339
  16.0421206  43.4595691  73.1164758  13.1728662  42.4394703  92.8797766
  14.0419822  42.6135355  92.5184401  12.6935414  43.2589120  92.7573495
   9.1678881  29.6353900  73.1329522   9.1557551  30.5795740  73.2897793
  10.0602303  29.4524045  72.8388983   7.3414843  49.5591804  84.5587200
   8.2442089  49.5915414  84.8753695   7.1152213  48.6292255  84.5733535
   9.0968445  48.3122790  81.2197278   8.1464076  48.3124652  81.1061651
   9.4000931  47.5655525  80.7033313  12.9831000  26.2296677  77.3875458
  12.2163396  25.6755163  77.5332141  13.3941705  26.3018545  78.2489610
  24.8321138  54.1483329  82.2843041  25.4699548  54.0290076  81.5806381
  24.7141981  55.0964173  82.3430993  21.6410845  54.1010757  82.2204565
  21.3029356  53.9851822  81.3325100  22.5100613  53.7001922  82.2005572
  17.4997660  55.9546233  78.2101456  16.9362525  55.8636170  77.4417744
  17.3850055  55.1346138  78.6903949  22.1230627  55.2545609  88.1790771
  22.1119268  54.8598407  87.3071275  22.2851267  54.5211681  88.7724542
  15.0462092  57.4497425  81.0485677  15.8383384  57.1088249  80.6331976
  15.2858742  57.5592400  81.9687830  23.0797219  59.6217201  73.5215921
  22.4285199  60.2071281  73.1349935  23.8741582  60.1523396  73.5810959
  17.0052846  56.7106338  73.9203056  17.7783722  56.1635325  73.7815931
  17.3578245  57.5750587  74.1317517  18.8437889  58.0382720  87.1269955
  18.5527755  58.9428351  87.0116621  19.4794873  58.0799248  87.8414024
  19.7694095  55.4159569  83.7171315  20.3657668  55.1915591  83.0028277
  19.8269067  54.6744314  84.3196762  27.3096254  45.5231590  84.7223836
  26.9779579  46.3927001  84.4985051  26.7141868  45.2067874  85.4017866
  23.8027774  57.7244136  84.1219749  23.5028497  58.6269175  84.0135556
  23.4578833  57.4576319  84.9740901  17.2540255  54.1757933  80.1556453
  16.3290752  54.0434147  80.3634145  17.5024668  54.9552152  80.6526395
  14.6149066  53.8191206  80.9900242  14.7441447  54.0725685  81.9039654
  13.9346518  54.4118914  80.6704897  18.7848554  64.4888456  77.0890716
  18.7072583  65.4396281  77.1679197  18.1810197  64.1434329  77.7465643
  21.2765783  51.6616322  89.7452083  20.4999117  52.2210242  89.7354948
  21.9156346  52.1473105  90.2666953  29.0686564  48.4443114  83.5795060
  28.4260944  48.7375648  82.9334854  28.5641492  48.3296035  84.3848256
  19.5312156  54.4701775  89.3070050  20.2726840  55.0086819  89.0304874
  18.8249141  55.0968064  89.4641602  25.0067495  56.6130915  87.9042212
  25.4150851  56.1713326  87.1596844  24.2844757  56.0383543  88.1576405
  21.3598565  51.5503522  85.2775769  22.2059760  51.9742936  85.4210418
  21.2997203  50.8937147  85.9714332  25.3296310  57.1732106  81.6594501
  24.7005172  57.3377820  80.9570568  24.9421972  57.5873716  82.4305465
  24.5098011  49.2107891  86.9356942  24.2658942  49.9649951  86.3991218
  24.7857941  49.5893238  87.7704189  26.4636473  55.7546503  85.6134208
  26.6753369  56.3978263  84.9368589  26.4166222  54.9208820  85.1456138
  20.8824272  56.9106514  78.9244586  21.3462617  57.1894217  78.1349208
  20.6181070  56.0089959  78.7417676  17.7748353  56.4577996  81.8624349
  18.3449710  56.8865264  81.2241833  18.3656465  56.1760580  82.5608535
  18.2673519  51.6241423  90.1085360  17.6372180  52.3057704  90.3420757
  18.1609607  51.5124505  89.1638498  27.5782301  58.6318458  83.7856565
  28.3999745  58.2298646  83.5039247  27.5744704  58.5286693  84.7372681
  21.3438905  58.1802502  85.9417276  21.4083337  58.6422909  86.7775448
  20.6349829  57.5499867  86.0699586  11.8456195  51.5443710  83.4666275
  12.0964233  52.4290720  83.7323851  12.3815743  51.3648311  82.6941367
  21.0586922  59.8470609  75.8096256  20.9232597  60.6922145  76.2381104
  21.5996735  60.0489887  75.0462190  17.5454262  45.9262189  92.4710611
  17.1521208  45.3728388  93.1458255  18.3620402  46.2372767  92.8617129
  14.5116320  57.3646047  76.3824181  15.0240840  58.1589297  76.5329746
  15.1639033  56.6672338  76.3157783  16.3211205  60.4811803  78.4646934
  16.4977833  61.4029768  78.2767918  17.1168038  60.1670223  78.8941314
  20.4622223  47.3420068  90.0630868  21.2031936  47.9427221  89.9835330
  20.6940146  46.5997706  89.5048910  15.6063561  52.5276435  88.3409097
  15.4917076  51.6261693  88.6416196  14.7508079  52.7740132  87.9893914
  22.6855399  60.4694176  89.9396598  22.2419253  59.6830554  89.6217503
  23.3472612  60.6573326  89.2740489  17.4442520  61.9989977  84.4657277
  17.9949945  61.8707041  83.6934271  16.6053996  62.2984866  84.1152169
  24.7836637  60.7496976  87.9677999  24.7655112  61.5705857  87.4758269
  25.7056557  60.6251051  88.1928141  21.2409691  58.2641105  88.8101508
  21.7738028  57.5029393  88.5800816  20.7123772  57.9714757  89.5525662
  24.4079386  43.3701171  84.3395149  24.0643655  44.2602813  84.2634260
  24.7758349  43.1802829  83.4764734  12.4765237  55.6934701  77.1583752
  13.3140459  56.1031710  76.9417459  12.6543504  54.7534144  77.1283946
  22.6062404  57.3927098  76.3220320  22.0783765  56.6579857  76.0093557
  22.1049906  58.1701774  76.0760288  27.5855250  55.5876118  81.4387366
  26.9278924  56.2775379  81.5267495  28.3895649  55.9772550  81.7821352
  17.6650718  50.0851225  72.7022817  16.8288031  50.4225911  73.0232091
  17.5255488  49.9500205  71.7649954  23.6583083  63.9204815  72.2451979
  22.9844782  64.2236512  72.8536937  24.0448905  64.7233895  71.8957436
  25.6055444  60.7602989  78.5520269  25.8978418  61.3208046  77.8332634
  26.1154065  61.0531550  79.3073428  12.4991408  53.0325417  77.8294485
  12.3015808  52.4394778  77.1045552  11.9438072  52.7277627  78.5470424
  21.6279325  56.8528646  71.1867361  21.1898755  56.1364505  70.7272999
  22.3689766  57.0804761  70.6252453  20.5689069  61.5383340  79.6413722
  20.5265248  61.7644186  78.7122254  21.4851768  61.3046715  79.7899523
  24.0154703  52.0067408  86.5394351  24.3704091  52.2338881  87.3988817
  24.6626834  52.3385784  85.9171606  18.6854870  58.4146369  79.4375684
  19.4795468  57.9196689  79.2358259  17.9746562  57.8864232  79.0743390
  23.5049714  60.7964465  83.7888052  23.5586737  61.3655401  84.5565768
  22.6364496  60.9666350  83.4242089  14.9937633  52.5589451  75.5135437
  14.0635222  52.4973906  75.7305399  15.0895105  52.0365403  74.7172078
  16.3848108  50.4982021  85.2712503  17.0571161  50.2899383  84.6225152
  15.5577894  50.3004107  84.8317736  30.6337369  57.2386071  84.7887837
  30.8273259  58.1431882  85.0347112  30.5337987  56.7793490  85.6226422
  22.2873680  47.1243962  87.2878164  21.6401595  47.8233911  87.1942641
  23.0574695  47.5580106  87.6554412  25.6952478  57.3892814  90.3628718
  25.5437984  57.1603365  89.4458801  25.6857157  58.3463415  90.3760063
  22.4637814  54.9624727  85.3474984  23.3929874  55.1135886  85.1743951
  22.0428844  55.0508747  84.4923630  21.2626146  58.9875391  83.1173522
  21.1237232  58.6194175  83.9899460  20.4740742  59.5023030  82.9457479
  21.8574298  64.0884487  74.4599058  22.0326054  63.6172531  75.2744681
  21.1707086  64.7150254  74.6880319  22.8131361  58.3656994  80.5062359
  22.4781194  58.3257764  81.4020009  22.3135307  57.7001710  80.0332770
  16.7875605  53.7724624  86.0314941  16.6495403  53.0404863  86.6326480
  17.6980529  53.6833524  85.7499128  19.4157906  53.4844583  85.5198620
  20.1257524  52.8437775  85.4785239  19.3727214  53.7357478  86.4424801
  27.4044684  60.4211936  88.4405199  27.3457231  59.7371156  87.7735782
  27.8064203  61.1630926  87.9885825  18.1286840  50.4709801  87.3394260
  17.5924197  50.0200539  87.9915856  17.5403548  50.6055710  86.5964724
  16.4235383  67.2373850  81.2338918  16.6631981  67.8692374  81.9117937
  15.5804580  66.8861890  81.5204278  17.5389099  49.9298452  69.9020723
  16.6618565  49.8087253  69.5382970  18.0146852  49.1384531  69.6499612
  27.4062092  58.3851520  86.6719179  26.5188870  58.0477442  86.7945578
  27.9760643  57.6534552  86.9087944   9.0591239  54.7175612  79.9962230
   9.7462279  54.4037342  79.4083246   8.9039368  55.6216977  79.7229482
  20.9363245  63.0452973  83.6380422  20.8633417  63.8507944  84.1499727
  20.4940638  63.2444938  82.8128444  20.7253025  62.2824743  77.1483244
  19.9420547  62.8246423  77.2421468  21.4245770  62.7998722  77.5477485
  31.8879432  53.7959738  81.4335741  31.8769308  54.6784453  81.0629674
  31.0196812  53.4431288  81.2390278  23.3961929  62.9439807  85.7938581
  24.1089901  63.5787271  85.7214482  22.9051957  63.0403673  84.9778583
  18.4473842  60.6934250  86.6144152  19.1483302  61.3270733  86.7673546
  17.9768957  61.0348982  85.8539791  26.2475128  53.2478858  84.4396702
  25.5946578  53.4954765  83.7849155  26.6255508  52.4342996  84.1059179
  23.2082302  63.2838551  78.5424872  23.3904697  62.4660207  79.0052625
  24.0315288  63.5006243  78.1049762  23.5424467  62.2106736  75.8039921
  24.0712234  61.6999190  75.1910083  23.8052687  61.8949266  76.6685454
  22.2962701  53.9898669  90.9262739  21.6203338  53.8892798  91.5965114
  23.1190335  53.8337882  91.3898736  14.0441560  60.2270605  83.5475254
  14.6294997  59.4814293  83.6803159  13.8466399  60.5374562  84.4311918
  16.8980215  63.2621853  78.5637697  16.2290591  63.7467980  78.0801737
  16.7593085  63.5091073  79.4781075   8.6359215  52.7976205  82.2679698
   8.6743314  52.2639796  83.0616816   8.1299508  52.2711411  81.6490675
  21.0385484  65.2965596  85.1620355  21.5903792  65.4597218  85.9269440
  21.3791677  65.8870034  84.4900380  16.0149977  47.6440746  85.7642240
  16.0791304  48.5055577  85.3519638  15.9517097  47.0314748  85.0314598
  15.4902250  49.7163878  89.4115274  16.1174289  49.3340956  90.0252798
  14.6330169  49.4978080  89.7770967  25.8896358  60.1226854  91.0169010
  26.4336262  60.7356812  90.5223964  25.3083203  60.6806432  91.5336023
  12.2667793  51.5240308  75.3433629  12.5621234  50.6150986  75.2900683
  11.3655828  51.5028047  75.0214631  24.1753871  63.2447572  82.1484037
  24.0505011  62.4437311  81.6394983  24.8332962  63.7393765  81.6598007
  26.2388780  61.0456592  83.7763587  25.2919115  60.9261943  83.7041914
  26.5871553  60.1579090  83.8589849  18.5988353  46.9350731  87.6001829
  19.1222755  47.1813027  88.3628139  18.3800686  47.7670765  87.1804967
  13.9955634  49.2054405  75.4672954  13.6668340  48.3251784  75.2848060
  14.3495005  49.1502074  76.3549343  23.2435213  60.8409308  79.9767940
  23.0960175  59.9126015  80.1575510  24.0688706  60.8629399  79.4925015
  26.8469335  61.6637867  81.0632812  27.7715882  61.4580728  80.9257264
  26.6784638  61.4154268  81.9722154  12.4541611  54.1938203  84.4858463
  11.9095079  54.9698011  84.6178737  13.3320961  54.5409008  84.3277584
  13.2407633  53.3208099  87.3788620  12.4989369  53.4690735  87.9653250
  12.9200377  53.5816365  86.5155369  21.1851295  62.8624078  87.1769010
  21.4938422  62.6173224  88.0491709  21.9826777  63.0670716  86.6887880
  21.2071907  65.0161987  79.4074386  20.7676898  64.5238366  80.1007243
  21.9580024  64.4734955  79.1666461  13.6864246  61.2073528  79.4099014
  14.5122266  60.9077300  79.0297658  13.3358298  60.4381151  79.8588803
  18.6545780  60.5599996  81.4796688  18.0325789  59.8970701  81.1798916
  19.3250646  60.5861128  80.7970336  11.8872851  59.1259855  80.3687948
  11.0504760  58.6982029  80.1871949  11.8596497  59.3192298  81.3058739
  18.7270307  49.0381784  91.0729194  18.7758462  49.9143907  90.6906963
  19.2692821  48.4959177  90.5000837  29.2125153  59.5822908  90.3530331
  28.4220696  59.5647047  89.8134830  28.9758507  60.1211201  91.1079367
  29.3323028  56.4315374  87.6663059  29.3821033  56.2665381  88.6078582
  29.2236951  55.5642633  87.2760940  18.2159286  59.1103920  74.9555148
  18.3647407  59.7939384  74.3021821  19.0225730  59.0909010  75.4704604
  26.6226790  52.4146302  88.9822366  27.5236653  52.2752767  88.6906364
  26.6974765  52.5800757  89.9220544  20.9569595  49.7913157  87.8275552
  20.0872905  50.0846723  87.5558141  21.1929076  50.3753602  88.5482816
  30.8341225  58.8512316  87.9105081  30.5426033  59.2142296  88.7468542
  30.2213356  58.1379324  87.7318413  29.0828413  53.9744930  86.3785139
  29.5582534  54.1672577  85.5703990  28.1593978  54.0304116  86.1328523
  15.9711919  55.1369097  75.9616217  15.7257961  54.2331427  76.1596427
  16.1407834  55.1386248  75.0195695  23.6608629  46.0092774  85.3440973
  24.1790573  46.7453801  85.0187461  23.3063762  46.3156767  86.1787732
  15.2407567  50.8697455  73.4602379  14.5476812  50.9441810  72.8042415
  14.9959319  50.1057799  73.9823896  21.7154692  61.6052050  72.4266896
  21.1428659  62.2242237  71.9737368  22.2887486  62.1551412  72.9606818
  27.7830082  50.8510690  84.6113445  28.7347505  50.9508788  84.6325669
  27.6133532  50.0588959  85.1211529  25.8044461  47.9366273  84.7972845
  25.2094393  48.2171286  84.1019334  25.5194158  48.4260174  85.5689587
  24.9351952  61.8889200  73.5575478  25.8682625  61.8234762  73.7608354
  24.8475165  62.7245467  73.0990011  30.2618160  54.0716810  83.7255744
  30.2294480  53.1332811  83.9115428  30.8718783  54.1500847  82.9921569
  30.4112648  50.8627853  83.7714027  29.8951697  50.0786310  83.5843956
  31.2952597  50.5346570  83.9360547  36.0794709  55.1332817  82.8661781
  36.8098098  54.8718105  83.4269484  35.4701655  54.3961539  82.9063849
  21.9840183  56.9930609  91.2283605  22.9043192  57.1709208  91.4223652
  21.9489766  56.0486654  91.0763304  11.2022348  52.1869203  80.1536880
  10.8825132  51.3334511  79.8611254  10.6555776  52.4017781  80.9094847
  14.9802256  54.9031644  83.8706386  15.1988265  55.8348752  83.8894420
  15.3928029  54.5439618  84.6561190  19.8530121  50.4764849  93.2609135
  19.7526848  51.4259206  93.1921226  19.6351663  50.1483088  92.3885205
  19.0543192  47.7249775  69.8449813  19.9162356  48.0504673  70.1045630
  19.2393536  46.9381270  69.3322878  11.0710608  55.8072114  82.1230001
  10.3774079  55.3926067  81.6099956  11.8183599  55.8492651  81.5263420
  19.7161391  53.9061988  92.0774197  19.2328473  54.7062348  92.2838086
  19.8022330  53.9169933  91.1241641  12.9847351  55.7390368  79.9996016
  12.9618039  55.8378055  79.0477899  13.2947987  56.5855519  80.3213182
  15.6434728  57.7966523  84.1142631  16.5977982  57.7650465  84.0472562
  15.4447252  57.3357147  84.9292857  16.2334111  56.3667639  86.6813428
  17.0527000  56.8611718  86.7048266  16.5070918  55.4499607  86.6530996
  13.9984957  63.3386143  81.1312829  13.8639425  62.5786543  80.5650827
  13.5817019  64.0627042  80.6641617  25.1343920  58.5223066  70.1389404
  25.8379770  58.7273069  70.7547059  24.4106569  59.0899828  70.4038487
  17.1554083  64.2355460  81.3431271  17.0386467  65.1800892  81.2409962
  16.3346529  63.9329021  81.7317070  11.4869025  50.7005773  87.3805625
  12.1327888  50.1904727  87.8692851  11.2786176  51.4374455  87.9549051
  24.0122417  57.7686620  92.8797766  24.8813577  57.9427273  92.5184401
  23.5329168  58.5881037  92.7573495  18.1808597  64.8883721  84.5587200
  19.0835844  64.9207332  84.8753695  17.9545967  63.9584172  84.5733535
  19.9362199  63.6414708  81.2197278  18.9857830  63.6416570  81.1061651
  20.2394685  62.8947443  80.7033313  15.8266516  47.8473390  91.4780640
  16.6897977  47.4910195  91.6883964  15.2531926  47.5087285  92.1656044
  35.6714893  69.4775246  82.2843041  36.3093303  69.3581994  81.5806381
  35.5535736  70.4256090  82.3430993  32.4804599  69.4302674  82.2204565
  32.1423111  69.3143739  81.3325100  33.3494367  69.0293840  82.2005572
  28.3391415  71.2838151  78.2101456  27.7756280  71.1928088  77.4417744
  28.2243810  70.4638055  78.6903949  32.9624382  70.5837526  88.1790771
  32.9513023  70.1890324  87.3071275  33.1245021  69.8503599  88.7724542
  25.8855847  72.7789342  81.0485677  26.6777139  72.4380167  80.6331976
  26.1252497  72.8884318  81.9687830  27.8446601  72.0398256  73.9203056
  28.6177477  71.4927243  73.7815931  28.1971999  72.9042505  74.1317517
  29.6831643  73.3674638  87.1269955  29.3921509  74.2720269  87.0116621
  30.3188627  73.4091166  87.8414024  30.6087850  70.7451487  83.7171315
  31.2051422  70.5207509  83.0028277  30.6662822  70.0036232  84.3196762
  30.1812878  68.1990922  71.5521505  30.4338399  67.6772443  70.7904969
  29.2437437  68.0357067  71.6548189  29.9009167  70.1019028  73.7545880
  29.7845425  69.4263931  74.4226965  30.0111427  69.6151402  72.9378034
  32.2440708  69.5629175  77.4592570  31.8798915  69.0359796  78.1705491
  33.1007824  69.1727644  77.2859055  34.6421528  73.0536054  84.1219749
  34.3422251  73.9561092  84.0135556  34.2972588  72.7868237  84.9740901
  28.0934010  69.5049850  80.1556453  27.1684506  69.3726064  80.3634145
  28.3418423  70.2844070  80.6526395  31.8635416  67.0476732  73.4400585
  31.7435041  67.4933783  74.2786065  31.1688004  67.3962050  72.8814123
  25.4542821  69.1483124  80.9900242  25.5835202  69.4017603  81.9039654
  24.7740272  69.7410832  80.6704897  29.6242308  79.8180374  77.0890716
  29.5466338  80.7688199  77.1679197  29.0203952  79.4726246  77.7465643
  32.1159538  66.9908239  89.7452083  31.3392872  67.5502159  89.7354948
  32.7550101  67.4765022  90.2666953  37.5620482  67.5198205  74.2680919
  38.4738338  67.7525592  74.0928617  37.0530129  68.1035250  73.7055998
  30.3705910  69.7993693  89.3070050  31.1120594  70.3378737  89.0304874
  29.6642896  70.4259981  89.4641602  35.8461250  71.9422833  87.9042212
  36.2544606  71.5005244  87.1596844  35.1238511  71.3675461  88.1576405
  32.1992320  66.8795440  85.2775769  33.0453515  67.3034853  85.4210418
  32.1390957  66.2229064  85.9714332  36.1690064  72.5024024  81.6594501
  35.5398927  72.6669738  80.9570568  35.7815726  72.9165633  82.4305465
  40.0479296  73.4378462  79.0138864  39.3630334  73.8177363  78.4635898
  40.1323146  74.0473788  79.7470812  35.3491765  64.5399808  86.9356942
  35.1052697  65.2941869  86.3991218  35.6251696  64.9185156  87.7704189
  37.3030228  71.0838421  85.6134208  37.5147123  71.7270181  84.9368589
  37.2559976  70.2500737  85.1456138  31.7218026  72.2398432  78.9244586
  32.1856372  72.5186135  78.1349208  31.4574824  71.3381876  78.7417676
  28.6142107  71.7869913  81.8624349  29.1843464  72.2157182  81.2241833
  29.2050219  71.5052498  82.5608535  30.6586912  68.3621584  75.7334151
  31.3610956  68.8142628  76.2008077  30.3267541  67.7205403  76.3614044
  29.1067274  66.9533341  90.1085360  28.4765934  67.6349622  90.3420757
  29.0003362  66.8416422  89.1638498  24.4012246  66.6205137  81.0351284
  23.6111300  66.8762665  80.5591395  24.8923494  67.4353475  81.1403325
  38.4176056  73.9610376  83.7856565  39.2393500  73.5590563  83.5039247
  38.4138459  73.8578610  84.7372681  26.3526992  66.9849716  77.9934761
  25.5558155  67.0968410  78.5118257  26.1252584  67.3236368  77.1275652
  32.1832659  73.5094419  85.9417276  32.2477092  73.9714827  86.7775448
  31.4743583  72.8791784  86.0699586  22.6849949  66.8735627  83.4666275
  22.9357988  67.7582637  83.7323851  23.2209498  66.6940229  82.6941367
  46.5082049  70.3049125  80.1341537  45.7545757  69.7356523  79.9785541
  46.6429590  70.2711789  81.0812171  31.8980677  75.1762527  75.8096256
  31.7626352  76.0214063  76.2381104  32.4390489  75.3781804  75.0462190
  28.3848017  61.2554107  92.4710611  27.9914962  60.7020305  93.1458255
  29.2014157  61.5664685  92.8617129  25.3510074  72.6937965  76.3824181
  25.8634595  73.4881215  76.5329746  26.0032787  71.9964255  76.3157783
  27.1604959  75.8103721  78.4646934  27.3371587  76.7321686  78.2767918
  27.9561793  75.4962140  78.8941314  31.3015978  62.6711986  90.0630868
  32.0425691  63.2719139  89.9835330  31.5333900  61.9289624  89.5048910
  26.4457316  67.8568353  88.3409097  26.3310831  66.9553610  88.6416196
  25.5901833  68.1032050  87.9893914  33.5249153  75.7986093  89.9396598
  33.0813007  75.0122472  89.6217503  34.1866367  75.9865244  89.2740489
  28.2836274  77.3281895  84.4657277  28.8343700  77.1998958  83.6934271
  27.4447750  77.6276784  84.1152169  35.6230391  76.0788893  87.9677999
  35.6048867  76.8997774  87.4758269  36.5450311  75.9542968  88.1928141
  32.0803446  73.5933023  88.8101508  32.6131782  72.8321311  88.5800816
  31.5517527  73.3006675  89.5525662  35.2473140  58.6993089  84.3395149
  34.9037410  59.5894730  84.2634260  35.6152103  58.5094746  83.4764734
  23.3158991  71.0226619  77.1583752  24.1534213  71.4323628  76.9417459
  23.4937259  70.0826061  77.1283946  35.2123423  68.6901700  72.8467585
  34.6970047  69.4606304  73.0855972  34.9400732  68.0166836  73.4700646
  35.0009726  66.5628792  74.6727366  34.6959862  66.8774941  75.5237509
  35.9540169  66.6410212  74.7154699  33.4456158  72.7219015  76.3220320
  32.9177520  71.9871775  76.0093557  32.9443661  73.4993692  76.0760288
  38.4249004  70.9168036  81.4387366  37.7672679  71.6067297  81.5267495
  39.2289403  71.3064468  81.7821352  37.2354463  69.2712408  79.4891308
  37.7486345  69.9042400  79.9913018  37.8855687  68.6713604  79.1234668
  28.5044473  65.4143143  72.7022817  27.6681785  65.7517829  73.0232091
  28.3649243  65.2792122  71.7649954  33.7135294  66.7461864  81.7349648
  32.7957855  66.9676811  81.5771336  34.1295438  66.8208174  80.8761356
  34.4970342  68.1453280  76.8652329  35.2442161  68.6574677  76.5559451
  34.7661931  67.8237332  77.7256722  32.7696992  70.6411820  73.8479283
  31.8608211  70.3570853  73.9451753  32.7992076  71.0610899  72.9882590
  36.4449199  76.0894907  78.5520269  36.7372173  76.6499964  77.8332634
  36.9547819  76.3823468  79.3073428  23.3385162  68.3617334  77.8294485
  23.1409562  67.7686695  77.1045552  22.7831826  68.0569545  78.5470424
  31.3181886  68.2540441  79.9489078  31.3730496  67.3014277  79.8731555
  30.5073088  68.4099880  80.4330377  29.2574246  66.8717501  77.7079457
  28.4442111  67.1711671  78.1144649  29.7533240  66.4773189  78.4253939
  31.4082824  76.8675258  79.6413722  31.3659002  77.0936104  78.7122254
  32.3245523  76.6338632  79.7899523  34.8548457  67.3359325  86.5394351
  35.2097845  67.5630798  87.3988817  35.5020589  67.6677702  85.9171606
  28.7488321  64.4435856  83.3240692  29.3887700  64.3024615  82.6263655
  27.9165851  64.1570370  82.9479294  40.6115574  72.5254288  82.2554952
  41.0452081  72.4329577  83.1038006  41.3247155  72.5011789  81.6174968
  29.5248624  73.7438287  79.4375684  30.3189223  73.2488607  79.2358259
  28.8140317  73.2156150  79.0743390  34.3443469  76.1256382  83.7888052
  34.3980491  76.6947319  84.5565768  33.4758250  76.2958267  83.4242089
  25.8331388  67.8881368  75.5135437  24.9028976  67.8265824  75.7305399
  25.9288860  67.3657321  74.7172078  25.7516937  64.4136181  78.1013679
  26.0123754  65.3281514  77.9922839  26.5734109  63.9460624  78.2510292
  27.2241862  65.8273938  85.2712503  27.8964916  65.6191301  84.6225152
  26.3971649  65.6296024  84.8317736  41.4731124  72.5677989  84.7887837
  41.6667014  73.4723799  85.0347112  41.3731742  72.1085408  85.6226422
  33.1267434  62.4535879  87.2878164  32.4795349  63.1525829  87.1942641
  33.8968450  62.8872023  87.6554412  36.5346232  72.7184731  90.3628718
  36.3831739  72.4895283  89.4458801  36.5250912  73.6755333  90.3760063
  33.3031569  70.2916644  85.3474984  34.2323629  70.4427804  85.1743951
  32.8822599  70.3800665  84.4923630  32.1019900  74.3167309  83.1173522
  31.9630986  73.9486093  83.9899460  31.3134497  74.8314948  82.9457479
  33.6525116  73.6948911  80.5062359  33.3174948  73.6549681  81.4020009
  33.1529061  73.0293627  80.0332770  27.6269360  69.1016541  86.0314941
  27.4889158  68.3696780  86.6326480  28.5374283  69.0125441  85.7499128
  30.2551660  68.8136501  85.5198620  30.9651279  68.1729693  85.4785239
  30.2120968  69.0649396  86.4424801  38.2438439  75.7503854  88.4405199
  38.1850985  75.0663074  87.7735782  38.6457957  76.4922844  87.9885825
  28.9680594  65.8001719  87.3394260  28.4317951  65.3492457  87.9915856
  28.3797303  65.9347627  86.5964724  27.2629138  82.5665768  81.2338918
  27.5025736  83.1984292  81.9117937  26.4198334  82.2153808  81.5204278
  28.3782853  65.2590370  69.9020723  27.5012319  65.1379171  69.5382970
  28.8540606  64.4676448  69.6499612  38.2455846  73.7143438  86.6719179
  37.3582625  73.3769360  86.7945578  38.8154397  72.9826469  86.9087944
  19.8984993  70.0467530  79.9962230  20.5856033  69.7329260  79.4083246
  19.7433122  70.9508894  79.7229482  24.7019715  64.9357726  84.4247254
  24.6177904  64.3283396  83.6897664  23.8802422  65.4266745  84.4256750
  31.7757000  78.3744890  83.6380422  31.7027171  79.1799862  84.1499727
  31.3334393  78.5736856  82.8128444  31.5646779  77.6116660  77.1483244
  30.7814301  78.1538341  77.2421468  32.2639524  78.1290640  77.5477485
  42.7273187  69.1251655  81.4335741  42.7163063  70.0076371  81.0629674
  41.8590566  68.7723206  81.2390278  34.2355683  78.2731724  85.7938581
  34.9483655  78.9079189  85.7214482  33.7445712  78.3695590  84.9778583
  29.2867597  76.0226168  86.6144152  29.9877056  76.6562651  86.7673546
  28.8162712  76.3640899  85.8539791  37.0868883  68.5770775  84.4396702
  36.4340333  68.8246683  83.7849155  37.4649263  67.7634913  84.1059179
  34.0476056  78.6130468  78.5424872  34.2298451  77.7952124  79.0052625
  34.8709042  78.8298161  78.1049762  33.1356456  69.3190586  90.9262739
  32.4597093  69.2184716  91.5965114  33.9584090  69.1629800  91.3898736
  24.8835315  75.5562523  83.5475254  25.4688752  74.8106211  83.6803159
  24.6860153  75.8666480  84.4311918  27.7373970  78.5913770  78.5637697
  27.0684345  79.0759898  78.0801737  27.5986840  78.8382991  79.4781075
  19.4752969  68.1268123  82.2679698  19.5137069  67.5931714  83.0616816
  18.9693262  67.6003329  81.6490675  31.8779239  80.6257514  85.1620355
  32.4297547  80.7889135  85.9269440  32.2185432  81.2161952  84.4900380
  26.8543732  62.9732664  85.7642240  26.9185058  63.8347494  85.3519638
  26.7910852  62.3606665  85.0314598  26.3296004  65.0455796  89.4115274
  26.9568043  64.6632873  90.0252798  25.4723923  64.8269998  89.7770967
  36.7290113  75.4518771  91.0169010  37.2730017  76.0648730  90.5223964
  36.1476958  76.0098350  91.5336023  23.1061547  66.8532225  75.3433629
  23.4014988  65.9442904  75.2900683  22.2049583  66.8319965  75.0214631
  35.0147626  78.5739489  82.1484037  34.8898765  77.7729229  81.6394983
  35.6726717  79.0685683  81.6598007  26.6355794  64.9288222  81.3261178
  25.9142380  65.5424190  81.1868651  27.4249050  65.4645987  81.2477824
  37.0782534  76.3748509  83.7763587  36.1312870  76.2553861  83.7041914
  37.4265307  75.4871007  83.8589849  29.4382108  62.2642648  87.6001829
  29.9616509  62.5104945  88.3628139  29.2194441  63.0962683  87.1804967
  24.8349389  64.5346323  75.4672954  24.5062095  63.6543702  75.2848060
  25.1888759  64.4793992  76.3549343  34.0828967  76.1701226  79.9767940
  33.9353930  75.2417933  80.1575510  34.9082461  76.1921316  79.4925015
  37.6863089  76.9929784  81.0632812  38.6109637  76.7872646  80.9257264
  37.5178393  76.7446185  81.9722154  30.6434653  63.2056343  85.2851500
  30.3031473  62.4064156  85.6872180  29.9373659  63.5058054  84.7128333
  28.8189703  66.9824776  81.5470801  28.6734284  67.2965080  82.4395083
  28.3414907  67.6009677  80.9941700  32.5312217  64.4064665  83.6404818
  32.2729995  65.3281735  83.6389149  31.9997257  64.0095099  84.3305283
  37.4758406  77.5115452  76.4194904  37.6495283  76.9461874  75.6668756
  37.9687297  78.3116347  76.2374394  23.2935365  69.5230121  84.4858463
  22.7488833  70.2989929  84.6178737  24.1714715  69.8700925  84.3277584
  24.0801387  68.6500017  87.3788620  23.3383123  68.7982652  87.9653250
  23.7594131  68.9108283  86.5155369  32.0245050  78.1915995  87.1769010
  32.3332176  77.9465142  88.0491709  32.8220532  78.3962634  86.6887880
  32.0465662  80.3453905  79.4074386  31.6070652  79.8530284  80.1007243
  32.7973779  79.8026873  79.1666461  24.5258001  76.5365446  79.4099014
  25.3516021  76.2369218  79.0297658  24.1752053  75.7673068  79.8588803
  29.4939534  75.8891914  81.4796688  28.8719543  75.2262619  81.1798916
  30.1644401  75.9153046  80.7970336  22.7266606  74.4551772  80.3687948
  21.8898514  74.0273947  80.1871949  22.6990251  74.6484216  81.3058739
  29.5664062  64.3673702  91.0729194  29.6152217  65.2435825  90.6906963
  30.1086576  63.8251095  90.5000837  40.0518907  74.9114825  90.3530331
  39.2614451  74.8938964  89.8134830  39.8152262  75.4503119  91.1079367
  40.1716782  71.7607292  87.6663059  40.2214787  71.5957299  88.6078582
  40.0630706  70.8934551  87.2760940  29.0553041  74.4395837  74.9555148
  29.2041161  75.1231302  74.3021821  29.8619484  74.4200927  75.4704604
  37.4620545  67.7438220  88.9822366  38.3630407  67.6044685  88.6906364
  37.5368519  67.9092675  89.9220544  31.7963350  65.1205075  87.8275552
  30.9266659  65.4138641  87.5558141  32.0322830  65.7045520  88.5482816
  41.6734979  74.1804233  87.9105081  41.3819787  74.5434214  88.7468542
  41.0607110  73.4671242  87.7318413  42.8730661  71.7457113  80.4307651
  43.7077553  72.1846917  80.5945212  43.0089790  71.2695766  79.6115897
  39.9222167  69.3036848  86.3785139  40.3976289  69.4964494  85.5703990
  38.9987733  69.3596034  86.1328523  26.8105674  70.4661015  75.9616217
  26.5651716  69.5623345  76.1596427  26.9801588  70.4678166  75.0195695
  34.5002384  61.3384691  85.3440973  35.0184328  62.0745718  85.0187461
  34.1457517  61.6448685  86.1787732  26.0801321  66.1989373  73.4602379
  25.3870566  66.2733728  72.8042415  25.8353073  65.4349716  73.9823896
  41.1011914  69.4008728  83.7255744  41.0688234  68.4624728  83.9115428
  41.7112538  69.4792764  82.9921569  32.9395245  68.2704781  69.7682948
  33.8854350  68.1410989  69.8371366  32.5609490  67.5319443  70.2452376
  46.9188464  70.4624734  82.8661781  47.6491852  70.2010023  83.4269484
  46.3095409  69.7253456  82.9063849  45.0003761  68.6032597  83.4636232
  44.2736925  68.4688562  82.8552724  44.5851048  68.9109426  84.2692950
  32.8233937  72.3222527  91.2283605  33.7436947  72.5001126  91.4223652
  32.7883521  71.3778572  91.0763304  22.0416102  67.5161120  80.1536880
  21.7218887  66.6626429  79.8611254  21.4949531  67.7309699  80.9094847
  25.8196010  70.2323561  83.8706386  26.0382020  71.1640669  83.8894420
  26.2321784  69.8731536  84.6561190  30.6923875  65.8056767  93.2609135
  30.5920602  66.7551124  93.1921226  30.4745417  65.4775006  92.3885205
  21.9104362  71.1364032  82.1230001  21.2167834  70.7217985  81.6099956
  22.6577353  71.1784568  81.5263420  30.5555145  69.2353906  92.0774197
  30.0722227  70.0354266  92.2838086  30.6416084  69.2461851  91.1241641
  23.8241105  71.0682286  79.9996016  23.8011793  71.1669973  79.0477899
  24.1341742  71.9147436  80.3213182  26.4828483  73.1258441  84.1142631
  27.4371736  73.0942383  84.0472562  26.2841006  72.6649064  84.9292857
  27.0727865  71.6959557  86.6813428  27.8920754  72.1903635  86.7048266
  27.3464673  70.7791525  86.6530996  24.8378712  78.6678060  81.1312829
  24.7033180  77.9078461  80.5650827  24.4210774  79.3918960  80.6641617
  36.8035485  69.6024845  76.2591674  36.7470686  70.0593396  75.4199306
  37.3563827  68.8415530  76.0814517  44.9252629  68.1310650  79.5913085
  44.3652187  68.2003839  80.3644647  44.3196132  67.9551635  78.8712581
  27.9947838  79.5647377  81.3431271  27.8780222  80.5092810  81.2409962
  27.1740284  79.2620939  81.7317070  22.3262779  66.0297691  87.3805625
  22.9721643  65.5196645  87.8692851  22.1179930  66.7666372  87.9549051
  34.8516171  73.0978538  92.8797766  35.7207331  73.2719190  92.5184401
  34.3722923  73.9172955  92.7573495  29.0202352  80.2175639  84.5587200
  29.9229598  80.2499249  84.8753695  28.7939722  79.2876090  84.5733535
  30.7755954  78.9706626  81.2197278  29.8251585  78.9708487  81.1061651
  31.0788440  78.2239360  80.7033313  26.6660270  63.1765308  91.4780640
  27.5291732  62.8202113  91.6883964  26.0925681  62.8379203  92.1656044
  46.5108647  84.8067164  82.2843041  47.1487057  84.6873911  81.5806381
  46.3929490  85.7548008  82.3430993  43.3198353  84.7594592  82.2204565
  42.9816865  84.6435657  81.3325100  44.1888122  84.3585757  82.2005572
  39.1785169  86.6130069  78.2101456  38.6150034  86.5220006  77.4417744
  39.0637564  85.7929973  78.6903949  43.8018136  85.9129444  88.1790771
  43.7906777  85.5182242  87.3071275  43.9638776  85.1795517  88.7724542
  36.7249601  88.1081260  81.0485677  37.5170893  87.7672085  80.6331976
  36.9646251  88.2176235  81.9687830  44.7584728  90.2801036  73.5215921
  44.1072708  90.8655117  73.1349935  45.5529091  90.8107231  73.5810959
  38.6840355  87.3690173  73.9203056  39.4571231  86.8219161  73.7815931
  39.0365754  88.2334423  74.1317517  40.5225398  88.6966556  87.1269955
  40.2315264  89.6012187  87.0116621  41.1582382  88.7383083  87.8414024
  41.4481604  86.0743404  83.7171315  42.0445177  85.8499427  83.0028277
  41.5056576  85.3328150  84.3196762  41.0206633  83.5282840  71.5521505
  41.2732154  83.0064361  70.7904969  40.0831192  83.3648985  71.6548189
  46.0649916  82.5318618  79.3596249  46.8513005  82.1138041  79.0086666
  46.3288620  83.4364710  79.5277897  46.2359993  87.9691468  74.0584906
  45.6005826  88.0426095  74.7705810  45.9057399  88.5585067  73.3803985
  51.4658343  82.4693851  80.2629227  52.1983515  81.8993068  80.4967057
  50.7097699  82.0815452  80.7035733  40.7402922  85.4310946  73.7545880
  40.6239180  84.7555849  74.4226965  40.8505181  84.9443319  72.9378034
  43.0834463  84.8921093  77.4592570  42.7192670  84.3651714  78.1705491
  43.9401578  84.5019562  77.2859055  48.9883763  76.1815425  84.7223836
  48.6567088  77.0510836  84.4985051  48.3929377  75.8651709  85.4017866
  42.7239950  79.9210992  72.4553918  42.8914352  80.7891229  72.8224389
  42.5337119  80.0838274  71.5315207  45.4815283  88.3827971  84.1219749
  45.1816006  89.2853010  84.0135556  45.1366342  88.1160154  84.9740901
  38.9327764  84.8341768  80.1556453  38.0078261  84.7017982  80.3634145
  39.1812177  85.6135987  80.6526395  48.8812426  80.9010511  81.8017186
  47.9729304  80.8325920  81.5075947  48.8300022  81.3782456  82.6299011
  42.7029170  82.3768650  73.4400585  42.5828796  82.8225701  74.2786065
  42.0081759  82.7253967  72.8814123  36.2936575  84.4775042  80.9900242
  36.4228956  84.7309521  81.9039654  35.6134027  85.0702750  80.6704897
  40.4636063  95.1472292  77.0890716  40.3860092  96.0980117  77.1679197
  39.8597706  94.8018164  77.7465643  42.9553292  82.3200157  89.7452083
  42.1786626  82.8794077  89.7354948  43.5943855  82.8056940  90.2666953
  50.7474073  79.1026950  83.5795060  50.1048453  79.3959483  82.9334854
  50.2429001  78.9879870  84.3848256  41.2099665  85.1285610  89.3070050
  41.9514349  85.6670654  89.0304874  40.5036650  85.7551899  89.4641602
  46.6855004  87.2714751  87.9042212  47.0938360  86.8297161  87.1596844
  45.9632266  86.6967378  88.1576405  43.0386074  82.2087358  85.2775769
  43.8847269  82.6326771  85.4210418  42.9784712  81.5520982  85.9714332
  47.0083819  87.8315941  81.6594501  46.3792681  87.9961656  80.9570568
  46.6209481  88.2457551  82.4305465  50.8873051  88.7670379  79.0138864
  50.2024089  89.1469281  78.4635898  50.9716900  89.3765706  79.7470812
  46.1885520  79.8691726  86.9356942  45.9446451  80.6233786  86.3991218
  46.4645450  80.2477074  87.7704189  48.1423982  86.4130338  85.6134208
  48.3540878  87.0562098  84.9368589  48.0953731  85.5792655  85.1456138
  45.7450211  79.0248159  82.5170780  44.8834690  79.3229413  82.8087518
  45.7712646  79.2418558  81.5851813  42.5611781  87.5690350  78.9244586
  43.0250126  87.8478053  78.1349208  42.2968579  86.6673794  78.7417676
  39.4535862  87.1161831  81.8624349  40.0237219  87.5449099  81.2241833
  40.0443974  86.8344416  82.5608535  41.4980667  83.6913502  75.7334151
  42.2004710  84.1434546  76.2008077  41.1661295  83.0497321  76.3614044
  39.9461028  82.2825259  90.1085360  39.3159689  82.9641539  90.3420757
  39.8397116  82.1708340  89.1638498  35.2406001  81.9497055  81.0351284
  34.4505055  82.2054583  80.5591395  35.7317248  82.7645392  81.1403325
  49.2569810  89.2902294  83.7856565  50.0787254  88.8882481  83.5039247
  49.2532213  89.1870528  84.7372681  37.1920746  82.3141634  77.9934761
  36.3951909  82.4260328  78.5118257  36.9646338  82.6528286  77.1275652
  43.0226414  88.8386337  85.9417276  43.0870846  89.3006744  86.7775448
  42.3137338  88.2083702  86.0699586  33.5243704  82.2027545  83.4666275
  33.7751742  83.0874555  83.7323851  34.0603252  82.0232147  82.6941367
  57.3475803  85.6341042  80.1341537  56.5939512  85.0648440  79.9785541
  57.4823345  85.6003707  81.0812171  42.7374431  90.5054445  75.8096256
  42.6020106  91.3505980  76.2381104  43.2784244  90.7073722  75.0462190
  39.2241771  76.5846024  92.4710611  38.8308717  76.0312223  93.1458255
  40.0407911  76.8956603  92.8617129  36.1903829  88.0229883  76.3824181
  36.7028349  88.8173133  76.5329746  36.8426542  87.3256173  76.3157783
  37.9998714  91.1395639  78.4646934  38.1765342  92.0613604  78.2767918
  38.7955547  90.8254058  78.8941314  42.1409732  78.0003903  90.0630868
  42.8819445  78.6011057  89.9835330  42.3727655  77.2581541  89.5048910
  37.2851070  83.1860271  88.3409097  37.1704585  82.2845528  88.6416196
  36.4295588  83.4323967  87.9893914  44.3642908  91.1278011  89.9396598
  43.9206762  90.3414390  89.6217503  45.0260121  91.3157162  89.2740489
  39.1230029  92.6573813  84.4657277  39.6737454  92.5290876  83.6934271
  38.2841505  92.9568702  84.1152169  46.4624146  91.4080811  87.9677999
  46.4442621  92.2289692  87.4758269  47.3844066  91.2834886  88.1928141
  42.9197200  88.9224940  88.8101508  43.4525537  88.1613229  88.5800816
  42.3911281  88.6298592  89.5525662  46.0866895  74.0285006  84.3395149
  45.7431164  74.9186648  84.2634260  46.4545858  73.8386664  83.4764734
  34.1552746  86.3518537  77.1583752  34.9927968  86.7615545  76.9417459
  34.3331013  85.4117979  77.1283946  46.0517178  84.0193617  72.8467585
  45.5363801  84.7898222  73.0855972  45.7794486  83.3458754  73.4700646
  43.6364289  78.8643318  77.9052823  42.7805885  78.4750169  77.7258462
  44.0491240  78.9435279  77.0452608  45.1663435  76.3989662  82.3044383
  44.6628231  76.3619797  81.4912188  45.4594042  77.3082404  82.3641039
  41.4106321  76.4828391  81.3110564  42.2759318  76.2871200  80.9516454
  41.4783830  76.2538743  82.2379921  51.0251452  86.7725972  74.7820758
  50.2480895  86.4337132  74.3375920  51.7042933  86.7778595  74.1075723
  45.8403481  81.8920710  74.6727366  45.5353616  82.2066859  75.5237509
  46.7933923  81.9702129  74.7154699  44.2849913  88.0510933  76.3220320
  43.7571274  87.3163692  76.0093557  43.7837415  88.8285609  76.0760288
  49.2642759  86.2459953  81.4387366  48.6066433  86.9359215  81.5267495
  50.0683158  86.6356385  81.7821352  39.0168640  78.7130599  78.6826931
  39.5912392  78.4905781  77.9500124  39.6039623  78.7819294  79.4355533
  48.0748218  84.6004326  79.4891308  48.5880099  85.2334318  79.9913018
  48.7249441  84.0005522  79.1234668  39.3438227  80.7435060  72.7022817
  38.5075540  81.0809747  73.0232091  39.2042997  80.6084040  71.7649954
  41.3191308  75.5871848  77.4102001  40.6655720  75.2720865  76.7858615
  41.2771782  74.9647589  78.1361824  42.4302513  85.8691143  69.3255293
  41.5229575  85.6380397  69.5246442  42.9273545  85.0728762  69.5129274
  45.3370592  94.5788650  72.2451979  44.6632291  94.8820347  72.8536937
  45.7236414  95.3817731  71.8957436  44.5529048  82.0753782  81.7349648
  43.6351610  82.2968729  81.5771336  44.9689192  82.1500092  80.8761356
  45.3364096  83.4745197  76.8652329  46.0835915  83.9866595  76.5559451
  45.6055686  83.1529250  77.7256722  43.6090746  85.9703738  73.8479283
  42.7001966  85.6862771  73.9451753  43.6385830  86.3902817  72.9882590
  48.8410014  89.5810328  77.6170450  48.3872341  88.7401237  77.6735641
  48.2103980  90.2171726  77.9545231  47.7842933  80.5102314  78.8471118
  47.0465690  79.9979700  79.1781360  48.0369707  80.0702695  78.0354395
  47.2842953  91.4186824  78.5520269  47.5765927  91.9791881  77.8332634
  47.7941574  91.7115385  79.3073428  34.1778917  83.6909252  77.8294485
  33.9803317  83.0978613  77.1045552  33.6225581  83.3861462  78.5470424
  42.1575640  83.5832359  79.9489078  42.2124250  82.6306195  79.8731555
  41.3466842  83.7391798  80.4330377  43.3066834  87.5112482  71.1867361
  42.8686264  86.7948341  70.7272999  44.0477275  87.7388597  70.6252453
  40.0968000  82.2009418  77.7079457  39.2835866  82.5003589  78.1144649
  40.5926994  81.8065107  78.4253939  42.2476578  92.1967175  79.6413722
  42.2052757  92.4228022  78.7122254  43.1639277  91.9630550  79.7899523
  45.6942212  82.6651243  86.5394351  46.0491600  82.8922716  87.3988817
  46.3414343  82.9969620  85.9171606  51.4239949  85.7869679  77.2443680
  51.2857848  85.9771275  76.3164869  51.0676168  86.5489062  77.7011731
  39.5882075  79.7727774  83.3240692  40.2281454  79.6316533  82.6263655
  38.7559606  79.4862287  82.9479294  51.4509329  87.8546206  82.2554952
  51.8845835  87.7621495  83.1038006  52.1640909  87.8303706  81.6174968
  40.3642379  89.0730204  79.4375684  41.1582977  88.5780524  79.2358259
  39.6534071  88.5448067  79.0743390  45.1837223  91.4548300  83.7888052
  45.2374246  92.0239236  84.5565768  44.3152005  91.6250185  83.4242089
  36.6725142  83.2173286  75.5135437  35.7422731  83.1557742  75.7305399
  36.7682614  82.6949239  74.7172078  36.5910691  79.7428099  78.1013679
  36.8517509  80.6573432  77.9922839  37.4127864  79.2752541  78.2510292
  38.0635617  81.1565856  85.2712503  38.7358670  80.9483218  84.6225152
  37.2365403  80.9587942  84.8317736  52.3124878  87.8969906  84.7887837
  52.5060768  88.8015717  85.0347112  52.2125496  87.4377325  85.6226422
  43.9661189  77.7827797  87.2878164  43.3189104  78.4817747  87.1942641
  44.7362204  78.2163941  87.6554412  47.3739987  88.0476649  90.3628718
  47.2225493  87.8187201  89.4458801  47.3644666  89.0047251  90.3760063
  44.1425323  85.6208562  85.3474984  45.0717383  85.7719722  85.1743951
  43.7216353  85.7092583  84.4923630  42.9413655  89.6459226  83.1173522
  42.8024741  89.2778011  83.9899460  42.1528251  90.1606866  82.9457479
  43.5361807  94.7468323  74.4599058  43.7113563  94.2756366  75.2744681
  42.8494595  95.3734089  74.6880319  44.4918870  89.0240829  80.5062359
  44.1568703  88.9841599  81.4020009  43.9922816  88.3585545  80.0332770
  38.4663114  84.4308459  86.0314941  38.3282912  83.6988698  86.6326480
  39.3768038  84.3417359  85.7499128  41.0945415  84.1428418  85.5198620
  41.8045033  83.5021611  85.4785239  41.0514723  84.3941313  86.4424801
  49.0832193  91.0795772  88.4405199  49.0244740  90.3954992  87.7735782
  49.4851712  91.8214762  87.9885825  39.8074349  81.1293636  87.3394260
  39.2711706  80.6784375  87.9915856  39.2191057  81.2639545  86.5964724
  38.1022892  97.8957686  81.2338918  38.3419490  98.5276210  81.9117937
  37.2592089  97.5445726  81.5204278  39.2176608  80.5882288  69.9020723
  38.3406074  80.4671088  69.5382970  39.6934361  79.7968366  69.6499612
  49.0849601  89.0435356  86.6719179  48.1976379  88.7061277  86.7945578
  49.6548152  88.3118387  86.9087944  30.7378748  85.3759447  79.9962230
  31.4249788  85.0621177  79.4083246  30.5826876  86.2800812  79.7229482
  35.5413470  80.2649644  84.4247254  35.4571659  79.6575314  83.6897664
  34.7196176  80.7558662  84.4256750  42.6150754  93.7036808  83.6380422
  42.5420926  94.5091779  84.1499727  42.1728147  93.9028774  82.8128444
  42.4040534  92.9408578  77.1483244  41.6208056  93.4830258  77.2421468
  43.1033279  93.4582558  77.5477485  45.7137184  78.7503207  79.7917449
  46.2105883  77.9973170  79.4718519  44.9424165  78.7867524  79.2260659
  53.5666941  84.4543573  81.4335741  53.5556817  85.3368288  81.0629674
  52.6984321  84.1015124  81.2390278  45.0749438  93.6023642  85.7938581
  45.7877410  94.2371107  85.7214482  44.5839466  93.6987508  84.9778583
  46.7966965  87.5074895  77.3655873  45.8623243  87.6276357  77.1960577
  46.9743633  86.6047361  77.1015882  42.2972153  80.8920590  79.5189134
  41.9269940  80.3391631  80.2070039  42.7931245  80.2878724  78.9664134
  50.1839516  83.3492214  77.9005907  50.6499968  84.1820206  77.8266209
  50.6347016  82.8837196  78.6051165  40.1261351  91.3518085  86.6144152
  40.8270811  91.9854568  86.7673546  39.6556466  91.6932817  85.8539791
  48.2515747  89.6936035  74.8992059  48.5275591  89.5792630  75.8085933
  47.3820246  89.2953520  74.8604232  48.1556179  75.7172801  81.9396808
  47.2419258  75.9477028  82.1079015  48.5849280  75.8011245  82.7910840
  47.9262637  83.9062693  84.4396702  47.2734087  84.1538600  83.7849155
  48.3043017  83.0926831  84.1059179  44.8869811  93.9422386  78.5424872
  45.0692206  93.1244042  79.0052625  45.7102797  94.1590078  78.1049762
  45.2211976  92.8690571  75.8039921  45.7499743  92.3583026  75.1910083
  45.4840196  92.5533101  76.6685454  43.9750210  84.6482504  90.9262739
  43.2990847  84.5476633  91.5965114  44.7977844  84.4921718  91.3898736
  35.7229069  90.8854441  83.5475254  36.3082506  90.1398128  83.6803159
  35.5253908  91.1958397  84.4311918  38.5767724  93.9205688  78.5637697
  37.9078100  94.4051816  78.0801737  38.4380594  94.1674908  79.4781075
  30.3146724  83.4560041  82.2679698  30.3530823  82.9223631  83.0616816
  29.8087017  82.9295246  81.6490675  42.7172993  95.9549431  85.1620355
  43.2691301  96.1181053  85.9269440  43.0579186  96.5453869  84.4900380
  37.6937486  78.3024581  85.7642240  37.7578813  79.1639412  85.3519638
  37.6304606  77.6898583  85.0314598  37.1689759  80.3747714  89.4115274
  37.7961798  79.9924791  90.0252798  36.3117678  80.1561916  89.7770967
  47.5683867  90.7810689  91.0169010  48.1123771  91.3940647  90.5223964
  46.9870712  91.3390267  91.5336023  33.9455302  82.1824143  75.3433629
  34.2408743  81.2734821  75.2900683  33.0443337  82.1611882  75.0214631
  45.8541380  93.9031407  82.1484037  45.7292520  93.1021147  81.6394983
  46.5120471  94.3977600  81.6598007  37.4749549  80.2580139  81.3261178
  36.7536134  80.8716107  81.1868651  38.2642804  80.7937904  81.2477824
  47.9176289  91.7040427  83.7763587  46.9706624  91.5845778  83.7041914
  48.2659062  90.8162925  83.8589849  40.2775862  77.5934566  87.6001829
  40.8010264  77.8396863  88.3628139  40.0588195  78.4254601  87.1804967
  44.9222722  91.4993143  79.9767940  44.7747684  90.5709851  80.1575510
  45.7476215  91.5213234  79.4925015  38.7884966  80.1511210  75.8348432
  39.1281039  80.6797132  75.1127040  39.2357087  80.4891616  76.6106998
  48.5256844  92.3221702  81.0632812  49.4503391  92.1164563  80.9257264
  48.3572147  92.0738103  81.9722154  41.4828407  78.5348261  85.2851500
  41.1425227  77.7356074  85.6872180  40.7767413  78.8349972  84.7128333
  42.1344879  75.6197573  83.7378823  42.9570948  75.1458052  83.6157713
  42.3782942  76.3988057  84.2377509  40.7753113  78.6485832  74.0341725
  41.4961476  79.0267085  73.5305441  40.1518418  79.3674709  74.1376703
  44.9184236  79.3530981  74.9700057  45.1347851  80.2355619  74.6688885
  44.4378303  78.9617194  74.2405699  39.6583458  82.3116694  81.5470801
  39.5128038  82.6256997  82.4395083  39.1808661  82.9301594  80.9941700
  41.5179841  79.3019242  81.5951691  41.5041409  78.4060335  81.2583989
  42.2352269  79.3089906  82.2289977  43.3705971  79.7356582  83.6404818
  43.1123749  80.6573653  83.6389149  42.8391012  79.3387017  84.3305283
  48.3152160  92.8407369  76.4194904  48.4889038  92.2753792  75.6668756
  48.8081051  93.6408264  76.2374394  34.1329120  84.8522039  84.4858463
  33.5882588  85.6281847  84.6178737  35.0108470  85.1992843  84.3277584
  40.9216736  78.1833622  76.8639261  41.0432648  77.2550269  77.0630149
  40.6318779  78.1972308  75.9517577  43.7907927  75.8688533  80.0005981
  43.8129624  75.9327866  79.0457961  44.2075986  75.0293041  80.1946487
  54.1691551  85.6043792  78.0385204  54.6122697  84.8551118  77.6404327
  53.2918061  85.5953929  77.6558936  49.3027333  92.1574134  73.5191802
  49.9978237  92.7780827  73.7379117  49.6450483  91.3069485  73.7944180
  34.9195142  83.9791935  87.3788620  34.1776878  84.1274570  87.9653250
  34.5987886  84.2400200  86.5155369  51.2018756  89.6073839  75.0479133
  51.7270080  89.9461112  74.3228453  51.1141108  88.6720855  74.8642268
  42.8638804  93.5207913  87.1769010  43.1725931  93.2757060  88.0491709
  43.6614286  93.7254551  86.6887880  42.8859416  95.6745823  79.4074386
  42.4464407  95.1822201  80.1007243  43.6367533  95.1318790  79.1666461
  35.3651755  91.8657364  79.4099014  36.1909775  91.5661135  79.0297658
  35.0145807  91.0964986  79.8588803  40.3333289  91.2183832  81.4796688
  39.7113298  90.5554537  81.1798916  41.0038155  91.2444964  80.7970336
  33.5660360  89.7843690  80.3687948  32.7292269  89.3565864  80.1871949
  33.5384006  89.9776133  81.3058739  40.4057816  79.6965620  91.0729194
  40.4545971  80.5727743  90.6906963  40.9480330  79.1543013  90.5000837
  50.8912662  90.2406743  90.3530331  50.1008205  90.2230882  89.8134830
  50.6546016  90.7795037  91.1079367  51.0110537  87.0899209  87.6663059
  51.0608542  86.9249217  88.6078582  50.9024460  86.2226468  87.2760940
  39.8946795  89.7687755  74.9555148  40.0434916  90.4523219  74.3021821
  40.7013239  89.7492845  75.4704604  48.3014299  83.0730137  88.9822366
  49.2024162  82.9336602  88.6906364  48.3762274  83.2384592  89.9220544
  42.6357104  80.4496992  87.8275552  41.7660414  80.7430558  87.5558141
  42.8716585  81.0337437  88.5482816  52.5128734  89.5096151  87.9105081
  52.2213542  89.8726131  88.7468542  51.9000865  88.7963159  87.7318413
  53.7124416  87.0749031  80.4307651  54.5471307  87.5138835  80.5945212
  53.8483545  86.5987684  79.6115897  50.7615922  84.6328766  86.3785139
  51.2370043  84.8256412  85.5703990  49.8381487  84.6887951  86.1328523
  37.6499428  85.7952933  75.9616217  37.4045470  84.8915263  76.1596427
  37.8195343  85.7970083  75.0195695  45.3396138  76.6676609  85.3440973
  45.8578082  77.4037636  85.0187461  44.9851271  76.9740602  86.1787732
  36.9195076  81.5281290  73.4602379  36.2264321  81.6025645  72.8042415
  36.6746828  80.7641634  73.9823896  45.5908732  73.0876892  80.8641869
  45.8710486  72.4200081  81.4902296  46.3759339  73.2805987  80.3516533
  43.3942201  92.2635886  72.4266896  42.8216168  92.8826073  71.9737368
  43.9674995  92.8135247  72.9606818  49.4617591  81.5094526  84.6113445
  50.4135014  81.6092623  84.6325669  49.2921041  80.7172794  85.1211529
  47.4831970  78.5950109  84.7972845  46.8881902  78.8755122  84.1019334
  47.1981667  79.0844010  85.5689587  46.6139461  92.5473036  73.5575478
  47.5470134  92.4818597  73.7608354  46.5262674  93.3829303  73.0990011
  51.9405669  84.7300645  83.7255744  51.9081989  83.7916646  83.9115428
  52.5506292  84.8084682  82.9921569  43.7788999  83.5996698  69.7682948
  44.7248104  83.4702906  69.8371366  43.4003244  82.8611360  70.2452376
  52.0900157  81.5211689  83.7714027  51.5739206  80.7370145  83.5843956
  52.9740106  81.1930405  83.9360547  57.7582218  85.7916652  82.8661781
  58.4885607  85.5301940  83.4269484  57.1489164  85.0545374  82.9063849
  55.8397516  83.9324515  83.4636232  55.1130679  83.7980480  82.8552724
  55.4244802  84.2401343  84.2692950  43.6627692  87.6514444  91.2283605
  44.5830701  87.8293043  91.4223652  43.6277275  86.7070490  91.0763304
  41.9631917  81.5246675  69.7037833  41.0563372  81.2279787  69.7800547
  42.2407898  81.2276493  68.8372120  32.8809857  82.8453038  80.1536880
  32.5612641  81.9918346  79.8611254  32.3343285  83.0601616  80.9094847
  36.6589765  85.5615479  83.8706386  36.8775774  86.4932587  83.8894420
  37.0715538  85.2023453  84.6561190  41.5317630  81.1348685  93.2609135
  41.4314357  82.0843042  93.1921226  41.3139172  80.8066924  92.3885205
  32.7498117  86.4655950  82.1230001  32.0561588  86.0509902  81.6099956
  33.4971108  86.5076486  81.5263420  47.3366904  76.6567194  79.1906356
  47.8366682  76.7683729  78.3820675  47.9802512  76.3528247  79.8307164
  41.3948900  84.5645824  92.0774197  40.9115982  85.3646184  92.2838086
  41.4809839  84.5753769  91.1241641  34.6634860  86.3974203  79.9996016
  34.6405548  86.4961891  79.0477899  34.9735496  87.2439354  80.3213182
  37.3222237  88.4550358  84.1142631  38.2765491  88.4234301  84.0472562
  37.1234761  87.9940982  84.9292857  37.9121620  87.0251474  86.6813428
  38.7314509  87.5195553  86.7048266  38.1858427  86.1083443  86.6530996
  51.0202752  79.4408748  79.7595723  51.7963142  79.9305200  80.0320340
  50.2950886  79.8666802  80.2167593  53.4575310  80.1536367  80.8169664
  54.0519801  79.9132103  80.1062972  53.5301894  79.4343498  81.4443200
  35.6772466  93.9969978  81.1312829  35.5426934  93.2370379  80.5650827
  35.2604528  94.7210878  80.6641617  47.6429239  84.9316763  76.2591674
  47.5864441  85.3885314  75.4199306  48.1957582  84.1707447  76.0814517
  55.7646383  83.4602568  79.5913085  55.2045941  83.5295757  80.3644647
  55.1589887  83.2843552  78.8712581  38.8341592  94.8939295  81.3431271
  38.7173976  95.8384727  81.2409962  38.0134038  94.5912856  81.7317070
  48.7218127  89.6189431  72.1887864  49.5563731  89.1870629  72.0065339
  48.5602470  89.4471444  73.1164758  48.3764019  86.1221544  73.5544203
  48.3212823  85.9565815  72.6132647  47.7510074  86.8297577  73.7106393
  33.1656534  81.3589608  87.3805625  33.8115397  80.8488562  87.8692851
  32.9573685  82.0958290  87.9549051  45.6909926  88.4270456  92.8797766
  46.5601086  88.6011108  92.5184401  45.2116677  89.2464873  92.7573495
  39.8596106  95.5467557  84.5587200  40.7623353  95.5791167  84.8753695
  39.6333476  94.6168008  84.5733535  41.6149708  94.2998543  81.2197278
  40.6645339  94.3000405  81.1061651  41.9182194  93.5531278  80.7033313
  37.5054025  78.5057225  91.4780640  38.3685486  78.1494030  91.6883964
  36.9319435  78.1671120  92.1656044  57.3502402 100.1359082  82.2843041
  57.9880812 100.0165829  81.5806381  57.2323245 101.0839926  82.3430993
  54.1592108 100.0886510  82.2204565  53.8210619  99.9727575  81.3325100
  55.0281876  99.6877675  82.2005572  50.0178924 101.9421986  78.2101456
  49.4543789 101.8511923  77.4417744  49.9031319 101.1221891  78.6903949
  54.6411891 101.2421362  88.1790771  54.6300532 100.8474160  87.3071275
  54.8032530 100.5087434  88.7724542  47.5643356 103.4373178  81.0485677
  48.3564648 103.0964002  80.6331976  47.8040006 103.5468153  81.9687830
  55.5978482 105.6092954  73.5215921  54.9466462 106.1947034  73.1349935
  56.3922845 106.1399149  73.5810959  49.5234110 102.6982091  73.9203056
  50.2964986 102.1511078  73.7815931  49.8759508 103.5626340  74.1317517
  51.3619152 104.0258473  87.1269955  51.0709018 104.9304104  87.0116621
  51.9976136 104.0675001  87.8414024  52.2875359 101.4035322  83.7171315
  52.8838931 101.1791344  83.0028277  52.3450330 100.6620067  84.3196762
  51.8600387  98.8574757  71.5521505  52.1125908  98.3356278  70.7904969
  50.9224946  98.6940903  71.6548189  56.9043670  97.8610536  79.3596249
  57.6906759  97.4429959  79.0086666  57.1682375  98.7656628  79.5277897
  57.0753748 103.2983386  74.0584906  56.4399581 103.3718012  74.7705810
  56.7451154 103.8876985  73.3803985  62.3052097  97.7985769  80.2629227
  63.0377269  97.2284986  80.4967057  61.5491453  97.4107369  80.7035733
  51.5796676 100.7602863  73.7545880  51.4632934 100.0847767  74.4226965
  51.6898936 100.2735237  72.9378034  53.9228217 100.2213010  77.4592570
  53.5586424  99.6943631  78.1705491  54.7795333  99.8311479  77.2859055
  59.8277518  91.5107343  84.7223836  59.4960842  92.3802754  84.4985051
  59.2323131  91.1943627  85.4017866  53.5633704  95.2502910  72.4553918
  53.7308106  96.1183146  72.8224389  53.3730873  95.4130192  71.5315207
  56.3209037 103.7119889  84.1219749  56.0209760 104.6144928  84.0135556
  55.9760097 103.4452072  84.9740901  49.7721519 100.1633686  80.1556453
  48.8472015 100.0309900  80.3634145  50.0205932 100.9427905  80.6526395
  59.7206181  96.2302429  81.8017186  58.8123058  96.1617837  81.5075947
  59.6693777  96.7074374  82.6299011  53.5422925  97.7060567  73.4400585
  53.4222550  98.1517618  74.2786065  52.8475513  98.0545885  72.8814123
  47.1330330  99.8066959  80.9900242  47.2622711 100.0601438  81.9039654
  46.4527781 100.3994667  80.6704897  53.7947047  97.6492075  89.7452083
  53.0180381  98.2085995  89.7354948  54.4337610  98.1348858  90.2666953
  61.5867827  94.4318867  83.5795060  60.9442208  94.7251401  82.9334854
  61.0822756  94.3171788  84.3848256  59.2407991  98.1782041  74.2680919
  60.1525847  98.4109427  74.0928617  58.7317638  98.7619085  73.7055998
  52.0493419 100.4577528  89.3070050  52.7908103 100.9962572  89.0304874
  51.3430405 101.0843817  89.4641602  57.5248759 102.6006668  87.9042212
  57.9332115 102.1589079  87.1596844  56.8026020 102.0259296  88.1576405
  53.8779829  97.5379275  85.2775769  54.7241024  97.9618689  85.4210418
  53.8178466  96.8812900  85.9714332  57.8477573 103.1607859  81.6594501
  57.2186436 103.3253573  80.9570568  57.4603235 103.5749469  82.4305465
  61.7266805 104.0962297  79.0138864  61.0417843 104.4761198  78.4635898
  61.8110655 104.7057624  79.7470812  57.0279274  95.1983644  86.9356942
  56.7840206  95.9525704  86.3991218  57.3039205  95.5768991  87.7704189
  58.9817737 101.7422256  85.6134208  59.1934632 102.3854016  84.9368589
  58.9347485 100.9084573  85.1456138  56.5843966  94.3540077  82.5170780
  55.7228445  94.6521330  82.8087518  56.6106400  94.5710476  81.5851813
  53.4005535 102.8982267  78.9244586  53.8643881 103.1769970  78.1349208
  53.1362333 101.9965712  78.7417676  50.2929616 102.4453749  81.8624349
  50.8630973 102.8741017  81.2241833  50.8837728 102.1636333  82.5608535
  52.3374421  99.0205420  75.7334151  53.0398465  99.4726463  76.2008077
  52.0055050  98.3789238  76.3614044  50.7854783  97.6117176  90.1085360
  50.1553443  98.2933457  90.3420757  50.6790871  97.5000258  89.1638498
  46.0799755  97.2788972  81.0351284  45.2898809  97.5346501  80.5591395
  46.5711003  98.0937310  81.1403325  60.0963565 104.6194211  83.7856565
  60.9181009 104.2174399  83.5039247  60.0925968 104.5162446  84.7372681
  48.0314501  97.6433551  77.9934761  47.2345664  97.7552246  78.5118257
  47.8040093  97.9820204  77.1275652  53.8620168 104.1678255  85.9417276
  53.9264601 104.6298662  86.7775448  53.1531092 103.5375620  86.0699586
  44.3637458  97.5319463  83.4666275  44.6145497  98.4166473  83.7323851
  44.8997007  97.3524064  82.6941367  68.1869558 100.9632960  80.1341537
  67.4333266 100.3940358  79.9785541  68.3217099 100.9295624  81.0812171
  53.5768186 105.8346362  75.8096256  53.4413861 106.6797898  76.2381104
  54.1177998 106.0365640  75.0462190  50.0635526  91.9137942  92.4710611
  49.6702471  91.3604141  93.1458255  50.8801666  92.2248521  92.8617129
  47.0297583 103.3521800  76.3824181  47.5422104 104.1465050  76.5329746
  47.6820296 102.6548091  76.3157783  48.8392468 106.4687557  78.4646934
  49.0159096 107.3905521  78.2767918  49.6349302 106.1545976  78.8941314
  52.9803487  93.3295821  90.0630868  53.7213200  93.9302974  89.9835330
  53.2121409  92.5873459  89.5048910  48.1244825  98.5152188  88.3409097
  48.0098340  97.6137446  88.6416196  47.2689342  98.7615885  87.9893914
  55.2036662 106.4569929  89.9396598  54.7600516 105.6706307  89.6217503
  55.8653876 106.6449079  89.2740489  49.9623783 107.9865730  84.4657277
  50.5131209 107.8582794  83.6934271  49.1235259 108.2860619  84.1152169
  57.3017900 106.7372729  87.9677999  57.2836376 107.5581610  87.4758269
  58.2237820 106.6126804  88.1928141  53.7590955 104.2516858  88.8101508
  54.2919291 103.4905146  88.5800816  53.2305036 103.9590510  89.5525662
  56.9260649  89.3576924  84.3395149  56.5824919  90.2478566  84.2634260
  57.2939612  89.1678582  83.4764734  44.9946500 101.6810455  77.1583752
  45.8321722 102.0907463  76.9417459  45.1724768 100.7409897  77.1283946
  56.8910932  99.3485535  72.8467585  56.3757556 100.1190140  73.0855972
  56.6188241  98.6750671  73.4700646  54.4758043  94.1935236  77.9052823
  53.6199640  93.8042086  77.7258462  54.8884995  94.2727197  77.0452608
  56.0057190  91.7281579  82.3044383  55.5021985  91.6911714  81.4912188
  56.2987797  92.6374322  82.3641039  52.2500076  91.8120309  81.3110564
  53.1153073  91.6163118  80.9516454  52.3177585  91.5830661  82.2379921
  61.8645206 102.1017890  74.7820758  61.0874649 101.7629049  74.3375920
  62.5436687 102.1070513  74.1075723  56.6797235  97.2212627  74.6727366
  56.3747371  97.5358776  75.5237509  57.6327677  97.2994047  74.7154699
  55.1243667 103.3802851  76.3220320  54.5965029 102.6455610  76.0093557
  54.6231170 104.1577527  76.0760288  60.1036513 101.5751871  81.4387366
  59.4460188 102.2651132  81.5267495  60.9076912 101.9648303  81.7821352
  49.8562395  94.0422517  78.6826931  50.4306147  93.8197698  77.9500124
  50.4433377  94.1111211  79.4355533  58.9141972  99.9296244  79.4891308
  59.4273854 100.5626236  79.9913018  59.5643196  99.3297439  79.1234668
  50.1831982  96.0726978  72.7022817  49.3469294  96.4101664  73.0232091
  50.0436752  95.9375958  71.7649954  52.1585063  90.9163766  77.4102001
  51.5049475  90.6012783  76.7858615  52.1165537  90.2939506  78.1361824
  53.2696267 101.1983061  69.3255293  52.3623329 100.9672314  69.5246442
  53.7667299 100.4020680  69.5129274  56.1764346 109.9080568  72.2451979
  55.5026045 110.2112265  72.8536937  56.5630168 110.7109648  71.8957436
  55.3922803  97.4045699  81.7349648  54.4745364  97.6260646  81.5771336
  55.8082947  97.4792010  80.8761356  56.1757851  98.8037115  76.8652329
  56.9229670  99.3158512  76.5559451  56.4449440  98.4821168  77.7256722
  54.4484501 101.2995656  73.8479283  53.5395720 101.0154689  73.9451753
  54.4779585 101.7194734  72.9882590  59.6803768 104.9102245  77.6170450
  59.2266095 104.0693155  77.6735641  59.0497735 105.5463644  77.9545231
  58.6236688  95.8394231  78.8471118  57.8859445  95.3271617  79.1781360
  58.8763461  95.3994613  78.0354395  58.1236707 106.7478742  78.5520269
  58.4159682 107.3083799  77.8332634  58.6335328 107.0407303  79.3073428
  58.7248315  88.6170483  79.4412887  59.0307192  87.7567847  79.1538802
  59.4500920  89.2088103  79.2411881  45.0172671  99.0201170  77.8294485
  44.8197071  98.4270531  77.1045552  44.4619335  98.7153380  78.5470424
  52.9969395  98.9124276  79.9489078  53.0518005  97.9598113  79.8731555
  52.1860597  99.0683715  80.4330377  54.1460589 102.8404399  71.1867361
  53.7080019 102.1240258  70.7272999  54.8871029 103.0680514  70.6252453
  50.9361755  97.5301336  77.7079457  50.1229620  97.8295507  78.1144649
  51.4320749  97.1357025  78.4253939  53.0870333 107.5259093  79.6413722
  53.0446511 107.7519939  78.7122254  54.0033032 107.2922468  79.7899523
  56.5335966  97.9943161  86.5394351  56.8885354  98.2214634  87.3988817
  57.1808098  98.3261537  85.9171606  62.2633703 101.1161596  77.2443680
  62.1251602 101.3063192  76.3164869  61.9069922 101.8780979  77.7011731
  50.4275830  95.1019692  83.3240692  51.0675209  94.9608451  82.6263655
  49.5953360  94.8154205  82.9479294  62.2903083 103.1838123  82.2554952
  62.7239590 103.0913413  83.1038006  63.0034664 103.1595624  81.6174968
  51.2036133 104.4022122  79.4375684  51.9976732 103.9072442  79.2358259
  50.4927826 103.8739985  79.0743390  56.0230978 106.7840218  83.7888052
  56.0768000 107.3531154  84.5565768  55.1545759 106.9542103  83.4242089
  47.5118897  98.5465204  75.5135437  46.5816485  98.4849659  75.7305399
  47.6076369  98.0241157  74.7172078  47.4304446  95.0720017  78.1013679
  47.6911263  95.9865350  77.9922839  48.2521618  94.6044459  78.2510292
  48.9029371  96.4857774  85.2712503  49.5752425  96.2775136  84.6225152
  48.0759158  96.2879860  84.8317736  63.1518633 103.2261824  84.7887837
  63.3454523 104.1307635  85.0347112  63.0519251 102.7669243  85.6226422
  54.8054943  93.1119715  87.2878164  54.1582858  93.8109664  87.1942641
  55.5755959  93.5455859  87.6554412  54.9819078 100.9500480  85.3474984
  55.9111138 101.1011639  85.1743951  54.5610108 101.0384500  84.4923630
  53.7807409 104.9751144  83.1173522  53.6418495 104.6069928  83.9899460
  52.9922006 105.4898783  82.9457479  54.3755561 110.0760240  74.4599058
  54.5507317 109.6048284  75.2744681  53.6888349 110.7026007  74.6880319
  55.3312625 104.3532747  80.5062359  54.9962457 104.3133517  81.4020009
  54.8316570 103.6877463  80.0332770  49.3056869  99.7600377  86.0314941
  49.1676666  99.0280616  86.6326480  50.2161792  99.6709277  85.7499128
  58.2671816 101.6988781  70.7799419  57.6500987 100.9735609  70.6832472
  57.7988305 102.4598141  70.4366493  51.9339169  99.4720336  85.5198620
  52.6438788  98.8313528  85.4785239  51.8908477  99.7233231  86.4424801
  50.6468103  96.4585554  87.3394260  50.1105460  96.0076292  87.9915856
  50.0584812  96.5931463  86.5964724  50.0570362  95.9174205  69.9020723
  49.1799828  95.7963006  69.5382970  50.5328115  95.1260284  69.6499612
  59.9243355 104.3727273  86.6719179  59.0370134 104.0353195  86.7945578
  60.4941906 103.6410305  86.9087944  41.5772502 100.7051365  79.9962230
  42.2643542 100.3913095  79.4083246  41.4220631 101.6092730  79.7229482
  46.3807224  95.5941562  84.4247254  46.2965413  94.9867231  83.6897664
  45.5589931  96.0850580  84.4256750  53.4544509 109.0328726  83.6380422
  53.3814680 109.8383697  84.1499727  53.0121902 109.2320691  82.8128444
  53.2434288 108.2700496  77.1483244  52.4601810 108.8122176  77.2421468
  53.9427033 108.7874475  77.5477485  56.5530938  94.0795125  79.7917449
  57.0499638  93.3265087  79.4718519  55.7817920  94.1159442  79.2260659
  64.4060696  99.7835491  81.4335741  64.3950572 100.6660206  81.0629674
  63.5378075  99.4307042  81.2390278  55.9143192 108.9315560  85.7938581
  56.6271164 109.5663025  85.7214482  55.4233221 109.0279426  84.9778583
  57.6360719 102.8366812  77.3655873  56.7016998 102.9568275  77.1960577
  57.8137387 101.9339279  77.1015882  53.1365907  96.2212508  79.5189134
  52.7663695  95.6683549  80.2070039  53.6325000  95.6170642  78.9664134
  61.0233270  98.6784132  77.9005907  61.4893723  99.5112123  77.8266209
  61.4740771  98.2129113  78.6051165  50.9655106 106.6810003  86.6144152
  51.6664565 107.3146486  86.7673546  50.4950221 107.0224735  85.8539791
  59.0909501 105.0227953  74.8992059  59.3669345 104.9084548  75.8085933
  58.2214000 104.6245438  74.8604232  58.9949933  91.0464719  81.9396808
  58.0813013  91.2768945  82.1079015  59.4243035  91.1303163  82.7910840
  58.7656392  99.2354611  84.4396702  58.1127842  99.4830518  83.7849155
  59.1436771  98.4218749  84.1059179  55.7263565 109.2714304  78.5424872
  55.9085960 108.4535960  79.0052625  56.5496551 109.4881996  78.1049762
  56.0605731 108.1982489  75.8039921  56.5893497 107.6874944  75.1910083
  56.3233951 107.8825019  76.6685454  54.8143965  99.9774422  90.9262739
  54.1384602  99.8768551  91.5965114  55.6371598  99.8213635  91.3898736
  46.5622824 106.2146358  83.5475254  47.1476260 105.4690046  83.6803159
  46.3647662 106.5250315  84.4311918  41.1540478  98.7851958  82.2679698
  41.1924578  98.2515549  83.0616816  40.6480771  98.2587164  81.6490675
  48.5331241  93.6316499  85.7642240  48.5972567  94.4931330  85.3519638
  48.4698361  93.0190501  85.0314598  48.0083513  95.7039631  89.4115274
  48.6355552  95.3216709  90.0252798  47.1511432  95.4853833  89.7770967
  44.7849056  97.5116061  75.3433629  45.0802497  96.6026739  75.2900683
  43.8837092  97.4903800  75.0214631  56.6935135 109.2323325  82.1484037
  56.5686274 108.4313064  81.6394983  57.3514226 109.7269518  81.6598007
  48.3143303  95.5872057  81.3261178  47.5929889  96.2008025  81.1868651
  49.1036559  96.1229822  81.2477824  58.7570043 107.0332345  83.7763587
  57.8100379 106.9137696  83.7041914  59.1052816 106.1454843  83.8589849
  51.1169617  92.9226484  87.6001829  51.6404018  93.1688780  88.3628139
  50.8981950  93.7546518  87.1804967  46.5136898  95.1930158  75.4672954
  46.1849604  94.3127537  75.2848060  46.8676268  95.1377827  76.3549343
  55.7616476 106.8285061  79.9767940  55.6141439 105.9001768  80.1575510
  56.5869970 106.8505152  79.4925015  49.6278721  95.4803128  75.8348432
  49.9674793  96.0089049  75.1127040  50.0750841  95.8183534  76.6106998
  59.3650598 107.6513620  81.0632812  60.2897146 107.4456481  80.9257264
  59.1965902 107.4030021  81.9722154  52.3222162  93.8640179  85.2851500
  51.9818982  93.0647992  85.6872180  51.6161168  94.1641890  84.7128333
  52.9738633  90.9489491  83.7378823  53.7964703  90.4749969  83.6157713
  53.2176697  91.7279975  84.2377509  51.6146868  93.9777750  74.0341725
  52.3355230  94.3559002  73.5305441  50.9912172  94.6966626  74.1376703
  55.7577991  94.6822899  74.9700057  55.9741605  95.5647536  74.6688885
  55.2772058  94.2909112  74.2405699  50.4977212  97.6408612  81.5470801
  50.3521793  97.9548915  82.4395083  50.0202416  98.2593512  80.9941700
  52.3573595  94.6311160  81.5951691  52.3435164  93.7352253  81.2583989
  53.0746023  94.6381824  82.2289977  54.2099726  95.0648500  83.6404818
  53.9517504  95.9865571  83.6389149  53.6784766  94.6678935  84.3305283
  59.1545915 108.1699287  76.4194904  59.3282792 107.6045710  75.6668756
  59.6474806 108.9700182  76.2374394  44.9722874 100.1813956  84.4858463
  44.4276342 100.9573764  84.6178737  45.8502224 100.5284761  84.3277584
  51.7610491  93.5125540  76.8639261  51.8826402  92.5842186  77.0630149
  51.4712533  93.5264226  75.9517577  54.6301681  91.1980451  80.0005981
  54.6523378  91.2619784  79.0457961  55.0469740  90.3584959  80.1946487
  65.0085306 100.9335710  78.0385204  65.4516452 100.1843035  77.6404327
  64.1311816 100.9245846  77.6558936  60.1421087 107.4866052  73.5191802
  60.8371992 108.1072744  73.7379117  60.4844237 106.6361403  73.7944180
  45.7588896  99.3083852  87.3788620  45.0170632  99.4566488  87.9653250
  45.4381640  99.5692118  86.5155369  62.0412510 104.9365757  75.0479133
  62.5663834 105.2753030  74.3228453  61.9534863 104.0012772  74.8642268
  53.7032559 108.8499831  87.1769010  54.0119685 108.6048977  88.0491709
  54.5008041 109.0546469  86.6887880  53.7253171 111.0037740  79.4074386
  53.2858161 110.5114119  80.1007243  54.4761288 110.4610708  79.1666461
  46.2045510 107.1949281  79.4099014  47.0303530 106.8953053  79.0297658
  45.8539562 106.4256904  79.8588803  51.1727043 106.5475749  81.4796688
  50.5507052 105.8846454  81.1798916  51.8431910 106.5736881  80.7970336
  44.4054115 105.1135608  80.3687948  43.5686023 104.6857782  80.1871949
  44.3777760 105.3068051  81.3058739  51.2451571  95.0257537  91.0729194
  51.2939726  95.9019660  90.6906963  51.7874085  94.4834931  90.5000837
  61.8504291 102.4191127  87.6663059  61.9002296 102.2541135  88.6078582
  61.7418215 101.5518386  87.2760940  50.7340550 105.0979673  74.9555148
  50.8828670 105.7815137  74.3021821  51.5406993 105.0784763  75.4704604
  59.1408054  98.4022055  88.9822366  60.0417916  98.2628520  88.6906364
  59.2156028  98.5676510  89.9220544  53.4750859  95.7788910  87.8275552
  52.6054168  96.0722476  87.5558141  53.7110339  96.3629355  88.5482816
  64.5518170 102.4040948  80.4307651  65.3865062 102.8430752  80.5945212
  64.6877299 101.9279602  79.6115897  61.6009676  99.9620683  86.3785139
  62.0763798 100.1548330  85.5703990  60.6775242 100.0179869  86.1328523
  48.4893183 101.1244850  75.9616217  48.2439225 100.2207180  76.1596427
  48.6589097 101.1262001  75.0195695  56.1789893  91.9968527  85.3440973
  56.6971837  92.7329554  85.0187461  55.8245026  92.3032520  86.1787732
  47.7588830  96.8573208  73.4602379  47.0658075  96.9317563  72.8042415
  47.5140582  96.0933552  73.9823896  56.4302487  88.4168809  80.8641869
  56.7104241  87.7491998  81.4902296  57.2153094  88.6097905  80.3516533
  54.2335955 107.5927803  72.4266896  53.6609923 108.2117990  71.9737368
  54.8068749 108.1427165  72.9606818  60.3011345  96.8386443  84.6113445
  61.2528768  96.9384541  84.6325669  60.1314796  96.0464712  85.1211529
  58.3225725  93.9242027  84.7972845  57.7275657  94.2047039  84.1019334
  58.0375421  94.4135927  85.5689587  57.4533215 107.8764953  73.5575478
  58.3863888 107.8110515  73.7608354  57.3656428 108.7121220  73.0990011
  60.0821232 107.1930824  70.5179426  60.0034863 106.8590687  71.4115183
  60.9030899 107.6852592  70.5170898  62.7799423 100.0592563  83.7255744
  62.7475743  99.1208564  83.9115428  63.3900047 100.1376600  82.9921569
  54.6182754  98.9288616  69.7682948  55.5641859  98.7994824  69.8371366
  54.2396999  98.1903278  70.2452376  62.9293912  96.8503606  83.7714027
  62.4132960  96.0662063  83.5843956  63.8133860  96.5222323  83.9360547
  60.5904638  90.5944622  79.7309840  60.3929460  90.2859710  80.6153172
  61.2004344  91.3206261  79.8607770  68.5975973 101.1208570  82.8661781
  69.3279361 100.8593858  83.4269484  67.9882918 100.3837292  82.9063849
  66.6791270  99.2616432  83.4636232  65.9524434  99.1272397  82.8552724
  66.2638557  99.5693261  84.2692950  54.5021446 102.9806362  91.2283605
  55.4224456 103.1584961  91.4223652  54.4671030 102.0362407  91.0763304
  52.8025671  96.8538592  69.7037833  51.8957126  96.5571705  69.7800547
  53.0801652  96.5568410  68.8372120  43.7203611  98.1744956  80.1536880
  43.4006396  97.3210264  79.8611254  43.1737040  98.3893534  80.9094847
  47.4983519 100.8907397  83.8706386  47.7169529 101.8224505  83.8894420
  47.9109293 100.5315371  84.6561190  54.4187737  91.3975482  75.8582075
  53.6088465  91.0522567  76.2337321  55.1072154  91.0883026  76.4469686
  56.3478285  90.4753529  77.4806371  56.9009324  90.8948982  78.1396394
  56.5848371  89.5489277  77.5229327  52.3711384  96.4640603  93.2609135
  52.2708111  97.4134959  93.1921226  52.1532926  96.1358841  92.3885205
  51.5724456  93.7125528  69.8449813  52.4343620  94.0380426  70.1045630
  51.7574800  92.9257023  69.3322878  43.5891871 101.7947867  82.1230001
  42.8955343 101.3801820  81.6099956  44.3364862 101.8368404  81.5263420
  59.7257092  92.5854054  76.9885036  59.1455761  93.2438858  76.6063088
  59.4593025  91.7631399  76.5772453  58.1760659  91.9859112  79.1906356
  58.6760437  92.0975646  78.3820675  58.8196266  91.6820165  79.8307164
  52.2342654  99.8937741  92.0774197  51.7509736 100.6938101  92.2838086
  52.3203593  99.9045686  91.1241641  45.5028614 101.7266121  79.9996016
  45.4799302 101.8253808  79.0477899  45.8129250 102.5731272  80.3213182
  48.1615992 103.7842276  84.1142631  49.1159245 103.7526218  84.0472562
  47.9628515 103.3232900  84.9292857  48.7515374 102.3543392  86.6813428
  49.5708263 102.8487471  86.7048266  49.0252182 101.4375360  86.6530996
  58.5081970  94.7454144  76.0441384  57.6207825  95.0303795  75.8261579
  58.9235959  94.5847908  75.1968661  61.8596506  94.7700665  79.7595723
  62.6356896  95.2597118  80.0320340  61.1344641  95.1958720  80.2167593
  64.2969065  95.4828285  80.8169664  64.8913556  95.2424021  80.1062972
  64.3695649  94.7635415  81.4443200  57.6525184 104.5098819  70.1389404
  58.3561034 104.7148822  70.7547059  56.9287832 105.0775581  70.4038487
  58.4822994 100.2608680  76.2591674  58.4258195 100.7177232  75.4199306
  59.0351336  99.4999365  76.0814517  62.2927800  96.0498412  77.0841794
  62.0364734  95.6495048  77.9150001  61.6680668  96.7642206  76.9591933
  66.6040138  98.7894485  79.5913085  66.0439696  98.8587675  80.3644647
  65.9983641  98.6135470  78.8712581  59.5611881 104.9481348  72.1887864
  60.3957485 104.5162547  72.0065339  59.3996224 104.7763362  73.1164758
  59.2157773 101.4513462  73.5544203  59.1606577 101.2857733  72.6132647
  58.5903829 102.1589495  73.7106393  44.0050288  96.6881526  87.3805625
  44.6509152  96.1780480  87.8692851  43.7967439  97.4250208  87.9549051
  52.5253899  90.9521571  73.1329522  52.5132569  91.8963411  73.2897793
  53.4177321  90.7691716  72.8388983  52.4543463 109.6290461  81.2197278
  51.5039094 109.6292323  81.1061651  52.7575949 108.8823196  80.7033313
  56.3406018  87.5464347  77.3875458  55.5738414  86.9922834  77.5332141
  56.7516723  87.6186216  78.2489610  48.3447779  93.8349143  91.4780640
  49.2079241  93.4785948  91.6883964  47.7713190  93.4963038  92.1656044
  62.6994142 114.1866675  71.5521505  62.9519663 113.6648196  70.7904969
  61.7618701 114.0232820  71.6548189  67.7437425 113.1902453  79.3596249
  68.5300514 112.7721876  79.0086666  68.0076129 114.0948545  79.5277897
  64.4027458 110.5794828  72.4553918  64.5701861 111.4475064  72.8224389
  64.2124628 110.7422109  71.5315207  64.3816679 113.0352485  73.4400585
  64.2616305 113.4809536  74.2786065  63.6869268 113.3837803  72.8814123
  70.0801746 113.5073958  74.2680919  70.9919602 113.7401345  74.0928617
  69.5711393 114.0911003  73.7055998  67.4237720 109.6831994  82.5170780
  66.5622199 109.9813248  82.8087518  67.4500155 109.9002393  81.5851813
  63.1768176 114.3497337  75.7334151  63.8792219 114.8018381  76.2008077
  62.8448804 113.7081156  76.3614044  67.7654404 104.6868842  84.3395149
  67.4218673 105.5770483  84.2634260  68.1333367 104.4970499  83.4764734
  67.7304687 114.6777453  72.8467585  67.2151310 115.4482057  73.0855972
  67.4581995 114.0042589  73.4700646  65.3151798 109.5227154  77.9052823
  64.4593394 109.1334004  77.7258462  65.7278749 109.6019114  77.0452608
  66.8450944 107.0573497  82.3044383  66.3415740 107.0203632  81.4912188
  67.1381551 107.9666240  82.3641039  63.0893830 107.1412227  81.3110564
  63.9546827 106.9455035  80.9516454  63.1571339 106.9122578  82.2379921
  67.5190990 112.5504545  74.6727366  67.2141125 112.8650694  75.5237509
  68.4721432 112.6285965  74.7154699  60.6956149 109.3714435  78.6826931
  61.2699901 109.1489616  77.9500124  61.2827132 109.4403129  79.4355533
  61.0225736 111.4018896  72.7022817  60.1863049 111.7393582  73.0232091
  60.8830506 111.2667875  71.7649954  62.9978817 106.2455683  77.4102001
  62.3443229 105.9304701  76.7858615  62.9559291 105.6231424  78.1361824
  66.2316557 112.7337617  81.7349648  65.3139119 112.9552564  81.5771336
  66.6476701 112.8083927  80.8761356  67.0151605 114.1329033  76.8652329
  67.7623424 114.6450430  76.5559451  67.2843195 113.8113085  77.7256722
  69.4630442 111.1686149  78.8471118  68.7253199 110.6563535  79.1781360
  69.7157216 110.7286531  78.0354395  69.5642070 103.9462401  79.4412887
  69.8700946 103.0859764  79.1538802  70.2894674 104.5380021  79.2411881
  63.8363149 114.2416194  79.9489078  63.8911759 113.2890030  79.8731555
  63.0254351 114.3975633  80.4330377  61.7755509 112.8593254  77.7079457
  60.9623375 113.1587424  78.1144649  62.2714503 112.4648943  78.4253939
  61.2669584 110.4311609  83.3240692  61.9068963 110.2900368  82.6263655
  60.4347115 110.1446123  82.9479294  58.2698200 110.4011934  78.1013679
  58.5305018 111.3157268  77.9922839  59.0915373 109.9336377  78.2510292
  60.8964117 111.2466123  69.9020723  60.0193583 111.1254924  69.5382970
  61.3721870 110.4552201  69.6499612  57.2200979 110.9233479  84.4247254
  57.1359168 110.3159149  83.6897664  56.3983685 111.4142498  84.4256750
  67.3924693 109.4087043  79.7917449  67.8893392 108.6557005  79.4718519
  66.6211674 109.4451359  79.2260659  63.9759662 111.5504426  79.5189134
  63.6057449 110.9975466  80.2070039  64.4718754 110.9462559  78.9664134
  71.8627025 114.0076049  77.9005907  72.3287477 114.8404041  77.8266209
  72.3134525 113.5421031  78.6051165  69.8343688 106.3756636  81.9396808
  68.9206767 106.6060863  82.1079015  70.2636789 106.4595080  82.7910840
  59.3724995 108.9608417  85.7642240  59.4366322 109.8223248  85.3519638
  59.3092115 108.3482418  85.0314598  59.1537057 110.9163975  81.3261178
  58.4323643 111.5299943  81.1868651  59.9430313 111.4521740  81.2477824
  57.3530652 110.5222076  75.4672954  57.0243358 109.6419455  75.2848060
  57.7070023 110.4669745  76.3549343  60.4672475 110.8095046  75.8348432
  60.8068548 111.3380967  75.1127040  60.9144596 111.1475452  76.6106998
  63.8132388 106.2781409  83.7378823  64.6358457 105.8041887  83.6157713
  64.0570451 107.0571893  84.2377509  62.4540622 109.3069667  74.0341725
  63.1748985 109.6850920  73.5305441  61.8305926 110.0258544  74.1376703
  66.5971745 110.0114816  74.9700057  66.8135360 110.8939454  74.6688885
  66.1165812 109.6201030  74.2405699  61.3370967 112.9700530  81.5470801
  61.1915547 113.2840833  82.4395083  60.8596170 113.5885430  80.9941700
  63.1967350 109.9603077  81.5951691  63.1828918 109.0644171  81.2583989
  63.9139778 109.9673741  82.2289977  62.6004245 108.8417458  76.8639261
  62.7220157 107.9134104  77.0630149  62.3106288 108.8556144  75.9517577
  65.4695436 106.5272368  80.0005981  65.4917133 106.5911701  79.0457961
  65.8863495 105.6876877  80.1946487  58.5982585 112.1865126  73.4602379
  57.9051830 112.2609481  72.8042415  58.3534337 111.4225469  73.9823896
  67.2696241 103.7460727  80.8641869  67.5497995 103.0783916  81.4902296
  68.0546848 103.9389823  80.3516533  65.4576508 114.2580534  69.7682948
  66.4035613 114.1286742  69.8371366  65.0790753 113.5195196  70.2452376
  71.4298393 105.9236540  79.7309840  71.2323214 105.6151628  80.6153172
  72.0398099 106.6498179  79.8607770  63.6419426 112.1830510  69.7037833
  62.7350881 111.8863623  69.7800547  63.9195407 111.8860328  68.8372120
  65.2581491 106.7267400  75.8582075  64.4482220 106.3814485  76.2337321
  65.9465908 106.4174943  76.4469686  67.1872040 105.8045447  77.4806371
  67.7403078 106.2240900  78.1396394  67.4242126 104.8781195  77.5229327
  62.4118210 109.0417445  69.8449813  63.2737374 109.3672344  70.1045630
  62.5968554 108.2548941  69.3322878  70.5650847 107.9145972  76.9885036
  69.9849516 108.5730776  76.6063088  70.2986779 107.0923316  76.5772453
  69.0154413 107.3151029  79.1906356  69.5154191 107.4267564  78.3820675
  69.6590021 107.0112082  79.8307164  69.3475725 110.0746062  76.0441384
  68.4601580 110.3595713  75.8261579  69.7629714 109.9139825  75.1968661
  72.6990261 110.0992583  79.7595723  73.4750651 110.5889036  80.0320340
  71.9738395 110.5250637  80.2167593  69.3216748 115.5900598  76.2591674
  69.2651950 116.0469149  75.4199306  69.8745091 114.8291283  76.0814517
  73.1321554 111.3790330  77.0841794  72.8758489 110.9786966  77.9150001
  72.5074422 112.0934124  76.9591933  63.3647653 106.2813488  73.1329522
  63.3526323 107.2255328  73.2897793  64.2571075 106.0983634  72.8388983
  67.1799773 102.8756265  77.3875458  66.4132168 102.3214752  77.5332141
  67.5910478 102.9478134  78.2489610  13.9927385  15.8253534  69.0088347
  14.6305795  15.7060281  68.3051687  13.8748228  16.7734378  69.0676299
  10.8017091  15.7780962  68.9449872  10.4635603  15.6622026  68.0570407
  11.6706859  15.3772127  68.9250878   6.6603907  17.6316438  64.9346763
   6.0968772  17.5406375  64.1663051   6.5456302  16.8116343  65.4149256
  11.2836874  16.9315813  74.9036078  11.2725515  16.5368612  74.0316581
  11.4457514  16.1981886  75.4969849   4.2068339  19.1267630  67.7730983
   4.9989631  18.7858454  67.3577283   4.4464989  19.2362605  68.6933137
  12.2403466  21.2987406  60.2461228  11.5891445  21.8841486  59.8595242
  13.0347828  21.8293601  60.3056265   6.1659093  18.3876543  60.6448362
   6.9389969  17.8405530  60.5061238   6.5184492  19.2520792  60.8562824
   8.0044135  19.7152925  73.8515262   7.7134001  20.6198556  73.7361928
   8.6401120  19.7569453  74.5659331   8.9300342  17.0929774  70.4416621
   9.5263914  16.8685796  69.7273584   8.9875314  16.3514519  71.0442069
   8.5025371  14.5469209  58.2766812   8.7550891  14.0250730  57.5150275
   7.5649930  14.3835355  58.3793496  13.5468653  13.5504987  66.0841555
  14.3331743  13.1324411  65.7331972  13.8107358  14.4551080  66.2523204
  13.7178731  18.9877838  60.7830212  13.0824564  19.0612464  61.4951117
  13.3876137  19.5771437  60.1049291  18.9477081  13.4880221  66.9874534
  19.6802253  12.9179437  67.2212363  18.1916436  13.1001821  67.4281039
   8.2221659  16.4497315  60.4791187   8.1057917  15.7742218  61.1472271
   8.3323919  15.9629689  59.6623340  10.5653200  15.9107462  64.1837876
  10.2011408  15.3838083  64.8950798  11.4220316  15.5205931  64.0104362
  16.4702501   7.2001795  71.4469142  16.1385826   8.0697206  71.2230357
  15.8748114   6.8838079  72.1263173  10.2058687  10.9397362  59.1799225
  10.3733090  11.8077598  59.5469696  10.0155856  11.1024644  58.2560514
  12.9634020  19.4014341  70.8465055  12.6634744  20.3039380  70.7380862
  12.6185080  19.1346524  71.6986208   6.4146502  15.8528138  66.8801760
   5.4896998  15.7204352  67.0879451   6.6630915  16.6322357  67.3771702
  16.3631164  11.9196881  68.5262493  15.4548042  11.8512289  68.2321254
  16.3118760  12.3968826  69.3544318  10.1847908  13.3955019  60.1645892
  10.0647533  13.8412070  61.0031372   9.4900497  13.7440337  59.6059430
   3.7755313  15.4961411  67.7145549   3.9047694  15.7495890  68.6284960
   3.0952764  16.0889119  67.3950204   7.9454800  26.1658661  63.8136023
   7.8678830  27.1166486  63.8924503   7.3416444  25.8204534  64.4710949
  10.4372030  13.3386527  76.4697390   9.6605364  13.8980447  76.4600254
  11.0762593  13.8243310  76.9912260  18.2292811  10.1213319  70.3040366
  17.5867191  10.4145853  69.6580161  17.7247739  10.0066240  71.1093563
  15.8832974  13.8676493  60.9926226  16.7950830  14.1003879  60.8173923
  15.3742621  14.4513537  60.4301304   8.6918402  16.1471980  76.0315357
   9.4333087  16.6857024  75.7550180   7.9855388  16.7738269  76.1886909
  14.1673742  18.2901120  74.6287518  14.5757098  17.8483531  73.8842151
  13.4451003  17.7153748  74.8821711  10.5204812  13.2273727  72.0021075
  11.3666007  13.6513141  72.1455724  10.4603450  12.5707351  72.6959638
  14.4902557  18.8502311  68.3839807  13.8611419  19.0148025  67.6815875
  14.1028219  19.2643921  69.1550771  18.3691789  19.7856749  65.7384171
  17.6842827  20.1655650  65.1881204  18.4535638  20.3952076  66.4716119
  13.6704257  10.8878095  73.6602249  13.4265189  11.6420156  73.1236525
  13.9464188  11.2663443  74.4949496  15.6242720  17.4316708  72.3379514
  15.8359615  18.0748468  71.6613896  15.5772468  16.5979024  71.8701445
  13.2268949  10.0434529  69.2416087  12.3653428  10.3415782  69.5332824
  13.2531384  10.2604927  68.3097119  10.0430519  18.5876719  65.6489892
  10.5068864  18.8664422  64.8594515   9.7787317  17.6860164  65.4662983
   6.9354600  18.1348201  68.5869656   7.5055957  18.5635469  67.9487140
   7.5262711  17.8530785  69.2853841   8.9799405  14.7099871  62.4579457
   9.6823448  15.1620915  62.9253384   8.6480033  14.0683690  63.0859351
   7.4279766  13.3011628  76.8330667   6.7978427  13.9827909  77.0666064
   7.3215854  13.1894710  75.8883805  16.7388548  20.3088663  70.5101872
  17.5605992  19.9068851  70.2284553  16.7350951  20.2056897  71.4617988
  10.5045152  19.8572707  72.6662582  10.5689584  20.3193114  73.5020754
   9.7956075  19.2270072  72.7944892  24.8294541  16.6527412  66.8586843
  24.0758250  16.0834810  66.7030848  24.9642082  16.6190076  67.8057478
  10.2193169  21.5240814  62.5341563  10.0838844  22.3692350  62.9626410
  10.7602982  21.7260092  61.7707496   3.6722567  19.0416252  63.1069488
   4.1847087  19.8359502  63.2575052   4.3245279  18.3442543  63.0403089
   5.4817451  22.1582008  65.1892241   5.6584080  23.0799973  65.0013225
   6.2774285  21.8440428  65.6186621   4.7669808  14.2046640  75.0654404
   4.6523323  13.3031898  75.3661503   3.9114326  14.4510337  74.7139221
  11.8461646  22.1464381  76.6641905  11.4025500  21.3600759  76.3462809
  12.5078859  22.3343531  75.9985796   6.6048767  23.6760182  71.1902583
   7.1556192  23.5477246  70.4179577   5.7660243  23.9755071  70.8397476
  13.9442884  22.4267181  74.6923306  13.9261359  23.2476062  74.2003575
  14.8662804  22.3021256  74.9173447  10.4015938  19.9411310  75.5346814
  10.9344275  19.1799598  75.3046122   9.8730019  19.6484962  76.2770969
   1.6371483  17.3704906  63.8829058   2.4746705  17.7801915  63.6662766
   1.8149751  16.4304349  63.8529252  13.5335915  15.0379987  59.5712891
  13.0182539  15.8084592  59.8101279  13.2613224  14.3645123  60.1945953
  11.1183027   9.8829688  64.6298130  10.2624623   9.4936538  64.4503768
  11.5309978   9.9621649  63.7697915  18.5070190  17.7912342  61.5066065
  17.7299632  17.4523501  61.0621227  19.1861671  17.7964965  60.8321030
  13.3222219  12.9107079  61.3972672  13.0172354  13.2253228  62.2482816
  14.2752661  12.9888499  61.4400005  11.7668651  19.0697302  63.0465626
  11.2390012  18.3350062  62.7338864  11.2656153  19.8471979  62.8005595
  16.7461497  17.2646323  68.1632673  16.0885171  17.9545584  68.2512801
  17.5501896  17.6542755  68.5066659  15.5566955  15.6190696  66.2136614
  16.0698837  16.2520687  66.7158324  16.2068179  15.0191891  65.8479974
   9.9121251  16.8877513  56.0500599   9.0048312  16.6566766  56.2491748
  10.4092283  16.0915132  56.2374581  12.8189330  25.5975020  58.9697286
  12.1451028  25.9006717  59.5782243  13.2055152  26.4004100  58.6202743
  12.0347786  13.0940151  68.4594955  11.1170348  13.3155098  68.3016643
  12.4507930  13.1686462  67.6006662  12.8182834  14.4931567  63.5897635
  13.5654653  15.0052964  63.2804757  13.0874423  14.1715620  64.4502029
  11.0909484  16.9890108  60.5724590  10.1820703  16.7049140  60.6697059
  11.1204568  17.4089186  59.7127896  16.3228752  20.5996697  64.3415757
  15.8691079  19.7587607  64.3980948  15.6922718  21.2358095  64.6790537
  15.2661671  11.5288683  65.5716425  14.5284428  11.0166069  65.9026667
  15.5188445  11.0889065  64.7599701  14.7661691  22.4373194  65.2765575
  15.0584665  22.9978251  64.5577941  15.2760311  22.7301755  66.0318734
   9.6394378  14.6018728  66.6734385   9.6942988  13.6492565  66.5976861
   8.8285580  14.7578167  67.1575683  10.7885572  18.5298851  57.9112668
  10.3505002  17.8134710  57.4518305  11.5296013  18.7574966  57.3497759
   7.5786738  13.2195788  64.4324764   6.7654604  13.5189959  64.8389956
   8.0745732  12.8251477  65.1499246   9.7295316  23.2153545  66.3659028
   9.6871495  23.4414391  65.4367560  10.6458015  22.9816919  66.5144830
  13.1760950  13.6837612  73.2639658  13.5310337  13.9109086  74.1234123
  13.8233081  14.0155989  72.6416913  18.9058687  16.8056048  63.9688987
  18.7676585  16.9957644  63.0410176  18.5494906  17.5675431  64.4257038
  18.9328066  18.8732575  68.9800258  19.3664573  18.7807864  69.8283312
  19.6459647  18.8490076  68.3420274   7.8461117  20.0916574  66.1620991
   8.6401715  19.5966894  65.9603566   7.1352809  19.5634437  65.7988697
  12.6655961  22.4734669  70.5133359  12.7192983  23.0425606  71.2811075
  11.7970743  22.6436554  70.1487396  19.7943616  18.9156276  71.5133144
  19.9879506  19.8202086  71.7592418  19.6944234  18.4563695  72.3471729
  11.4479927   8.8014167  74.0123471  10.8007842   9.5004116  73.9187947
  12.2180942   9.2350310  74.3799719  14.8558725  19.0663019  77.0874024
  14.7044231  18.8373570  76.1704108  14.8463404  20.0233620  77.1005369
  11.6244061  16.6394931  72.0720291  12.5536121  16.7906091  71.8989258
  11.2035091  16.7278952  71.2168937  10.4232393  20.6645596  69.8418828
  10.2843478  20.2964380  70.7144766   9.6346989  21.1793235  69.6702786
  11.0180545  25.7654692  61.1844365  11.1932300  25.2942736  61.9989987
  10.3313333  26.3920459  61.4125625  11.9737608  20.0427199  67.2307666
  11.6387440  20.0027969  68.1265316  11.4741554  19.3771914  66.7578076
   5.9481852  15.4494829  72.7560247   5.8101650  14.7175067  73.3571786
   6.8586775  15.3603729  72.4744435  14.9096800  17.3883233  57.5044726
  14.2925970  16.6630061  57.4077778  14.4413288  18.1492593  57.1611800
   8.5764153  15.1614788  72.2443927   9.2863771  14.5207980  72.2030545
   8.5333461  15.4127683  73.1670108  16.5650931  22.0982141  75.1650506
  16.5063477  21.4141361  74.4981089  16.9670450  22.8401131  74.7131132
   7.2893086  12.1480006  74.0639566   6.7530444  11.6970744  74.7161163
   6.7009795  12.2825915  73.3210031   5.5841630  28.9144055  67.9584225
   5.8238228  29.5462579  68.6363243   4.7410826  28.5632095  68.2449584
  16.5668338  20.0621725  73.3964486  15.6795117  19.7247647  73.5190885
  17.1366890  19.3304756  73.6333251  10.0969492  24.7223178  70.3625729
  10.0239663  25.5278149  70.8745033   9.6546885  24.9215143  69.5373750
   9.8859271  23.9594948  63.8728550   9.1026793  24.5016628  63.9666775
  10.5852017  24.4768927  64.2722792  13.1955922   9.7689577  66.5162756
  13.6924621   9.0159539  66.1963826  12.4242903   9.8053894  65.9505965
  21.0485679  15.4729943  68.1581047  21.0375555  16.3554658  67.7874980
  20.1803058  15.1201493  67.9635584  12.5568175  24.6210012  72.5183888
  13.2696148  25.2557476  72.4459789  12.0658204  24.7173878  71.7023889
  14.2785702  18.5261264  64.0901179  13.3441981  18.6462727  63.9205884
  14.4562371  17.6233731  63.8261189   9.7790890  11.9106960  66.2434440
   9.4088678  11.3578000  66.9315346  10.2749983  11.3065094  65.6909440
  17.6658254  14.3678584  64.6251213  18.1318706  15.2006575  64.5511516
  18.1165754  13.9023565  65.3296472   7.6080089  22.3704455  73.3389458
   8.3089548  23.0040938  73.4918853   7.1375204  22.7119187  72.5785098
  15.7334485  20.7122405  61.6237365  16.0094329  20.5978999  62.5331239
  14.8638983  20.3139890  61.5849539  15.6374916   6.7359171  68.6642115
  14.7237996   6.9663397  68.8324322  16.0668018   6.8197615  69.5156147
  15.4081375  14.9249063  71.1642009  14.7552825  15.1724970  70.5094461
  15.7861755  14.1113201  70.8304486  12.3688549  24.9608756  65.2670179
  12.5510943  24.1430412  65.7297931  13.1921535  25.1776448  64.8295069
  12.7030714  23.8876941  62.5285228  13.2318481  23.3769395  61.9155390
  12.9658934  23.5719471  63.3930761  11.4568948  15.6668874  77.6508046
  10.7809585  15.5663003  78.3210421  12.2796582  15.5108087  78.1144043
   3.2047807  21.9040810  70.2720561   3.7901244  21.1584498  70.4048465
   3.0072645  22.2144767  71.1557225   6.0586462  24.9392057  65.2883003
   5.3896837  25.4238185  64.8047044   5.9199332  25.1861278  66.2026382
  10.1991731  26.9735801  71.8865662  10.7510039  27.1367423  72.6514747
  10.5397924  27.5640239  71.2145687  15.0502605  21.7997059  77.7414316
  15.5942509  22.4127017  77.2469271  14.4689450  22.3576637  78.2581329
  13.3360118  24.9217777  68.8729344  13.2111258  24.1207516  68.3640289
  13.9939209  25.4163970  68.3843314  15.3995026  22.7226797  70.5008894
  14.4525362  22.6032148  70.4287221  15.7477800  21.8349295  70.5835155
  12.4041460  22.5179513  66.7013246  12.2566422  21.5896220  66.8820816
  13.2294953  22.5399604  66.2170322  16.0075582  23.3408072  67.7878119
  16.9322129  23.1350933  67.6502570  15.8390885  23.0924473  68.6967461
  12.4002974  10.3717350  61.6945364  12.6166588  11.2541988  61.3934192
  11.9197041   9.9803564  60.9651006   7.1402195  13.3303064  68.2716108
   6.9946776  13.6443367  69.1640390   6.6627399  13.9487964  67.7187007
  10.8524709  10.7542952  70.3650125  10.5942487  11.6760023  70.3634456
  10.3209749  10.3573386  71.0550589  15.7970898  23.8593739  63.1440211
  15.9707775  23.2940162  62.3914063  16.2899789  24.6594634  62.9619700
   1.6147858  15.8708408  71.2103769   1.0701326  16.6468216  71.3424044
   2.4927207  16.2179213  71.0522891  21.6510289  16.6230162  64.7630510
  22.0941435  15.8737487  64.3649634  20.7736799  16.6140298  64.3804242
  16.7846070  23.1760503  60.2437109  17.4796975  23.7967196  60.4624423
  17.1269220  22.3255855  60.5189487  18.6837493  20.6260209  61.7724440
  19.2088817  20.9647482  61.0473760  18.5959846  19.6907224  61.5887574
  10.3457542  24.5394283  73.9014316  10.6544669  24.2943429  74.7737016
  11.1433024  24.7440921  73.4133186  10.3678154  26.6932192  66.1319693
   9.9283144  26.2008571  66.8252549  11.1186271  26.1505160  65.8911768
   2.8470493  22.8843733  66.1344321   3.6728513  22.5847505  65.7542964
   2.4964545  22.1151356  66.5834109   7.8152026  22.2370201  68.2041994
   7.1932036  21.5740906  67.9044222   8.4856893  22.2631333  67.5215642
  18.3731399  21.2593113  77.0775638  17.5826943  21.2417251  76.5380137
  18.1364754  21.7981406  77.8324674  18.4929275  18.1085579  74.3908366
  18.5427279  17.9435586  75.3323889  18.3843198  17.2412838  74.0006247
   7.3765533  20.7874125  61.6800455   7.5253654  21.4709589  61.0267128
   8.1831977  20.7679215  62.1949911  15.7833037  14.0916507  75.7067673
  16.6842900  13.9522972  75.4151671  15.8581011  14.2570962  76.6465850
  10.1175842  11.4683362  74.5520859   9.2479152  11.7616928  74.2803448
  10.3535323  12.0523807  75.2728123  19.9947471  20.5282520  74.6350388
  19.7032280  20.8912501  75.4713849  19.3819603  19.8149529  74.4563720
  21.1943154  18.0935400  67.1552958  22.0290045  18.5325204  67.3190518
  21.3302282  17.6174053  66.3361204  18.2434660  15.6515135  73.1030446
  18.7188781  15.8442781  72.2949297  17.3200225  15.7074321  72.8573829
   5.1318166  16.8139302  62.6861524   4.8864208  15.9101632  62.8841734
   5.3014081  16.8156453  61.7441002  12.8214876   7.6862979  72.0686279
  13.3396820   8.4224006  71.7432768  12.4670009   7.9926972  72.9033039
  10.8760939  23.2822255  59.1512202  10.3034906  23.9012442  58.6982674
  11.4493732  23.8321617  59.6852124  16.9436329  12.5280895  71.3358751
  17.8953751  12.6278993  71.3570975  16.7739779  11.7359164  71.8456836
  14.9650708   9.6136478  71.5218152  14.3700640   9.8941491  70.8264641
  14.6800405  10.1030379  72.2934893  14.0958199  23.5659405  60.2820785
  15.0288872  23.5004967  60.4853660  14.0081411  24.4015672  59.8235317
  16.7246215  22.8825276  57.2424732  16.6459847  22.5485139  58.1360490
  17.5455882  23.3747043  57.2416205  19.4224406  15.7487015  70.4501051
  19.3900726  14.8103016  70.6360735  20.0325030  15.8271052  69.7166876
  11.2607737  14.6183068  56.4928255  12.2066842  14.4889276  56.5616673
  10.8821982  13.8797730  56.9697683  19.5718895  12.5398058  70.4959334
  19.0557944  11.7556515  70.3089263  20.4558843  12.2116775  70.6605853
  17.2329622   6.2839074  66.4555147  17.0354443   5.9754162  67.3398479
  17.8429327   7.0100713  66.5853077  25.2400956  16.8103022  69.5907088
  25.9704345  16.5488310  70.1514791  24.6307902  16.0731744  69.6309156
  23.3216253  14.9510884  70.1881539  22.5949417  14.8166849  69.5798030
  22.9063540  15.2587713  70.9938257  11.1446430  18.6700814  77.9528912
  12.0649439  18.8479413  78.1468958  11.1096013  17.7256859  77.8008611
   9.4450654  12.5433044  56.4283140   8.5382110  12.2466157  56.5045854
   9.7226635  12.2462862  55.5617426   4.1408502  16.5801849  70.5951693
   4.3594512  17.5118956  70.6139727   4.5534276  16.2209823  71.3806497
  16.3682075   8.2748506  63.7130342  15.7880745   8.9333310  63.3308395
  16.1018008   7.4525851  63.3017760  14.8185642   7.6753564  65.9151663
  15.3185420   7.7870098  65.1065981  15.4621250   7.3714616  66.5552471
   8.8767638  15.5832193  78.8019504   8.3934719  16.3832553  79.0083393
   8.9628577  15.5940138  77.8486948   2.1453597  17.4160573  66.7241323
   2.1224285  17.5148260  65.7723206   2.4554234  18.2625724  67.0458489
   4.8040975  19.4736728  70.8387937   5.7584229  19.4420670  70.7717869
   4.6053499  19.0127352  71.6538163   5.3940357  18.0437844  73.4058735
   6.2133246  18.5381923  73.4293572   5.6677165  17.1269812  73.3776303
  15.1506954  10.4348596  62.7686691  14.2632809  10.7198247  62.5506885
  15.5660943  10.2742360  61.9213967  18.5021490  10.4595117  66.4841030
  19.2781880  10.9491570  66.7565647  17.7769624  10.8853171  66.9412899
  20.9394048  11.1722737  67.5414970  21.5338539  10.9318472  66.8308279
  21.0120632  10.4529867  68.1688507   3.1591204  25.0156347  67.8558135
   3.0245672  24.2556748  67.2896133   2.7423266  25.7397247  67.3886924
  14.2950167  20.1993271  56.8634711  14.9986017  20.4043273  57.4792366
  13.5712816  20.7670033  57.1283794  15.1247977  15.9503132  62.9836981
  15.0683179  16.4071684  62.1444613  15.6776320  15.1893817  62.8059823
  18.9352783  11.7392864  63.8087100  18.6789717  11.3389500  64.6395308
  18.3105651  12.4536658  63.6837239  23.2465121  14.4788937  66.3158392
  22.6864679  14.5482127  67.0889954  22.6408624  14.3029922  65.5957888
   6.3160330  25.9125664  68.0676578   6.1992714  26.8571097  67.9655268
   5.4952776  25.6099226  68.4562377  16.2036864  20.6375800  58.9133171
  17.0382468  20.2056999  58.7310645  16.0421207  20.4657814  59.8410065
  15.8582757  17.1407913  60.2789510  15.8031560  16.9752185  59.3377954
  15.2328812  17.8483946  60.4351700  13.1728664  19.4456825  79.6043073
  14.0419823  19.6197478  79.2429708  12.6935415  20.2651242  79.4818802
   7.3414844  26.5653926  71.2832506   8.2442091  26.5977537  71.5999001
   7.1152214  25.6354377  71.2978842   9.0968446  25.3184913  67.9442585
   8.1464077  25.3186775  67.8306957   9.4000932  24.5717647  67.4278620
  24.8321139  31.1545451  69.0088347  25.4699549  31.0352199  68.3051687
  24.7141982  32.1026295  69.0676299  21.6410846  31.1072879  68.9449872
  21.3029357  30.9913944  68.0570407  22.5100614  30.7064044  68.9250878
  17.4997661  32.9608356  64.9346763  16.9362527  32.8698293  64.1663051
  17.3850056  32.1408260  65.4149256  22.1230629  32.2607731  74.9036078
  22.1119270  31.8660529  74.0316581  22.2851268  31.5273804  75.4969849
  15.0462093  34.4559547  67.7730983  15.8383385  34.1150372  67.3577283
  15.2858744  34.5654522  68.6933137  23.0797220  36.6279324  60.2461228
  22.4285200  37.2133404  59.8595242  23.8741583  37.1585518  60.3056265
  17.0052847  33.7168461  60.6448362  17.7783723  33.1697448  60.5061238
  17.3578246  34.5812710  60.8562824  18.8437890  35.0444843  73.8515262
  18.5527756  35.9490474  73.7361928  19.4794874  35.0861371  74.5659331
  19.7694097  32.4221691  70.4416621  20.3657669  32.1977714  69.7273584
  19.8269068  31.6806437  71.0442069  19.3419125  29.8761127  58.2766812
  19.5944646  29.3542648  57.5150275  18.4043684  29.7127272  58.3793496
  24.3862408  28.8796905  66.0841555  25.1725497  28.4616328  65.7331972
  24.6501112  29.7842997  66.2523204  24.5572485  34.3169755  60.7830212
  23.9218318  34.3904382  61.4951117  24.2269892  34.9063354  60.1049291
  29.7870835  28.8172138  66.9874534  30.5196007  28.2471355  67.2212363
  29.0310191  28.4293739  67.4281039  19.0615414  31.7789233  60.4791187
  18.9451672  31.1034136  61.1472271  19.1717674  31.2921607  59.6623340
  21.4046955  31.2399380  64.1837876  21.0405162  30.7130001  64.8950798
  22.2614071  30.8497849  64.0104362  27.3096255  22.5293712  71.4469142
  26.9779580  23.3989123  71.2230357  26.7141869  22.2129996  72.1263173
  21.0452442  26.2689280  59.1799225  21.2126844  27.1369516  59.5469696
  20.8549611  26.4316561  58.2560514  23.8027775  34.7306258  70.8465055
  23.5028498  35.6331297  70.7380862  23.4578834  34.4638442  71.6986208
  17.2540256  31.1820055  66.8801760  16.3290753  31.0496269  67.0879451
  17.5024670  31.9614275  67.3771702  27.2024919  27.2488799  68.5262493
  26.2941796  27.1804207  68.2321254  27.1512515  27.7260744  69.3544318
  21.0241663  28.7246937  60.1645892  20.9041288  29.1703988  61.0031372
  20.3294251  29.0732255  59.6059430  14.6149067  30.8253329  67.7145549
  14.7441449  31.0787808  68.6284960  13.9346519  31.4181037  67.3950204
  18.7848555  41.4950579  63.8136023  18.7072584  42.4458404  63.8924503
  18.1810198  41.1496451  64.4710949  21.2765785  28.6678444  76.4697390
  20.4999119  29.2272364  76.4600254  21.9156348  29.1535227  76.9912260
  29.0686565  25.4505237  70.3040366  28.4260945  25.7437770  69.6580161
  28.5641494  25.3358157  71.1093563  26.7226729  29.1968410  60.9926226
  27.6344585  29.4295797  60.8173923  26.2136376  29.7805454  60.4301304
  19.5312157  31.4763898  76.0315357  20.2726841  32.0148942  75.7550180
  18.8249142  32.1030186  76.1886909  25.0067496  33.6193038  74.6287518
  25.4150853  33.1775449  73.8842151  24.2844758  33.0445666  74.8821711
  21.3598567  28.5565645  72.0021075  22.2059762  28.9805058  72.1455724
  21.2997204  27.8999269  72.6959638  25.3296311  34.1794229  68.3839807
  24.7005174  34.3439943  67.6815875  24.9421973  34.5935838  69.1550771
  29.2085543  35.1148667  65.7384171  28.5236581  35.4947568  65.1881204
  29.2929392  35.7243993  66.4716119  24.5098012  26.2170013  73.6602249
  24.2658944  26.9712074  73.1236525  24.7857942  26.5955361  74.4949496
  26.4636475  32.7608626  72.3379514  26.6753370  33.4040385  71.6613896
  26.4166223  31.9270942  71.8701445  24.0662704  25.3726446  69.2416087
  23.2047183  25.6707700  69.5332824  24.0925138  25.5896845  68.3097119
  20.8824273  33.9168637  65.6489892  21.3462619  34.1956340  64.8594515
  20.6181071  33.0152081  65.4662983  17.7748354  33.4640118  68.5869656
  18.3449711  33.8927387  67.9487140  18.3656466  33.1822703  69.2853841
  19.8193159  30.0391789  62.4579457  20.5217202  30.4912833  62.9253384
  19.4873788  29.3975608  63.0859351  18.2673521  28.6303546  76.8330667
  17.6372181  29.3119827  77.0666064  18.1609608  28.5186627  75.8883805
  13.5618493  28.2975342  67.7596591  12.7717547  28.5532870  67.2836702
  14.0529740  29.1123680  67.8648632  27.5782303  35.6380581  70.5101872
  28.3999746  35.2360768  70.2284553  27.5744705  35.5348815  71.4617988
  15.5133238  28.6619921  64.7180068  14.7164402  28.7738615  65.2363563
  15.2858831  29.0006573  63.8520958  21.3438906  35.1864624  72.6662582
  21.4083339  35.6485031  73.5020754  20.6349830  34.5561989  72.7944892
  11.8456196  28.5505832  70.1911582  12.0964234  29.4352842  70.4569158
  12.3815744  28.3710434  69.4186674  35.6688296  31.9819329  66.8586843
  34.9152004  31.4126728  66.7030848  35.8035837  31.9481994  67.8057478
  21.0586924  36.8532732  62.5341563  20.9232598  37.6984267  62.9626410
  21.5996736  37.0552009  61.7707496  17.5454263  22.9324312  79.1955918
  17.1521209  22.3790510  79.8703562  18.3620404  23.2434890  79.5862435
  14.5116321  34.3708170  63.1069488  15.0240842  35.1651420  63.2575052
  15.1639034  33.6734460  63.0403089  16.3211206  37.4873926  65.1892241
  16.4977834  38.4091891  65.0013225  17.1168039  37.1732345  65.6186621
  20.4622224  24.3482191  76.7876174  21.2031938  24.9489344  76.7080637
  20.6940147  23.6059828  76.2294217  15.6063562  29.5338558  75.0654404
  15.4917077  28.6323815  75.3661503  14.7508080  29.7802255  74.7139221
  17.4442521  39.0052100  71.1902583  17.9949946  38.8769163  70.4179577
  16.6053997  39.3046989  70.8397476  24.7836638  37.7559098  74.6923306
  24.7655113  38.5767979  74.2003575  25.7056558  37.6313173  74.9173447
  21.2409692  35.2703228  75.5346814  21.7738029  34.5091516  75.3046122
  20.7123773  34.9776879  76.2770969  24.4079387  20.3763294  71.0640456
  24.0643657  21.2664935  70.9879567  24.7758350  20.1864951  70.2010041
  12.4765238  32.6996824  63.8829058  13.3140460  33.1093832  63.6662766
  12.6543506  31.7596266  63.8529252  24.3729670  30.3671905  59.5712891
  23.8576293  31.1376509  59.8101279  24.1006978  29.6937041  60.1945953
  21.9576781  25.2121606  64.6298130  21.1018377  24.8228456  64.4503768
  22.3703733  25.2913566  63.7697915  23.4875928  22.7467949  69.0289689
  22.9840723  22.7098084  68.2157495  23.7806535  23.6560692  69.0886346
  19.7318814  22.8306679  68.0355871  20.5971810  22.6349487  67.6761761
  19.7996322  22.6017030  68.9625228  29.3463944  33.1204259  61.5066065
  28.5693387  32.7815419  61.0621227  30.0255425  33.1256883  60.8321030
  24.1615973  28.2398997  61.3972672  23.8566109  28.5545146  62.2482816
  25.1146415  28.3180417  61.4400005  22.6062405  34.3989220  63.0465626
  22.0783767  33.6641980  62.7338864  22.1049908  35.1763896  62.8005595
  27.5855251  32.5938241  68.1632673  26.9278925  33.2837502  68.2512801
  28.3895650  32.9834673  68.5066659  17.3381133  25.0608886  65.4072238
  17.9124885  24.8384068  64.6745431  17.9252115  25.1297581  66.1600839
  26.3960710  30.9482613  66.2136614  26.9092592  31.5812605  66.7158324
  27.0461934  30.3483809  65.8479974  17.6650720  27.0913347  59.4268123
  16.8288032  27.4288034  59.7477398  17.5255489  26.9562327  58.4895260
  19.6403800  21.9350135  64.1347307  18.9868213  21.6199153  63.5103922
  19.5984274  21.3125876  64.8607130  20.7515005  32.2169430  56.0500599
  19.8442067  31.9858684  56.2491748  21.2486037  31.4207050  56.2374581
  23.6583084  40.9266938  58.9697286  22.9844783  41.2298634  59.5782243
  24.0448906  41.7296018  58.6202743  22.8741541  28.4232069  68.4594955
  21.9564102  28.6447016  68.3016643  23.2901684  28.4978379  67.6006662
  23.6576588  29.8223485  63.5897635  24.4048407  30.3344882  63.2804757
  23.9268178  29.5007537  64.4502029  21.9303239  32.3182025  60.5724590
  21.0214458  32.0341058  60.6697059  21.9598322  32.7381104  59.7127896
  27.1622506  35.9288615  64.3415757  26.7084833  35.0879525  64.3980948
  26.5316473  36.5650013  64.6790537  26.1055426  26.8580601  65.5716425
  25.3678182  26.3457987  65.9026667  26.3582199  26.4180982  64.7599701
  25.6055445  37.7665111  65.2765575  25.8978420  38.3270169  64.5577941
  26.1154066  38.0593672  66.0318734  26.2067053  19.6356853  66.1658194
  26.5125930  18.7754216  65.8784109  26.9319658  20.2274473  65.9657188
  12.4991409  30.0387539  64.5539792  12.3015809  29.4456900  63.8290858
  11.9438073  29.7339750  65.2715730  20.4788133  29.9310646  66.6734385
  20.5336742  28.9784482  66.5976861  19.6679335  30.0870085  67.1575683
  21.6279326  33.8590769  57.9112668  21.1898756  33.1426628  57.4518305
  22.3689767  34.0866884  57.3497759  18.4180493  28.5487706  64.4324764
  17.6048358  28.8481876  64.8389956  18.9139487  28.1543394  65.1499246
  20.5689070  38.5445463  66.3659028  20.5265249  38.7706309  65.4367560
  21.4851769  38.3108837  66.5144830  24.0154704  29.0129530  73.2639658
  24.3704092  29.2401003  74.1234123  24.6626835  29.3447907  72.6416913
  29.7452441  32.1347966  63.9688987  29.6070340  32.3249562  63.0410176
  29.3888660  32.8967349  64.4257038  17.9094567  26.1206061  70.0485999
  18.5493947  25.9794820  69.3508962  17.0772098  25.8340575  69.6724601
  29.7721821  34.2024493  68.9800258  30.2058327  34.1099782  69.8283312
  30.4853402  34.1781993  68.3420274  18.6854871  35.4208492  66.1620991
  19.4795470  34.9258812  65.9603566  17.9746564  34.8926355  65.7988697
  23.5049716  37.8026587  70.5133359  23.5586738  38.3717523  71.2811075
  22.6364497  37.9728472  70.1487396  14.9937635  29.5651573  62.2380744
  14.0635223  29.5036029  62.4550706  15.0895107  29.0427526  61.4417385
  14.9123184  26.0906386  64.8258985  15.1730001  27.0051719  64.7168146
  15.7340356  25.6230829  64.9755598  16.3848109  27.5044143  71.9957810
  17.0571163  27.2961505  71.3470459  15.5577896  27.3066229  71.5563042
  30.6337370  34.2448194  71.5133144  30.8273260  35.1494004  71.7592418
  30.5337989  33.7855613  72.3471729  22.2873681  24.1306084  74.0123471
  21.6401596  24.8296034  73.9187947  23.0574696  24.5642228  74.3799719
  25.6952479  34.3954936  77.0874024  25.5437985  34.1665488  76.1704108
  25.6857159  35.3525538  77.1005369  22.4637815  31.9686849  72.0720291
  23.3929875  32.1198009  71.8989258  22.0428845  32.0570870  71.2168937
  21.2626147  35.9937514  69.8418828  21.1237233  35.6256298  70.7144766
  20.4740743  36.5085153  69.6702786  21.8574299  41.0946610  61.1844365
  22.0326055  40.6234653  61.9989987  21.1707087  41.7212376  61.4125625
  22.8131362  35.3719116  67.2307666  22.4781195  35.3319886  68.1265316
  22.3135308  34.7063832  66.7578076  16.7875606  30.7786746  72.7560247
  16.6495404  30.0466985  73.3571786  17.6980530  30.6895646  72.4744435
  25.7490554  32.7175151  57.5044726  25.1319725  31.9921979  57.4077778
  25.2807042  33.4784511  57.1611800  19.4157907  30.4906706  72.2443927
  20.1257526  29.8499898  72.2030545  19.3727215  30.7419600  73.1670108
  27.4044686  37.4274059  75.1650506  27.3457232  36.7433279  74.4981089
  27.8064204  38.1693049  74.7131132  18.1286841  27.4771923  74.0639566
  17.5924198  27.0262662  74.7161163  17.5403549  27.6117832  73.3210031
  16.4235384  44.2435973  67.9584225  16.6631983  44.8754497  68.6363243
  15.5804581  43.8924013  68.2449584  17.5389100  26.9360575  56.6266030
  16.6618566  26.8149376  56.2628277  18.0146853  26.1446653  56.3744919
  27.4062093  35.3913643  73.3964486  26.5188872  35.0539565  73.5190885
  27.9760644  34.6596674  73.6333251   9.0591240  31.7237735  66.7207537
   9.7462280  31.4099465  66.1328552   8.9039369  32.6279099  66.4474789
  13.8625962  26.6127931  71.1492561  13.7784151  26.0053601  70.4142971
  13.0408669  27.1036950  71.1502057  20.9363246  40.0515095  70.3625729
  20.8633418  40.8570067  70.8745033  20.4940639  40.2507061  69.5373750
  20.7253026  39.2886865  63.8728550  19.9420548  39.8308545  63.9666775
  21.4245771  39.8060845  64.2722792  24.0349676  25.0981495  66.5162756
  24.5318376  24.3451457  66.1963826  23.2636658  25.1345811  65.9505965
  31.8879433  30.8021860  68.1581047  31.8769310  31.6846576  67.7874980
  31.0196813  30.4493411  67.9635584  25.1179457  33.8553182  64.0901179
  24.1835736  33.9754644  63.9205884  25.2956125  32.9525649  63.8261189
  20.6184645  27.2398878  66.2434440  20.2482432  26.6869918  66.9315346
  21.1143737  26.6357011  65.6909440  28.5052008  29.6970501  64.6251213
  28.9712460  30.5298493  64.5511516  28.9559509  29.2315483  65.3296472
  18.4473843  37.6996373  73.3389458  19.1483303  38.3332856  73.4918853
  17.9768958  38.0411104  72.5785098  26.5728239  36.0414323  61.6237365
  26.8488083  35.9270917  62.5331239  25.7032738  35.6431807  61.5849539
  26.4768671  22.0651088  68.6642115  25.5631751  22.2955315  68.8324322
  26.9061772  22.1489532  69.5156147  26.2475129  30.2540980  71.1642009
  25.5946580  30.5016888  70.5094461  26.6255509  29.4405118  70.8304486
  23.5424469  39.2168858  62.5285228  24.0712235  38.7061313  61.9155390
  23.8052688  38.9011389  63.3930761  22.2962702  30.9960791  77.6508046
  21.6203339  30.8954921  78.3210421  23.1190336  30.8400005  78.1144043
  14.0441561  37.2332728  70.2720561  14.6294998  36.4876416  70.4048465
  13.8466400  37.5436684  71.1557225  16.8980217  40.2683975  65.2883003
  16.2290592  40.7530103  64.8047044  16.7593086  40.5153196  66.2026382
   8.6359216  29.8038328  68.9925004   8.6743316  29.2701919  69.7862122
   8.1299509  29.2773534  68.3735981  16.0149978  24.6502868  72.4887547
  16.0791305  25.5117699  72.0764944  15.9517099  24.0376870  71.7559905
  15.4902251  26.7226001  76.1360581  16.1174290  26.3403078  76.7498105
  14.6330170  26.5040203  76.5016273  25.8896360  37.1288976  77.7414316
  26.4336264  37.7418934  77.2469271  25.3083204  37.6868555  78.2581329
  12.2667794  28.5302430  62.0678936  12.5621235  27.6213109  62.0145989
  11.3655830  28.5090170  61.7459938  15.7962041  26.6058427  68.0506484
  15.0748627  27.2194394  67.9113958  16.5855297  27.1416192  67.9723130
  26.2388781  38.0518714  70.5008894  25.2919116  37.9324065  70.4287221
  26.5871554  37.1641212  70.5835155  18.5988354  23.9412853  74.3247136
  19.1222756  24.1875150  75.0873445  18.3800688  24.7732888  73.9050273
  13.9955635  26.2116528  62.1918261  13.6668342  25.3313907  62.0093367
  14.3495006  26.1564196  63.0794650  23.2435214  37.8471431  66.7013246
  23.0960177  36.9188138  66.8820816  24.0688708  37.8691521  66.2170322
  17.1097459  26.4989498  62.5593738  17.4493531  27.0275419  61.8372347
  17.5569579  26.8369904  63.3352305  26.8469336  38.6699989  67.7878119
  27.7715884  38.4642851  67.6502570  26.6784639  38.4216390  68.6967461
  19.8040899  24.8826548  72.0096806  19.4637720  24.0834361  72.4117486
  19.0979906  25.1828259  71.4373640  20.4557371  21.9675861  70.4624130
  21.2783440  21.4936339  70.3403020  20.6995435  22.7466345  70.9622816
  19.0965606  24.9964119  60.7587031  19.8173968  25.3745372  60.2550748
  18.4730910  25.7152996  60.8622009  23.2396729  25.7009268  61.6945364
  23.4560343  26.5833906  61.3934192  22.7590796  25.3095482  60.9651006
  17.9795950  28.6594981  68.2716108  17.8340531  28.9735284  69.1640390
  17.5021154  29.2779882  67.7187007  19.8392333  25.6497529  68.3196998
  19.8253902  24.7538623  67.9829296  20.5564761  25.6568193  68.9535284
  21.6918464  26.0834870  70.3650125  21.4336241  27.0051940  70.3634456
  21.1603504  25.6865304  71.0550589  26.6364652  39.1885657  63.1440211
  26.8101530  38.6232079  62.3914063  27.1293544  39.9886552  62.9619700
  12.4541612  31.2000326  71.2103769  11.9095080  31.9760134  71.3424044
  13.3320962  31.5471130  71.0522891  19.2429229  24.5311910  63.5884568
  19.3645140  23.6028556  63.7875455  18.9531271  24.5450596  62.6762883
  22.1120419  22.2166820  66.7251288  22.1342116  22.2806153  65.7703267
  22.5288478  21.3771329  66.9191794  32.4904043  31.9522080  64.7630510
  32.9335189  31.2029405  64.3649634  31.6130554  31.9432216  64.3804242
  27.6239825  38.5052421  60.2437109  28.3190729  39.1259114  60.4624423
  27.9662975  37.6547772  60.5189487  13.2407634  30.3270222  74.1033926
  12.4989370  30.4752857  74.6898557  12.9200378  30.5878488  73.2400676
  29.5231248  35.9552127  61.7724440  30.0482572  36.2939399  61.0473760
  29.4353600  35.0199142  61.5887574  13.6864248  38.2135651  66.1344321
  14.5122268  37.9139423  65.7542964  13.3358300  37.4443273  66.5834109
  18.6545781  37.5662119  68.2041994  18.0325790  36.9032824  67.9044222
  19.3250648  37.5923251  67.5215642  11.8872853  36.1321977  67.0933254
  11.0504761  35.7044152  66.9117256  11.8596498  36.3254421  68.0304046
  18.7270308  26.0443907  77.7974500  18.7758464  26.9206030  77.4152270
  19.2692822  25.5021300  77.2246144  29.2125154  36.5885030  77.0775638
  28.4220698  36.5709169  76.5380137  28.9758509  37.1273324  77.8324674
  29.3323029  33.4377497  74.3908366  29.3821034  33.2727504  75.3323889
  29.2236952  32.5704756  74.0006247  18.2159288  36.1166042  61.6800455
  18.3647408  36.8001507  61.0267128  19.0225731  36.0971132  62.1949911
  26.6226791  29.4208425  75.7067673  27.5236654  29.2814890  75.4151671
  26.6974766  29.5862880  76.6465850  20.9569597  26.7975279  74.5520859
  20.0872906  27.0908845  74.2803448  21.1929077  27.3815724  75.2728123
  30.8341226  35.8574438  74.6350388  30.5426034  36.2204419  75.4713849
  30.2213357  35.1441446  74.4563720  32.0336908  33.4227318  67.1552958
  32.8683800  33.8617122  67.3190518  32.1696037  32.9465971  66.3361204
  29.0828414  30.9807053  73.1030446  29.5582536  31.1734699  72.2949297
  28.1593979  31.0366239  72.8573829  15.9711921  32.1431220  62.6861524
  15.7257963  31.2393550  62.8841734  16.1407835  32.1448370  61.7441002
  23.6608631  23.0154896  72.0686279  24.1790574  23.7515923  71.7432768
  23.3063763  23.3218890  72.9033039  15.2407568  27.8759578  60.1847685
  14.5476813  27.9503933  59.5287721  14.9959320  27.1119921  60.7069202
  23.9121225  19.4355179  67.5887176  24.1922979  18.7678368  68.2147603
  24.6971832  19.6284275  67.0761840  21.7154693  38.6114173  59.1512202
  21.1428660  39.2304360  58.6982674  22.2887487  39.1613534  59.6852124
  27.7830083  27.8572813  71.3358751  28.7347506  27.9570911  71.3570975
  27.6133533  27.0651081  71.8456836  25.8044463  24.9428396  71.5218152
  25.2094395  25.2233409  70.8264641  25.5194159  25.4322297  72.2934893
  24.9351953  38.8951323  60.2820785  25.8682626  38.8296885  60.4853660
  24.8475166  39.7307590  59.8235317  27.5639970  38.2117193  57.2424732
  27.4853601  37.8777057  58.1360490  28.3849636  38.7038961  57.2416205
  30.2618161  31.0778933  70.4501051  30.2294481  30.1394933  70.6360735
  30.8718785  31.1562969  69.7166876  22.1001492  29.9474986  56.4928255
  23.0460596  29.8181194  56.5616673  21.7215737  29.2089647  56.9697683
  30.4112649  27.8689976  70.4959334  29.8951698  27.0848433  70.3089263
  31.2952598  27.5408693  70.6605853  28.0723376  21.6130992  66.4555147
  27.8748197  21.3046080  67.3398479  28.6823082  22.3392630  66.5853077
  36.0794711  32.1394939  69.5907088  36.8098099  31.8780228  70.1514791
  35.4701656  31.4023661  69.6309156  34.1610008  30.2802802  70.1881539
  33.4343171  30.1458767  69.5798030  33.7457295  30.5879631  70.9938257
  21.9840184  33.9992732  77.9528912  22.9043194  34.1771331  78.1468958
  21.9489767  33.0548777  77.8008611  20.2844409  27.8724962  56.4283140
  19.3775864  27.5758075  56.5045854  20.5620390  27.5754780  55.5617426
  11.2022349  29.1931325  66.8782186  10.8825134  28.3396634  66.5856560
  10.6555777  29.4079903  67.6340154  14.9802257  31.9093766  70.5951693
  15.1988267  32.8410874  70.6139727  15.3928031  31.5501741  71.3806497
  21.9006475  22.4161852  62.5827381  21.0907203  22.0708937  62.9582627
  22.5890892  22.1069395  63.1714993  23.8297023  21.4939898  64.2051678
  24.3828062  21.9135352  64.8641701  24.0667109  20.5675647  64.2474634
  19.8530122  27.4826972  79.9854442  19.7526849  28.4321329  79.9166533
  19.6351664  27.1545211  79.1130512  19.0543194  24.7311897  56.5695119
  19.9162358  25.0566795  56.8290937  19.2393538  23.9443393  56.0568185
  11.0710609  32.8134237  68.8475308  10.3774081  32.3988190  68.3345262
  11.8183600  32.8554773  68.2508727  27.2075830  23.6040424  63.7130342
  26.6274499  24.2625228  63.3308395  26.9411763  22.7817768  63.3017760
  25.6579396  23.0045481  65.9151663  26.1579175  23.1162016  65.1065981
  26.3015004  22.7006534  66.5552471  19.7161392  30.9124111  78.8019504
  19.2328474  31.7124471  79.0083393  19.8022331  30.9232056  77.8486948
  12.9847352  32.7452491  66.7241323  12.9618040  32.8440178  65.7723206
  13.2947988  33.5917641  67.0458489  15.6434730  34.8028646  70.8387937
  16.5977983  34.7712588  70.7717869  15.4447253  34.3419269  71.6538163
  16.2334112  33.3729762  73.4058735  17.0527001  33.8673840  73.4293572
  16.5070920  32.4561730  73.3776303  25.9900708  25.7640514  62.7686691
  25.1026563  26.0490165  62.5506885  26.4054697  25.6034277  61.9213967
  29.3415244  25.7887035  66.4841030  30.1175634  26.2783487  66.7565647
  28.6163378  26.2145089  66.9412899  31.7787803  26.5014654  67.5414970
  32.3732294  26.2610390  66.8308279  31.8514386  25.7821785  68.1688507
  13.9984958  40.3448265  67.8558135  13.8639426  39.5848666  67.2896133
  13.5817021  41.0689165  67.3886924  25.1343921  35.5285189  56.8634711
  25.8379772  35.7335191  57.4792366  24.4106570  36.0961951  57.1283794
  25.9641732  31.2795050  62.9836981  25.9076933  31.7363601  62.1444613
  26.5170074  30.5185735  62.8059823  29.7746538  27.0684782  63.8087100
  29.5183472  26.6681417  64.6395308  29.1499406  27.7828576  63.6837239
  34.0858876  29.8080855  66.3158392  33.5258433  29.8774044  67.0889954
  33.4802379  29.6321840  65.5957888  17.1554084  41.2417582  68.0676578
  17.0386468  42.1863015  67.9655268  16.3346531  40.9391144  68.4562377
  27.0430619  35.9667718  58.9133171  27.8776223  35.5348916  58.7310645
  26.8814962  35.7949732  59.8410065  26.6976511  32.4699831  60.2789510
  26.6425315  32.3044103  59.3377954  26.0722566  33.1775864  60.4351700
  11.4869026  27.7067896  74.1050932  12.1327890  27.1966850  74.5938157
  11.2786177  28.4436577  74.6794357  24.0122418  34.7748743  79.6043073
  24.8813578  34.9489395  79.2429708  23.5329170  35.5943160  79.4818802
  20.0072637  21.9707940  59.8574828  19.9951306  22.9149780  60.0143099
  20.8996058  21.7878086  59.5634289  18.1808598  41.8945844  71.2832506
  19.0835845  41.9269454  71.5999001  17.9545969  40.9646295  71.2978842
  19.9362200  40.6476831  67.9442585  18.9857831  40.6478692  67.8306957
  20.2394687  39.9009565  67.4278620  23.8224756  18.5650717  64.1120765
  23.0557152  18.0109204  64.2577447  24.2335461  18.6372586  64.9734917
  15.8266517  24.8535513  78.2025946  16.6897979  24.4972317  78.4129271
  15.2531928  24.5149407  78.8901351  38.1490010  37.8585630  71.4469142
  37.8173335  38.7281041  71.2230357  37.5535623  37.5421914  72.1263173
  31.8635417  44.0538855  60.1645892  31.7435042  44.4995905  61.0031372
  31.1688006  44.4024172  59.6059430  32.1159539  43.9970362  76.4697390
  31.3392873  44.5564282  76.4600254  32.7550102  44.4827145  76.9912260
  39.9080320  40.7797155  70.3040366  39.2654700  41.0729688  69.6580161
  39.4035248  40.6650075  71.1093563  32.1992321  43.8857562  72.0021075
  33.0453516  44.3096976  72.1455724  32.1390959  43.2291187  72.6959638
  35.3491766  41.5461931  73.6602249  35.1052698  42.3003991  73.1236525
  35.6251697  41.9247278  74.4949496  34.9056458  40.7018364  69.2416087
  34.0440937  40.9999617  69.5332824  34.9318893  40.9188763  68.3097119
  30.6586914  45.3683707  62.4579457  31.3610957  45.8204750  62.9253384
  30.3267542  44.7267526  63.0859351  26.3526993  43.9911839  64.7180068
  25.5558156  44.1030533  65.2363563  26.1252585  44.3298491  63.8520958
  28.3848018  38.2616229  79.1955918  27.9914963  37.7082428  79.8703562
  29.2014158  38.5726808  79.5862435  31.3015979  39.6774108  76.7876174
  32.0425692  40.2781262  76.7080637  31.5333902  38.9351746  76.2294217
  35.2473142  35.7055211  71.0640456  34.9037411  36.5956853  70.9879567
  35.6152104  35.5156869  70.2010041  23.3158992  48.0288742  63.8829058
  24.1534214  48.4385750  63.6662766  23.4937260  47.0888184  63.8529252
  32.7970535  40.5413523  64.6298130  31.9412132  40.1520374  64.4503768
  33.2097487  40.6205484  63.7697915  34.3269682  38.0759866  69.0289689
  33.8234478  38.0390002  68.2157495  34.6200289  38.9852609  69.0886346
  30.5712568  38.1598596  68.0355871  31.4365565  37.9641405  67.6761761
  30.6390077  37.9308948  68.9625228  28.1774887  40.3900804  65.4072238
  28.7518639  40.1675986  64.6745431  28.7645870  40.4589499  66.1600839
  28.5044474  42.4205265  59.4268123  27.6681786  42.7579952  59.7477398
  28.3649244  42.2854245  58.4895260  30.4797555  37.2642053  64.1347307
  29.8261967  36.9491070  63.5103922  30.4378029  36.6417793  64.8607130
  33.7135295  43.7523987  68.4594955  32.7957857  43.9738934  68.3016643
  34.1295439  43.8270297  67.6006662  37.0460807  34.9648770  66.1658194
  37.3519684  34.1046134  65.8784109  37.7713412  35.5566391  65.9657188
  23.3385163  45.3679457  64.5539792  23.1409563  44.7748818  63.8290858
  22.7831827  45.0631667  65.2715730  31.3181887  45.2602564  66.6734385
  31.3730497  44.3076400  66.5976861  30.5073089  45.4162003  67.1575683
  29.2574247  43.8779623  64.4324764  28.4442113  44.1773794  64.8389956
  29.7533241  43.4835312  65.1499246  34.8548459  44.3421448  73.2639658
  35.2097846  44.5692921  74.1234123  35.5020590  44.6739825  72.6416913
  25.8331389  44.8943491  62.2380744  24.9028977  44.8327946  62.4550706
  25.9288861  44.3719444  61.4417385  25.7516938  41.4198304  64.8258985
  26.0123756  42.3343637  64.7168146  26.5734111  40.9522746  64.9755598
  33.1267436  39.4598002  74.0123471  32.4795351  40.1587952  73.9187947
  33.8968451  39.8934146  74.3799719  28.9680595  42.8063841  74.0639566
  28.4317952  42.3554580  74.7161163  28.3797304  42.9409750  73.3210031
  19.8984995  47.0529652  66.7207537  20.5856034  46.7391382  66.1328552
  19.7433123  47.9571017  66.4474789  34.8743431  40.4273412  66.5162756
  35.3712130  39.6743375  66.1963826  34.1030412  40.4637729  65.9505965
  31.4578399  42.5690795  66.2434440  31.0876187  42.0161836  66.9315346
  31.9537492  41.9648929  65.6909440  37.3162425  37.3943006  68.6642115
  36.4025505  37.6247233  68.8324322  37.7455527  37.4781450  69.5156147
  19.4752971  45.1330246  68.9925004  19.5137070  44.5993836  69.7862122
  18.9693264  44.6065451  68.3735981  26.8543733  39.9794786  72.4887547
  26.9185059  40.8409617  72.0764944  26.7910853  39.3668788  71.7559905
  26.3296006  42.0517919  76.1360581  26.9568044  41.6694996  76.7498105
  25.4723924  41.8332121  76.5016273  23.1061548  43.8594348  62.0678936
  23.4014989  42.9505026  62.0145989  22.2049584  43.8382087  61.7459938
  29.4382109  39.2704771  74.3247136  29.9616511  39.5167067  75.0873445
  29.2194442  40.1024806  73.9050273  24.8349390  41.5408445  62.1918261
  24.5062096  40.6605824  62.0093367  25.1888761  41.4856114  63.0794650
  27.9491213  41.8281415  62.5593738  28.2887286  42.3567337  61.8372347
  28.3963333  42.1661821  63.3352305  30.6434654  40.2118466  72.0096806
  30.3031474  39.4126279  72.4117486  29.9373660  40.5120177  71.4373640
  31.2951126  37.2967778  70.4624130  32.1177195  36.8228257  70.3403020
  31.5389189  38.0758262  70.9622816  29.9359360  40.3256037  60.7587031
  30.6567723  40.7037290  60.2550748  29.3124664  41.0444914  60.8622009
  28.8189704  43.9886899  68.2716108  28.6734285  44.3027202  69.1640390
  28.3414908  44.6071799  67.7187007  30.6786087  40.9789447  68.3196998
  30.6647656  40.0830540  67.9829296  31.3958515  40.9860111  68.9535284
  32.5312218  41.4126787  70.3650125  32.2729996  42.3343858  70.3634456
  31.9997258  41.0157222  71.0550589  30.0822983  39.8603827  63.5884568
  30.2038894  38.9320474  63.7875455  29.7925026  39.8742513  62.6762883
  32.9514174  37.5458738  66.7251288  32.9735870  37.6098071  65.7703267
  33.3682233  36.7063246  66.9191794  29.5664063  41.3735825  77.7974500
  29.6152218  42.2497948  77.4152270  30.1086577  40.8313218  77.2246144
  31.7963351  42.1267197  74.5520859  30.9266661  42.4200763  74.2803448
  32.0322832  42.7107642  75.2728123  26.8105675  47.4723138  62.6861524
  26.5651717  46.5685468  62.8841734  26.9801590  47.4740288  61.7441002
  34.5002385  38.3446814  72.0686279  35.0184329  39.0807841  71.7432768
  34.1457518  38.6510807  72.9033039  26.0801323  43.2051495  60.1847685
  25.3870568  43.2795850  59.5287721  25.8353075  42.4411839  60.7069202
  34.7514979  34.7647097  67.5887176  35.0316733  34.0970286  68.2147603
  35.5365586  34.9576192  67.0761840  36.6438217  40.2720314  71.5218152
  36.0488149  40.5525326  70.8264641  36.3587914  40.7614215  72.2934893
  32.7400229  37.7453769  62.5827381  31.9300957  37.4000854  62.9582627
  33.4284646  37.4361313  63.1714993  34.6690777  36.8231816  64.2051678
  35.2221816  37.2427270  64.8641701  34.9060864  35.8967564  64.2474634
  30.6923877  42.8118890  79.9854442  30.5920604  43.7613247  79.9166533
  30.4745419  42.4837129  79.1130512  21.9104364  48.1426154  68.8475308
  21.2167835  47.7280107  68.3345262  22.6577355  48.1846691  68.2508727
  36.4973151  38.3337399  65.9151663  36.9972929  38.4453934  65.1065981
  37.1408759  38.0298452  66.5552471  30.8466391  37.2999858  59.8574828
  30.8345061  38.2441698  60.0143099  31.7389813  37.1170003  59.5634289
  34.6618510  33.8942634  64.1120765  33.8950906  33.3401121  64.2577447
  35.0729215  33.9664503  64.9734917  26.6660272  40.1827430  78.2025946
  27.5291733  39.8264235  78.4129271  26.0925682  39.8441325  78.8901351
  42.6357106  57.4559115  74.5520859  41.7660415  57.7492681  74.2803448
  42.8716586  58.0399560  75.2728123  55.2036664  83.4632051  76.6641905
  54.7600518  82.6768430  76.3462809  55.8653877  83.6511202  75.9985796
  53.5566749  88.2903472  71.8865662  54.1085057  88.4535093  72.6514747
  53.8972942  88.8807910  71.2145687  68.1896157  92.4713122  69.0088347
  68.8274567  92.3519869  68.3051687  68.0717000  93.4193966  69.0676299
  64.9985864  92.4240550  68.9449872  64.6604375  92.3081615  68.0570407
  65.8675632  92.0231715  68.9250878  60.8572679  94.2776027  64.9346763
  60.2937545  94.1865963  64.1663051  60.7425074  93.4575931  65.4149256
  65.4805647  93.5775402  74.9036078  65.4694287  93.1828200  74.0316581
  65.6426286  92.8441474  75.4969849  58.4037111  95.7727218  67.7730983
  59.1958403  95.4318043  67.3577283  58.6433762  95.8822193  68.6933137
  66.4372238  97.9446994  60.2461228  65.7860218  98.5301075  59.8595242
  67.2316601  98.4753189  60.3056265  60.3627865  95.0336131  60.6448362
  61.1358741  94.4865118  60.5061238  60.7153264  95.8980381  60.8562824
  62.2012908  96.3612514  73.8515262  61.9102774  97.2658144  73.7361928
  62.8369892  96.4029041  74.5659331  63.1269115  93.7389362  70.4416621
  63.7232687  93.5145385  69.7273584  63.1844086  92.9974108  71.0442069
  62.6994143  91.1928797  58.2766812  62.9519664  90.6710319  57.5150275
  61.7618702  91.0294943  58.3793496  67.9147503  95.6337426  60.7830212
  67.2793336  95.7072053  61.4951117  67.5844910  96.2231025  60.1049291
  73.1445853  90.1339809  66.9874534  73.8771025  89.5639026  67.2212363
  72.3885209  89.7461410  67.4281039  62.4190432  93.0956903  60.4791187
  62.3026690  92.4201807  61.1472271  62.5292692  92.6089277  59.6623340
  64.7621973  92.5567051  64.1837876  64.3980180  92.0297672  64.8950798
  65.6189089  92.1665520  64.0104362  70.6671273  83.8461383  71.4469142
  70.3354598  84.7156794  71.2230357  70.0716887  83.5297667  72.1263173
  67.1602793  96.0473929  70.8465055  66.8603516  96.9498968  70.7380862
  66.8153852  95.7806112  71.6986208  60.6115274  92.4987726  66.8801760
  59.6865771  92.3663940  67.0879451  60.8599688  93.2781945  67.3771702
  70.5599937  88.5656469  68.5262493  69.6516814  88.4971878  68.2321254
  70.5087533  89.0428414  69.3544318  64.3816681  90.0414608  60.1645892
  64.2616306  90.4871659  61.0031372  63.6869269  90.3899925  59.6059430
  57.9724085  92.1421000  67.7145549  58.1016467  92.3955478  68.6284960
  57.2921537  92.7348708  67.3950204  62.1423573 102.8118250  63.8136023
  62.0647602 103.7626075  63.8924503  61.5385216 102.4664122  64.4710949
  64.6340802  89.9846115  76.4697390  63.8574137  90.5440035  76.4600254
  65.2731366  90.4702898  76.9912260  72.4261583  86.7672908  70.3040366
  71.7835963  87.0605441  69.6580161  71.9216512  86.6525828  71.1093563
  70.0801747  90.5136081  60.9926226  70.9919603  90.7463468  60.8173923
  69.5711394  91.0973125  60.4301304  62.8887175  92.7931568  76.0315357
  63.6301859  93.3316612  75.7550180  62.1824160  93.4197857  76.1886909
  68.3642514  94.9360709  74.6287518  68.7725870  94.4943119  73.8842151
  67.6419776  94.3613336  74.8821711  64.7173584  89.8733316  72.0021075
  65.5634780  90.2972729  72.1455724  64.6572222  89.2166940  72.6959638
  68.6871329  95.4961899  68.3839807  68.0580192  95.6607614  67.6815875
  68.2996991  95.9103509  69.1550771  72.5660561  96.4316337  65.7384171
  71.8811599  96.8115239  65.1881204  72.6504410  97.0411664  66.4716119
  67.8673030  87.5337684  73.6602249  67.6233962  88.2879744  73.1236525
  68.1432960  87.9123031  74.4949496  69.8211493  94.0776296  72.3379514
  70.0328388  94.7208056  71.6613896  69.7741241  93.2438613  71.8701445
  64.2399291  95.2336307  65.6489892  64.7037637  95.5124010  64.8594515
  63.9756089  94.3319752  65.4662983  61.1323372  94.7807789  68.5869656
  61.7024729  95.2095057  67.9487140  61.7231484  94.4990374  69.2853841
  63.1768177  91.3559460  62.4579457  63.8792220  91.8080504  62.9253384
  62.8448806  90.7143279  63.0859351  61.6248539  89.9471216  76.8330667
  60.9947199  90.6287497  77.0666064  61.5184626  89.8354298  75.8883805
  56.9193511  89.6143012  67.7596591  56.1292565  89.8700541  67.2836702
  57.4104758  90.4291350  67.8648632  70.9357321  96.9548252  70.5101872
  71.7574764  96.5528439  70.2284553  70.9319723  96.8516486  71.4617988
  64.7013924  96.5032295  72.6662582  64.7658357  96.9652702  73.5020754
  63.9924848  95.8729660  72.7944892  55.2031214  89.8673503  70.1911582
  55.4539252  90.7520513  70.4569158  55.7390762  89.6878104  69.4186674
  79.0263314  93.2987000  66.8586843  78.2727022  92.7294398  66.7030848
  79.1610855  93.2649665  67.8057478  64.4161942  98.1700402  62.5341563
  64.2807616  99.0151938  62.9626410  64.9571754  98.3719680  61.7707496
  60.9029281  84.2491982  79.1955918  60.5096227  83.6958181  79.8703562
  61.7195422  84.5602561  79.5862435  57.8691339  95.6875840  63.1069488
  58.3815860  96.4819091  63.2575052  58.5214052  94.9902131  63.0403089
  59.6786224  98.8041597  65.1892241  59.8552852  99.7259561  65.0013225
  60.4743057  98.4900016  65.6186621  63.8197242  85.6649861  76.7876174
  64.5606956  86.2657015  76.7080637  64.0515165  84.9227499  76.2294217
  58.9638580  90.8506229  75.0654404  58.8492095  89.9491486  75.3661503
  58.1083098  91.0969925  74.7139221  66.0430418  98.7923969  76.6641905
  65.5994272  98.0060348  76.3462809  66.7047632  98.9803119  75.9985796
  60.8017539 100.3219771  71.1902583  61.3524964 100.1936834  70.4179577
  59.9629015 100.6214660  70.8397476  68.1411656  99.0726769  74.6923306
  68.1230131  99.8935650  74.2003575  69.0631576  98.9480844  74.9173447
  64.5984710  96.5870898  75.5346814  65.1313047  95.8259187  75.3046122
  64.0698791  96.2944550  76.2770969  55.8340256  94.0164495  63.8829058
  56.6715478  94.4261503  63.6662766  56.0118524  93.0763937  63.8529252
  67.7304688  91.6839575  59.5712891  67.2151311  92.4544180  59.8101279
  67.4581996  91.0104712  60.1945953  72.7038962  94.4371930  61.5066065
  71.9268405  94.0983090  61.0621227  73.3830443  94.4424553  60.8321030
  67.5190991  89.5566668  61.3972672  67.2141127  89.8712817  62.2482816
  68.4721433  89.6348087  61.4400005  65.9637423  95.7156891  63.0465626
  65.4358785  94.9809650  62.7338864  65.4624926  96.4931567  62.8005595
  70.9430269  93.9105911  68.1632673  70.2853943  94.6005173  68.2512801
  71.7470668  94.3002343  68.5066659  69.7535728  92.2650284  66.2136614
  70.2667610  92.8980276  66.7158324  70.4036952  91.6651480  65.8479974
  64.1090023  93.5337101  56.0500599  63.2017085  93.3026355  56.2491748
  64.6061055  92.7374720  56.2374581  67.0158102 102.2434608  58.9697286
  66.3419801 102.5466305  59.5782243  67.4023924 103.0463689  58.6202743
  67.0151606  91.1391155  63.5897635  67.7623425  91.6512552  63.2804757
  67.2843196  90.8175208  64.4502029  65.2878257  93.6349696  60.5724590
  64.3789476  93.3508729  60.6697059  65.3173340  94.0548775  59.7127896
  70.5197524  97.2456285  64.3415757  70.0659851  96.4047195  64.3980948
  69.8891491  97.8817684  64.6790537  68.9630463  99.0832782  65.2765575
  69.2553438  99.6437839  64.5577941  69.4729084  99.3761343  66.0318734
  69.5642071  80.9524524  66.1658194  69.8700948  80.0921887  65.8784109
  70.2894676  81.5442144  65.9657188  63.8363151  91.2478317  66.6734385
  63.8911760  90.2952153  66.5976861  63.0254353  91.4037756  67.1575683
  64.9854344  95.1758440  57.9112668  64.5473774  94.4594299  57.4518305
  65.7264785  95.4034554  57.3497759  61.7755511  89.8655376  64.4324764
  60.9623376  90.1649547  64.8389956  62.2714505  89.4711065  65.1499246
  63.9264088  99.8613133  66.3659028  63.8840267 100.0873980  65.4367560
  64.8426787  99.6276508  66.5144830  67.3729722  90.3297201  73.2639658
  67.7279110  90.5568674  74.1234123  68.0201853  90.6615578  72.6416913
  73.1027459  93.4515637  63.9688987  72.9645358  93.6417233  63.0410176
  72.7463678  94.2135020  64.4257038  61.2669585  87.4373732  70.0485999
  61.9068965  87.2962491  69.3508962  60.4347116  87.1508245  69.6724601
  73.1296839  95.5192164  68.9800258  73.5633345  95.4267453  69.8283312
  73.8428419  95.4949664  68.3420274  62.0429889  96.7376162  66.1620991
  62.8370488  96.2426482  65.9603566  61.3321582  96.2094025  65.7988697
  66.8624734  99.1194258  70.5133359  66.9161756  99.6885194  71.2811075
  65.9939515  99.2896143  70.1487396  59.7423127  88.8211814  71.9957810
  60.4146180  88.6129176  71.3470459  58.9152914  88.6233900  71.5563042
  73.9912388  95.5615864  71.5133144  74.1848278  96.4661675  71.7592418
  73.8913006  95.1023283  72.3471729  65.6448699  85.4473755  74.0123471
  64.9976614  86.1463705  73.9187947  66.4149714  85.8809899  74.3799719
  69.0527497  95.7122607  77.0874024  68.9013003  95.4833159  76.1704108
  69.0432176  96.6693209  77.1005369  65.8212833  93.2854520  72.0720291
  66.7504893  93.4365679  71.8989258  65.4003863  93.3738541  71.2168937
  64.6201165  97.3105184  69.8418828  64.4812251  96.9423969  70.7144766
  63.8315761  97.8252824  69.6702786  65.2149317 102.4114281  61.1844365
  65.3901073 101.9402324  61.9989987  64.5282105 103.0380047  61.4125625
  66.1706380  96.6886787  67.2307666  65.8356213  96.6487557  68.1265316
  65.6710326  96.0231503  66.7578076  60.1450624  92.0954417  72.7560247
  60.0070422  91.3634656  73.3571786  61.0555548  92.0063317  72.4744435
  69.1065572  94.0342821  57.5044726  68.4894743  93.3089649  57.4077778
  68.6382060  94.7952182  57.1611800  62.7732925  91.8074376  72.2443927
  63.4832543  91.1667569  72.2030545  62.7302233  92.0587271  73.1670108
  70.7619704  98.7441730  75.1650506  70.7032250  98.0600950  74.4981089
  71.1639222  99.4860720  74.7131132  61.4861859  88.7939594  74.0639566
  60.9499216  88.3430333  74.7161163  60.8978567  88.9285503  73.3210031
  59.7810402 105.5603644  67.9584225  60.0207001 106.1922168  68.6363243
  58.9379599 105.2091684  68.2449584  60.8964118  88.2528246  56.6266030
  60.0193584  88.1317046  56.2628277  61.3721871  87.4614324  56.3744919
  70.7637111  96.7081314  73.3964486  69.8763890  96.3707235  73.5190885
  71.3335662  95.9764345  73.6333251  52.4166258  93.0405405  66.7207537
  53.1037298  92.7267135  66.1328552  52.2614387  93.9446770  66.4474789
  64.2938264 101.3682766  70.3625729  64.2208436 102.1737737  70.8745033
  63.8515657 101.5674732  69.5373750  64.0828044 100.6054536  63.8728550
  63.2995566 101.1476216  63.9666775  64.7820789 101.1228516  64.2722792
  75.2454451  92.1189531  68.1581047  75.2344328  93.0014246  67.7874980
  74.3771831  91.7661082  67.9635584  66.7536948 101.2669600  72.5183888
  67.4664920 101.9017065  72.4459789  66.2626976 101.3633466  71.7023889
  68.4754475  95.1720853  64.0901179  67.5410753  95.2922315  63.9205884
  68.6531143  94.2693319  63.8261189  71.8627026  91.0138172  64.6251213
  72.3287478  91.8466164  64.5511516  72.3134527  90.5483154  65.3296472
  61.8048861  99.0164043  73.3389458  62.5058321  99.6500526  73.4918853
  61.3343976  99.3578775  72.5785098  69.9303257  97.3581993  61.6237365
  70.2063101  97.2438588  62.5331239  69.0607756  96.9599478  61.5849539
  69.8343689  83.3818759  68.6642115  68.9206769  83.6122986  68.8324322
  70.2636790  83.4657203  69.5156147  69.6050147  91.5708651  71.1642009
  68.9521598  91.8184558  70.5094461  69.9830527  90.7572789  70.8304486
  66.5657321 101.6068344  65.2670179  66.7479716 100.7890000  65.7297931
  67.3890307 101.8236036  64.8295069  66.8999487 100.5336529  62.5285228
  67.4287253 100.0228984  61.9155390  67.1627706 100.2179059  63.3930761
  65.6537720  92.3128462  77.6508046  64.9778357  92.2122591  78.3210421
  66.4765354  92.1567676  78.1144043  57.4016579  98.5500398  70.2720561
  57.9870016  97.8044086  70.4048465  57.2041418  98.8604355  71.1557225
  60.2555235 101.5851646  65.2883003  59.5865610 102.0697774  64.8047044
  60.1168104 101.8320866  66.2026382  64.3960503 103.6195389  71.8865662
  64.9478811 103.7827011  72.6514747  64.7366697 104.2099827  71.2145687
  58.8477269  88.0393672  76.1360581  59.4749308  87.6570749  76.7498105
  57.9905188  87.8207874  76.5016273  69.2471378  98.4456647  77.7414316
  69.7911282  99.0586605  77.2469271  68.6658222  99.0036225  78.2581329
  67.5328891 101.5677365  68.8729344  67.4080030 100.7667105  68.3640289
  68.1907982 102.0623558  68.3843314  69.5963799  99.3686385  70.5008894
  68.6494134  99.2491736  70.4287221  69.9446572  98.4808883  70.5835155
  66.6010232  99.1639101  66.7013246  66.4535195  98.2355809  66.8820816
  67.4263726  99.1859192  66.2170322  70.2044354  99.9867660  67.7878119
  71.1290902  99.7810521  67.6502570  70.0359657  99.7384061  68.6967461
  66.5971747  87.0176939  61.6945364  66.8135361  87.9001577  61.3934192
  66.1165814  86.6263152  60.9651006  61.3370968  89.9762652  68.2716108
  61.1915549  90.2902955  69.1640390  60.8596172  90.5947552  67.7187007
  69.9939670 100.5053327  63.1440211  70.1676548  99.9399750  62.3914063
  70.4868561 101.3054222  62.9619700  55.8116630  92.5167996  71.2103769
  55.2670098  93.2927804  71.3424044  56.6895980  92.8638801  71.0522891
  75.8479061  93.2689750  64.7630510  76.2910207  92.5197076  64.3649634
  74.9705572  93.2599887  64.3804242  70.9814843  99.8220092  60.2437109
  71.6765747 100.4426784  60.4624423  71.3237993  98.9715443  60.5189487
  56.5982652  91.6437893  74.1033926  55.8564388  91.7920528  74.6898557
  56.2775396  91.9046158  73.2400676  72.8806266  97.2719797  61.7724440
  73.4057590  97.6107070  61.0473760  72.7928618  96.3366813  61.5887574
  64.5426315 101.1853871  73.9014316  64.8513441 100.9403018  74.7737016
  65.3401797 101.3900509  73.4133186  64.5646927 103.3391781  66.1319693
  64.1251917 102.8468159  66.8252549  65.3155044 102.7964748  65.8911768
  57.0439266  99.5303321  66.1344321  57.8697285  99.2307093  65.7542964
  56.6933318  98.7610944  66.5834109  62.0120799  98.8829790  68.2041994
  61.3900808  98.2200495  67.9044222  62.6825666  98.9090922  67.5215642
  55.2447871  97.4489648  67.0933254  54.4079779  97.0211822  66.9117256
  55.2171516  97.6422091  68.0304046  62.0845326  87.3611578  77.7974500
  62.1333482  88.2373701  77.4152270  62.6267840  86.8188971  77.2246144
  72.5700172  97.9052701  77.0775638  71.7795716  97.8876840  76.5380137
  72.3333526  98.4440995  77.8324674  72.6898047  94.7545167  74.3908366
  72.7396052  94.5895175  75.3323889  72.5811970  93.8872426  74.0006247
  61.5734306  97.4333713  61.6800455  61.7222426  98.1169177  61.0267128
  62.3800749  97.4138803  62.1949911  69.9801809  90.7376095  75.7067673
  70.8811672  90.5982560  75.4151671  70.0549784  90.9030550  76.6465850
  64.3144615  88.1142950  74.5520859  63.4447924  88.4076516  74.2803448
  64.5504095  88.6983395  75.2728123  74.1916244  97.1742109  74.6350388
  73.9001052  97.5372089  75.4713849  73.5788375  96.4609117  74.4563720
  75.3911926  94.7394989  67.1552958  76.2258818  95.1784793  67.3190518
  75.5271055  94.2633642  66.3361204  72.4403432  92.2974723  73.1030446
  72.9157554  92.4902370  72.2949297  71.5168997  92.3533909  72.8573829
  59.3286939  93.4598891  62.6861524  59.0832981  92.5561221  62.8841734
  59.4982853  93.4616041  61.7441002  65.0729711  99.9281843  59.1512202
  64.5003678 100.5472031  58.6982674  65.6462505 100.4781205  59.6852124
  71.1405101  89.1740484  71.3358751  72.0922524  89.2738581  71.3570975
  70.9708551  88.3818752  71.8456836  69.1619481  86.2596067  71.5218152
  68.5669413  86.5401080  70.8264641  68.8769177  86.7489968  72.2934893
  68.2926971 100.2118994  60.2820785  69.2257644 100.1464555  60.4853660
  68.2050184 101.0475260  59.8235317  70.9214988  99.5284864  57.2424732
  70.8428619  99.1944728  58.1360490  71.7424654 100.0206632  57.2416205
  73.6193179  92.3946603  70.4501051  73.5869499  91.4562604  70.6360735
  74.2293802  92.4730640  69.7166876  65.4576510  91.2642656  56.4928255
  66.4035614  91.1348864  56.5616673  65.0790755  90.5257318  56.9697683
  73.7687667  89.1857647  70.4959334  73.2526716  88.4016103  70.3089263
  74.6527616  88.8576363  70.6605853  71.4298394  82.9298662  66.4555147
  71.2323215  82.6213750  67.3398479  72.0398100  83.6560301  66.5853077
  79.4369729  93.4562610  69.5907088  80.1673117  93.1947898  70.1514791
  78.8276674  92.7191332  69.6309156  77.5185026  91.5970473  70.1881539
  76.7918189  91.4626438  69.5798030  77.1032313  91.9047301  70.9938257
  65.3415202  95.3160402  77.9528912  66.2618212  95.4939001  78.1468958
  65.3064785  94.3716448  77.8008611  63.6419427  89.1892633  56.4283140
  62.7350882  88.8925745  56.5045854  63.9195408  88.8922451  55.5617426
  58.3377275  93.2261437  70.5951693  58.5563285  94.1578545  70.6139727
  58.7503049  92.8669411  71.3806497  63.2105140  88.7994643  79.9854442
  63.1101867  89.7489000  79.9166533  62.9926682  88.4712882  79.1130512
  54.4285627  94.1301908  68.8475308  53.7349099  93.7155860  68.3345262
  55.1758618  94.1722444  68.2508727  70.5650848  84.9208094  63.7130342
  69.9849517  85.5792898  63.3308395  70.2986781  84.0985439  63.3017760
  63.0736410  92.2291782  78.8019504  62.5903492  93.0292142  79.0083393
  63.1597349  92.2399727  77.8486948  56.3422370  94.0620161  66.7241323
  56.3193058  94.1607849  65.7723206  56.6523006  94.9085312  67.0458489
  59.0009748  96.1196316  70.8387937  59.9553001  96.0880259  70.7717869
  58.8022271  95.6586940  71.6538163  59.5909130  94.6897432  73.4058735
  60.4102019  95.1841511  73.4293572  59.8645937  93.7729401  73.3776303
  72.6990262  87.1054706  66.4841030  73.4750652  87.5951158  66.7565647
  71.9738396  87.5312760  66.9412899  75.1362821  87.8182325  67.5414970
  75.7307312  87.5778061  66.8308279  75.2089404  87.0989455  68.1688507
  57.3559976 101.6615936  67.8558135  57.2214444 100.9016337  67.2896133
  56.9392039 102.3856836  67.3886924  68.4918939  96.8452859  56.8634711
  69.1954790  97.0502862  57.4792366  67.7681588  97.4129621  57.1283794
  69.3216750  92.5962721  62.9836981  69.2651951  93.0531272  62.1444613
  69.8745092  91.8353405  62.8059823  73.1321556  88.3852452  63.8087100
  72.8758490  87.9849088  64.6395308  72.5074424  89.0996246  63.6837239
  77.4433893  91.1248526  66.3158392  76.8833451  91.1941715  67.0889954
  76.8377397  90.9489510  65.5957888  60.5129102 102.5585253  68.0676578
  60.3961486 103.5030685  67.9655268  59.6921549 102.2558814  68.4562377
  70.4005637  97.2835389  58.9133171  71.2351241  96.8516587  58.7310645
  70.2389980  97.1117402  59.8410065  70.0551529  93.7867502  60.2789510
  70.0000333  93.6211773  59.3377954  69.4297584  94.4943535  60.4351700
  54.8444044  89.0235566  74.1050932  55.4902908  88.5134520  74.5938157
  54.6361195  89.7604248  74.6794357  67.3697436  96.0916414  79.6043073
  68.2388596  96.2657066  79.2429708  66.8904188  96.9110831  79.4818802
  61.5383616 103.2113515  71.2832506  62.4410863 103.2437125  71.5999001
  61.3120986 102.2813966  71.2978842  63.2937218 101.9644501  67.9442585
  62.3432849 101.9646363  67.8306957  63.5969705 101.2177236  67.4278620
  59.1841535  86.1703183  78.2025946  60.0472997  85.8139988  78.4129271
  58.6106946  85.8317078  78.8901351  79.0289912 107.8005040  69.0088347
  79.6668322 107.6811787  68.3051687  78.9110755 108.7485884  69.0676299
  75.8379618 107.7532468  68.9449872  75.4998130 107.6373532  68.0570407
  76.7069386 107.3523633  68.9250878  71.6966434 109.6067944  64.9346763
  71.1331299 109.5157881  64.1663051  71.5818829 108.7867849  65.4149256
  76.3199401 108.9067320  74.9036078  76.3088042 108.5120118  74.0316581
  76.4820041 108.1733392  75.4969849  69.2430866 111.1019136  67.7730983
  70.0352158 110.7609960  67.3577283  69.4827516 111.2114111  68.6933137
  77.2765993 113.2738912  60.2461228  76.6253972 113.8592992  59.8595242
  78.0710355 113.8045107  60.3056265  71.2021620 110.3628049  60.6448362
  71.9752496 109.8157036  60.5061238  71.5547019 111.2272298  60.8562824
  73.0406662 111.6904431  73.8515262  72.7496528 112.5950062  73.7361928
  73.6763647 111.7320959  74.5659331  73.9662869 109.0681280  70.4416621
  74.5626441 108.8437302  69.7273584  74.0237841 108.3266025  71.0442069
  73.5387898 106.5220715  58.2766812  73.7913418 106.0002236  57.5150275
  72.6012457 106.3586861  58.3793496  78.5831180 105.5256494  66.0841555
  79.3694270 105.1075917  65.7331972  78.8469885 106.4302586  66.2523204
  78.7541258 110.9629344  60.7830212  78.1187091 111.0363970  61.4951117
  78.4238664 111.5522943  60.1049291  83.9839608 105.4631727  66.9874534
  84.7164779 104.8930944  67.2212363  83.2278963 105.0753327  67.4281039
  73.2584186 108.4248821  60.4791187  73.1420444 107.7493725  61.1472271
  73.3686446 107.9381195  59.6623340  75.6015727 107.8858968  64.1837876
  75.2373934 107.3589589  64.8950798  76.4582843 107.4957437  64.0104362
  81.5065028  99.1753301  71.4469142  81.1748353 100.0448712  71.2230357
  80.9110641  98.8589585  72.1263173  75.2421214 102.9148868  59.1799225
  75.4095617 103.7829104  59.5469696  75.0518383 103.0776150  58.2560514
  77.9996547 111.3765847  70.8465055  77.6997271 112.2790886  70.7380862
  77.6547607 111.1098030  71.6986208  71.4509029 107.8279644  66.8801760
  70.5259525 107.6955858  67.0879451  71.6993442 108.6073863  67.3771702
  81.3993691 103.8948387  68.5262493  80.4910569 103.8263795  68.2321254
  81.3481287 104.3720332  69.3544318  75.2210435 105.3706525  60.1645892
  75.1010060 105.8163576  61.0031372  74.5263023 105.7191843  59.6059430
  68.8117840 107.4712917  67.7145549  68.9410221 107.7247396  68.6284960
  68.1315291 108.0640625  67.3950204  75.4734557 105.3138033  76.4697390
  74.6967891 105.8731953  76.4600254  76.1125120 105.7994816  76.9912260
  83.2655338 102.0964825  70.3040366  82.6229718 102.3897359  69.6580161
  82.7610266 101.9817746  71.1093563  80.9195501 105.8427999  60.9926226
  81.8313357 106.0755385  60.8173923  80.4105148 106.4265043  60.4301304
  73.7280929 108.1223486  76.0315357  74.4695614 108.6608530  75.7550180
  73.0217915 108.7489775  76.1886909  79.2036269 110.2652626  74.6287518
  79.6119625 109.8235037  73.8842151  78.4813530 109.6905254  74.8821711
  75.5567339 105.2025233  72.0021075  76.4028534 105.6264647  72.1455724
  75.4965977 104.5458858  72.6959638  79.5265084 110.8253817  68.3839807
  78.8973946 110.9899531  67.6815875  79.1390746 111.2395427  69.1550771
  78.7066784 102.8629602  73.6602249  78.4627716 103.6171662  73.1236525
  78.9826715 103.2414949  74.4949496  80.6605247 109.4068214  72.3379514
  80.8722142 110.0499974  71.6613896  80.6134995 108.5730530  71.8701445
  78.2631476 102.0186035  69.2416087  77.4015955 102.3167288  69.5332824
  78.2893911 102.2356433  68.3097119  75.0793045 110.5628225  65.6489892
  75.5431391 110.8415928  64.8594515  74.8149844 109.6611670  65.4662983
  71.9717127 110.1099707  68.5869656  72.5418484 110.5386975  67.9487140
  72.5625238 109.8282291  69.2853841  74.0161932 106.6851378  62.4579457
  74.7185975 107.1372421  62.9253384  73.6842560 106.0435196  63.0859351
  72.4642293 105.2763134  76.8330667  71.8340954 105.9579415  77.0666064
  72.3578381 105.1646216  75.8883805  67.7587265 104.9434930  67.7596591
  66.9686319 105.1992459  67.2836702  68.2498513 105.7583268  67.8648632
  69.7102011 105.3079509  64.7180068  68.9133174 105.4198204  65.2363563
  69.4827603 105.6466162  63.8520958  75.5407678 111.8324213  72.6662582
  75.6052111 112.2944620  73.5020754  74.8318602 111.2021578  72.7944892
  66.0424968 105.1965421  70.1911582  66.2933007 106.0812431  70.4569158
  66.5784517 105.0170022  69.4186674  75.2555696 113.4992320  62.5341563
  75.1201371 114.3443856  62.9626410  75.7965509 113.7011598  61.7707496
  71.7423036  99.5783900  79.1955918  71.3489981  99.0250099  79.8703562
  72.5589176  99.8894478  79.5862435  68.7085094 111.0167758  63.1069488
  69.2209614 111.8111008  63.2575052  69.3607806 110.3194049  63.0403089
  70.5179978 114.1333514  65.1892241  70.6946607 115.0551479  65.0013225
  71.3136812 113.8191934  65.6186621  74.6590997 100.9941779  76.7876174
  75.4000710 101.5948932  76.7080637  74.8908920 100.2519417  76.2294217
  69.8032335 106.1798146  75.0654404  69.6885850 105.2783404  75.3661503
  68.9476853 106.4261843  74.7139221  71.6411294 115.6511688  71.1902583
  72.1918719 115.5228752  70.4179577  70.8022770 115.9506577  70.8397476
  75.4378465 111.9162816  75.5346814  75.9706802 111.1551104  75.3046122
  74.9092546 111.6236468  76.2770969  78.6048160  97.0222882  71.0640456
  78.2612429  97.9124524  70.9879567  78.9727122  96.8324540  70.2010041
  66.6734010 109.3456412  63.8829058  67.5109232 109.7553421  63.6662766
  66.8512278 108.4055855  63.8529252  78.5698442 107.0131493  59.5712891
  78.0545066 107.7836098  59.8101279  78.2975751 106.3396629  60.1945953
  76.1545553 101.8581194  64.6298130  75.2987150 101.4688044  64.4503768
  76.5672505 101.9373155  63.7697915  77.6844700  99.3927537  69.0289689
  77.1809496  99.3557672  68.2157495  77.9775307 100.3020280  69.0886346
  73.9287586  99.4766267  68.0355871  74.7940583  99.2809076  67.6761761
  73.9965095  99.2476619  68.9625228  78.3584746 104.8858585  61.3972672
  78.0534881 105.2004734  62.2482816  79.3115188 104.9640005  61.4400005
  76.8031177 111.0448809  63.0465626  76.2752539 110.3101568  62.7338864
  76.3018680 111.8223485  62.8005595  81.7824023 109.2397829  68.1632673
  81.1247698 109.9297090  68.2512801  82.5864423 109.6294261  68.5066659
  71.5349905 101.7068475  65.4072238  72.1093657 101.4843656  64.6745431
  72.1220887 101.7757169  66.1600839  80.5929482 107.5942202  66.2136614
  81.1061364 108.2272194  66.7158324  81.2430706 106.9943397  65.8479974
  71.8619492 103.7372936  59.4268123  71.0256804 104.0747622  59.7477398
  71.7224262 103.6021916  58.4895260  73.8372573  98.5809724  64.1347307
  73.1836985  98.2658741  63.5103922  73.7953047  97.9585464  64.8607130
  74.9483778 108.8629019  56.0500599  74.0410839 108.6318272  56.2491748
  75.4454810 108.0666638  56.2374581  77.0710313 105.0691657  68.4594955
  76.1532875 105.2906604  68.3016643  77.4870457 105.1437968  67.6006662
  77.8545361 106.4683073  63.5897635  78.6017180 106.9804470  63.2804757
  78.1236950 106.1467126  64.4502029  76.1272011 108.9641614  60.5724590
  75.2183230 108.6800646  60.6697059  76.1567095 109.3840692  59.7127896
  80.3024198 103.5040189  65.5716425  79.5646955 102.9917575  65.9026667
  80.5550972 103.0640571  64.7599701  80.4035825  96.2816441  66.1658194
  80.7094702  95.4213805  65.8784109  81.1288430  96.8734061  65.9657188
  66.6960181 106.6847128  64.5539792  66.4984581 106.0916488  63.8290858
  66.1406845 106.3799338  65.2715730  74.6756905 106.5770234  66.6734385
  74.7305515 105.6244071  66.5976861  73.8648107 106.7329673  67.1575683
  75.8248099 110.5050357  57.9112668  75.3867529 109.7886216  57.4518305
  76.5658540 110.7326472  57.3497759  72.6149265 105.1947294  64.4324764
  71.8017131 105.4941465  64.8389956  73.1108259 104.8002983  65.1499246
  74.7657843 115.1905051  66.3659028  74.7234022 115.4165897  65.4367560
  75.6820542 114.9568426  66.5144830  78.2123477 105.6589118  73.2639658
  78.5672864 105.8860592  74.1234123  78.8595608 105.9907495  72.6416913
  83.9421214 108.7807554  63.9688987  83.8039112 108.9709150  63.0410176
  83.5857432 109.5426937  64.4257038  72.1063340 102.7665650  70.0485999
  72.7462719 102.6254409  69.3508962  71.2740870 102.4800163  69.6724601
  72.8823644 112.0668080  66.1620991  73.6764242 111.5718400  65.9603566
  72.1715336 111.5385943  65.7988697  69.1906407 106.2111162  62.2380744
  68.2603995 106.1495617  62.4550706  69.2863879 105.6887114  61.4417385
  69.1091956 102.7365975  64.8258985  69.3698774 103.6511308  64.7168146
  69.9309129 102.2690417  64.9755598  70.5816882 104.1503732  71.9957810
  71.2539935 103.9421094  71.3470459  69.7546668 103.9525818  71.5563042
  76.4842454 100.7765673  74.0123471  75.8370369 101.4755622  73.9187947
  77.2543469 101.2101817  74.3799719  76.6606588 108.6146438  72.0720291
  77.5898648 108.7657597  71.8989258  76.2397618 108.7030458  71.2168937
  75.4594920 112.6397102  69.8418828  75.3206005 112.2715886  70.7144766
  74.6709516 113.1544741  69.6702786  77.0100135 112.0178705  67.2307666
  76.6749967 111.9779475  68.1265316  76.5104081 111.3523421  66.7578076
  70.9844379 107.4246335  72.7560247  70.8464177 106.6926573  73.3571786
  71.8949302 107.3355235  72.4744435  79.9459326 109.3634739  57.5044726
  79.3288497 108.6381567  57.4077778  79.4775815 110.1244099  57.1611800
  73.6126679 107.1366294  72.2443927  74.3226298 106.4959486  72.2030545
  73.5695988 107.3879189  73.1670108  72.3255613 104.1231512  74.0639566
  71.7892970 103.6722250  74.7161163  71.7372322 104.2577421  73.3210031
  71.7357872 103.5820163  56.6266030  70.8587339 103.4608964  56.2628277
  72.2115625 102.7906242  56.3744919  63.2560013 108.3697323  66.7207537
  63.9431052 108.0559053  66.1328552  63.1008141 109.2738688  66.4474789
  68.0594735 103.2587520  71.1492561  67.9752923 102.6513189  70.4142971
  67.2377441 103.7496538  71.1502057  78.2318449 101.7441083  66.5162756
  78.7287148 100.9911045  66.1963826  77.4605430 101.7805400  65.9505965
  79.3148229 110.5012770  64.0901179  78.3804508 110.6214233  63.9205884
  79.4924898 109.5985237  63.8261189  74.8153417 103.8858466  66.2434440
  74.4451205 103.3329506  66.9315346  75.3112510 103.2816600  65.6909440
  82.7020781 106.3430090  64.6251213  83.1681233 107.1758081  64.5511516
  83.1528281 105.8775071  65.3296472  72.6442616 114.3455961  73.3389458
  73.3452075 114.9792444  73.4918853  72.1737731 114.6870693  72.5785098
  80.6737443  98.7110677  68.6642115  79.7600523  98.9414903  68.8324322
  81.1030545  98.7949121  69.5156147  80.4443902 106.9000569  71.1642009
  79.7915352 107.1476476  70.5094461  80.8224282 106.0864707  70.8304486
  76.4931475 107.6420380  77.6508046  75.8172112 107.5414509  78.3210421
  77.3159109 107.4859593  78.1144043  68.2410334 113.8792316  70.2720561
  68.8263771 113.1336004  70.4048465  68.0435172 114.1896273  71.1557225
  62.8327989 106.4497916  68.9925004  62.8712088 105.9161507  69.7862122
  62.3268281 105.9233122  68.3735981  70.2118751 101.2962457  72.4887547
  70.2760077 102.1577288  72.0764944  70.1485871 100.6836459  71.7559905
  69.6871023 103.3685589  76.1360581  70.3143062 102.9862667  76.7498105
  68.8298942 103.1499791  76.5016273  66.4636566 105.1762019  62.0678936
  66.7590007 104.2672697  62.0145989  65.5624602 105.1549758  61.7459938
  69.9930813 103.2518015  68.0506484  69.2717399 103.8653983  67.9113958
  70.7824069 103.7875780  67.9723130  72.7957127 100.5872442  74.3247136
  73.3191529 100.8334738  75.0873445  72.5769460 101.4192476  73.9050273
  68.1924408 102.8576116  62.1918261  67.8637114 101.9773495  62.0093367
  68.5463779 102.8023785  63.0794650  71.3066231 103.1449086  62.5593738
  71.6462303 103.6735007  61.8372347  71.7538351 103.4829492  63.3352305
  74.0009672 101.5286137  72.0096806  73.6606492 100.7293950  72.4117486
  73.2948678 101.8287848  71.4373640  74.6526144  98.6135449  70.4624130
  75.4752213  98.1395927  70.3403020  74.8964207  99.3925933  70.9622816
  73.2934378 101.6423708  60.7587031  74.0142741 102.0204960  60.2550748
  72.6699682 102.3612584  60.8622009  77.4365501 102.3468857  61.6945364
  77.6529115 103.2293494  61.3934192  76.9559568 101.9555070  60.9651006
  72.1764722 105.3054570  68.2716108  72.0309303 105.6194873  69.1640390
  71.6989926 105.9239470  67.7187007  74.0361105 102.2957118  68.3196998
  74.0222674 101.3998211  67.9829296  74.7533533 102.3027781  68.9535284
  75.8887236 102.7294458  70.3650125  75.6305014 103.6511529  70.3634456
  75.3572276 102.3324892  71.0550589  66.6510385 107.8459914  71.2103769
  66.1063853 108.6219722  71.3424044  67.5289734 108.1930719  71.0522891
  73.4398001 101.1771498  63.5884568  73.5613912 100.2488144  63.7875455
  73.1500044 101.1910184  62.6762883  76.3089192  98.8626408  66.7251288
  76.3310888  98.9265742  65.7703267  76.7257251  98.0230917  66.9191794
  67.4376406 106.9729810  74.1033926  66.6958142 107.1212446  74.6898557
  67.1169151 107.2338076  73.2400676  67.8833020 114.8595239  66.1344321
  68.7091040 114.5599011  65.7542964  67.5327072 114.0902862  66.5834109
  72.8514553 114.2121707  68.2041994  72.2294563 113.5492412  67.9044222
  73.5219420 114.2382839  67.5215642  66.0841625 112.7781566  67.0933254
  65.2473533 112.3503740  66.9117256  66.0565271 112.9714009  68.0304046
  72.9239081 102.6903495  77.7974500  72.9727236 103.5665618  77.4152270
  73.4661595 102.1480888  77.2246144  72.4128060 112.7625631  61.6800455
  72.5616181 113.4461095  61.0267128  73.2194504 112.7430721  62.1949911
  80.8195564 106.0668013  75.7067673  81.7205427 105.9274478  75.4151671
  80.8943538 106.2322468  76.6465850  75.1538369 103.4434868  74.5520859
  74.2841679 103.7368434  74.2803448  75.3897850 104.0275313  75.2728123
  83.2797187 107.6266641  73.1030446  83.7551308 107.8194287  72.2949297
  82.3562752 107.6825827  72.8573829  70.1680693 108.7890808  62.6861524
  69.9226735 107.8853138  62.8841734  70.3376608 108.7907959  61.7441002
  77.8577403  99.6614485  72.0686279  78.3759347 100.3975512  71.7432768
  77.5032536  99.9678478  72.9033039  69.4376341 104.5219166  60.1847685
  68.7445586 104.5963521  59.5287721  69.1928093 103.7579510  60.7069202
  78.1089997  96.0814767  67.5887176  78.3891751  95.4137956  68.2147603
  78.8940604  96.2743863  67.0761840  81.9798856 104.5032401  71.3358751
  82.9316278 104.6030499  71.3570975  81.8102306 103.7110670  71.8456836
  80.0013235 101.5887984  71.5218152  79.4063167 101.8692997  70.8264641
  79.7162932 102.0781885  72.2934893  84.4586933 107.7238521  70.4501051
  84.4263253 106.7854522  70.6360735  85.0687557 107.8022558  69.7166876
  76.2970264 106.5934574  56.4928255  77.2429369 106.4640782  56.5616673
  75.9184509 105.8549236  56.9697683  84.6081422 104.5149564  70.4959334
  84.0920470 103.7308021  70.3089263  85.4921370 104.1868281  70.6605853
  82.2692149  98.2590580  66.4555147  82.0716970  97.9505668  67.3398479
  82.8791854  98.9852219  66.5853077  76.1808957 110.6452320  77.9528912
  77.1011966 110.8230919  78.1468958  76.1458540 109.7008365  77.8008611
  74.4813181 104.5184550  56.4283140  73.5744637 104.2217663  56.5045854
  74.7589162 104.2214368  55.5617426  65.3991122 105.8390914  66.8782186
  65.0793906 104.9856222  66.5856560  64.8524550 106.0539492  67.6340154
  69.1771029 108.5553355  70.5951693  69.3957039 109.4870463  70.6139727
  69.5896803 108.1961329  71.3806497  76.0975247  99.0621440  62.5827381
  75.2875975  98.7168525  62.9582627  76.7859664  98.7528984  63.1714993
  78.0265795  98.1399487  64.2051678  78.5796834  98.5594940  64.8641701
  78.2635882  97.2135235  64.2474634  74.0498895 104.1286560  79.9854442
  73.9495621 105.0780917  79.9166533  73.8320437 103.8004799  79.1130512
  73.2511966 101.3771486  56.5695119  74.1131130 101.7026384  56.8290937
  73.4362310 100.5902981  56.0568185  65.2679382 109.4593825  68.8475308
  64.5742853 109.0447778  68.3345262  66.0152373 109.5014362  68.2508727
  81.4044602 100.2500012  63.7130342  80.8243271 100.9084816  63.3308395
  81.1380535  99.4277357  63.3017760  79.8548169  99.6505070  65.9151663
  80.3547947  99.7621604  65.1065981  80.4983777  99.3466123  66.5552471
  73.9130165 107.5583699  78.8019504  73.4297246 108.3584059  79.0083393
  73.9991104 107.5691644  77.8486948  67.1816124 109.3912079  66.7241323
  67.1586812 109.4899766  65.7723206  67.4916761 110.2377230  67.0458489
  69.8403502 111.4488234  70.8387937  70.7946756 111.4172176  70.7717869
  69.6416026 110.9878858  71.6538163  70.4302884 110.0189350  73.4058735
  71.2495773 110.5133429  73.4293572  70.7039692 109.1021318  73.3776303
  80.1869480 102.4100102  62.7686691  79.2995335 102.6949753  62.5506885
  80.6023470 102.2493866  61.9213967  83.5384017 102.4346623  66.4841030
  84.3144407 102.9243076  66.7565647  82.8132151 102.8604678  66.9412899
  85.9756575 103.1474243  67.5414970  86.5701066 102.9069979  66.8308279
  86.0483159 102.4281373  68.1688507  79.3312694 112.1744777  56.8634711
  80.0348544 112.3794780  57.4792366  78.6075343 112.7421539  57.1283794
  80.1610504 107.9254638  62.9836981  80.1045706 108.3823190  62.1444613
  80.7138847 107.1645323  62.8059823  83.9715310 103.7144370  63.8087100
  83.7152244 103.3141006  64.6395308  83.3468178 104.4288164  63.6837239
  88.2827648 106.4540443  66.3158392  87.7227206 106.5233633  67.0889954
  87.6771151 106.2781428  65.5957888  80.8945284 109.1159420  60.2789510
  80.8394087 108.9503691  59.3377954  80.2691339 109.8235452  60.4351700
  65.6837798 104.3527484  74.1050932  66.3296662 103.8426438  74.5938157
  65.4754950 105.0896166  74.6794357  74.2041409  98.6167529  59.8574828
  74.1920079  99.5609368  60.0143099  75.0964831  98.4337674  59.5634289
  78.0193528  95.2110305  64.1120765  77.2525924  94.6568792  64.2577447
  78.4304233  95.2832174  64.9734917  70.0235289 101.4995101  78.2025946
  70.8866751 101.1431906  78.4129271  69.4500700 101.1608996  78.8901351
  24.8321141   8.1607574  55.7333654  25.4699551   8.0414321  55.0296994
  24.7141984   9.1088418  55.7921606  21.6410847   8.1135002  55.6695179
  21.3029359   7.9976067  54.7815714  22.5100615   7.7126167  55.6496185
  17.4997663   9.9670478  51.6592070  16.9362528   9.8760415  50.8908357
  17.3850058   9.1470383  52.1394562  22.1230630   9.2669854  61.6281384
  22.1119271   8.8722652  60.7561888  22.2851269   8.5335926  62.2215156
  15.0462095  11.4621670  54.4976290  15.8383387  11.1212495  54.0822589
  15.2858745  11.5716645  55.4178443  23.0797221  13.6341446  46.9706535
  22.4285201  14.2195527  46.5840548  23.8741584  14.1647641  47.0301572
  17.0052849  10.7230583  47.3693669  17.7783725  10.1759570  47.2306545
  17.3578247  11.5874833  47.5808130  18.8437891  12.0506966  60.5760568
  18.5527757  12.9552596  60.4607234  19.4794875  12.0923493  61.2904638
  19.7694098   9.4283814  57.1661928  20.3657670   9.2039836  56.4518891
  19.8269070   8.6868560  57.7687376  19.3419126   6.8823249  45.0012119
  19.5944647   6.3604771  44.2395582  18.4043685   6.7189395  45.1038802
  24.3862409   5.8859028  52.8086862  25.1725498   5.4678451  52.4577279
  24.6501114   6.7905120  52.9768510  24.5572487  11.3231878  47.5075519
  23.9218320  11.3966505  48.2196423  24.2269893  11.9125477  46.8294598
  29.7870836   5.8234261  53.7119841  30.5196008   5.2533478  53.9457670
  29.0310192   5.4355861  54.1526346  19.0615415   8.7851355  47.2036494
  18.9451673   8.1096259  47.8717578  19.1717675   8.2983729  46.3868647
  21.4046956   8.2461502  50.9083183  21.0405163   7.7192123  51.6196104
  22.2614072   7.8559971  50.7349668  27.3096257  -0.4644165  58.1714449
  26.9779581   0.4051246  57.9475664  26.7141870  -0.7807881  58.8508480
  21.0452443   3.2751402  45.9044531  21.2126845   4.1431639  46.2715003
  20.8549612   3.4378684  44.9805821  23.8027776  11.7368381  57.5710362
  23.5028499  12.6393420  57.4626169  23.4578836  11.4700564  58.4231515
  17.2540258   8.1882178  53.6047066  16.3290754   8.0558392  53.8124758
  17.5024671   8.9676397  54.1017009  27.2024920   4.2550921  55.2507799
  26.2941797   4.1866330  54.9566560  27.1512516   4.7322866  56.0789625
  21.0241664   5.7309060  46.8891198  20.9041289   6.1766110  47.7276679
  20.3294252   6.0794377  46.3304736  14.6149069   7.8315451  54.4390855
  14.7441450   8.0849930  55.3530267  13.9346520   8.4243159  54.1195510
  18.7848556  18.5012701  50.5381330  18.7072586  19.4520526  50.6169810
  18.1810200  18.1558574  51.1956256  21.2765786   5.6740567  63.1942696
  20.4999120   6.2334487  63.1845561  21.9156349   6.1597350  63.7157567
  29.0686566   2.4567360  57.0285673  28.4260947   2.7499893  56.3825468
  28.5641495   2.3420280  57.8338870  26.7226730   6.2030533  47.7171532
  27.6344586   6.4357920  47.5419230  26.2136377   6.7867577  47.1546611
  19.5312158   8.4826020  62.7560663  20.2726842   9.0211064  62.4795487
  18.8249144   9.1092309  62.9132215  25.0067498  10.6255161  61.3532825
  25.4150854  10.1837571  60.6087457  24.2844759  10.0507788  61.6067018
  21.3598568   5.5627767  58.7266382  22.2059763   5.9867181  58.8701031
  21.2997205   4.9061392  59.4204945  25.3296312  11.1856351  55.1085114
  24.7005175  11.3502065  54.4061182  24.9421974  11.5997961  55.8796078
  29.2085544  12.1210789  52.4629478  28.5236582  12.5009690  51.9126511
  29.2929394  12.7306116  53.1961425  24.5098013   3.2232136  60.3847556
  24.2658945   3.9774196  59.8481831  24.7857944   3.6017483  61.2194803
  26.4636476   9.7670748  59.0624821  26.6753371  10.4102508  58.3859202
  26.4166224   8.9333065  58.5946751  24.0662705   2.3788569  55.9661393
  23.2047184   2.6769822  56.2578131  24.0925140   2.5958968  55.0342426
  20.8824274  10.9230759  52.3735199  21.3462620  11.2018462  51.5839821
  20.6181072  10.0214204  52.1908290  17.7748355  10.4702241  55.3114962
  18.3449712  10.8989509  54.6732447  18.3656467  10.1884826  56.0099148
  19.8193160   7.0453912  49.1824764  20.5217204   7.4974955  49.6498690
  19.4873789   6.4037731  49.8104657  18.2673522   5.6365668  63.5575973
  17.6372182   6.3181949  63.7911370  18.1609610   5.5248750  62.6129112
  27.5782304  12.6442704  57.2347178  28.3999748  12.2422891  56.9529860
  27.5744707  12.5410938  58.1863294  21.3438907  12.1926747  59.3907889
  21.4083340  12.6547154  60.2266061  20.6349831  11.5624112  59.5190199
  35.6688297   8.9881452  53.5832150  34.9152005   8.4188850  53.4276154
  35.8035838   8.9544117  54.5302785  21.0586925  13.8594854  49.2586869
  20.9232600  14.7046390  49.6871717  21.5996737  14.0614132  48.4952803
  14.5116322  11.3770292  49.8314794  15.0240843  12.1713543  49.9820359
  15.1639035  10.6796583  49.7648396  16.3211207  14.4936049  51.9137548
  16.4977835  15.4154013  51.7258531  17.1168041  14.1794468  52.3431927
  15.6063564   6.5400681  61.7899711  15.4917079   5.6385938  62.0906810
  14.7508081   6.7864377  61.4384527  22.6855401  14.4818421  63.3887211
  22.2419256  13.6954799  63.0708116  23.3472615  14.6697571  62.7231102
  17.4442523  16.0114222  57.9147890  17.9949948  15.8831286  57.1424884
  16.6053998  16.3109111  57.5642783  24.7836639  14.7621221  61.4168613
  24.7655115  15.5830102  60.9248882  25.7056559  14.6375296  61.6418754
  21.2409694  12.2765350  62.2592121  21.7738030  11.5153638  62.0291429
  20.7123775  11.9839002  63.0016275  12.4765239   9.7058947  50.6074365
  13.3140461  10.1155955  50.3908073  12.6543507   8.7658389  50.5774559
  24.3729671   7.3734027  46.2958198  23.8576295   8.1438632  46.5346585
  24.1006980   6.6999163  46.9191259  21.9576782   2.2183728  51.3543436
  21.1018379   1.8290579  51.1749075  22.3703734   2.2975689  50.4943222
  29.3463945  10.1266382  48.2311371  28.5693388   9.7877541  47.7866533
  30.0255426  10.1319005  47.5566336  24.1615974   5.2461119  48.1217979
  23.8566110   5.5607269  48.9728122  25.1146417   5.3242539  48.1645312
  22.6062406  11.4051343  49.7710933  22.0783768  10.6704102  49.4584170
  22.1049909  12.1826019  49.5250901  27.5855252   9.6000363  54.8877979
  26.9278927  10.2899625  54.9758108  28.3895651   9.9896795  55.2311966
  26.3960711   7.9544736  52.9381921  26.9092593   8.5874728  53.4403631
  27.0461935   7.3545931  52.5725281  20.7515006   9.2231553  42.7745906
  19.8442068   8.9920806  42.9737055  21.2486038   8.4269172  42.9619888
  23.6583085  17.9329060  45.6942592  22.9844784  18.2360757  46.3027550
  24.0448907  18.7358141  45.3448049  22.8741542   5.4294191  55.1840262
  21.9564103   5.6509138  55.0261950  23.2901686   5.5040502  54.3251969
  23.6576590   6.8285607  50.3142942  24.4048409   7.3407004  50.0050064
  23.9268179   6.5069660  51.1747335  21.9303240   9.3244148  47.2969896
  21.0214459   9.0403181  47.3942366  21.9598324   9.7443226  46.4373203
  27.1622507  12.9350737  51.0661064  26.7084834  12.0941647  51.1226254
  26.5316474  13.5712136  51.4035844  26.1055427   3.8642723  52.2961731
  25.3678184   3.3520110  52.6271974  26.3582200   3.4243105  51.4845008
  25.6055447  14.7727234  52.0010882  25.8978421  15.3332291  51.2823247
  26.1154067  15.0655795  52.7564041  20.4788134   6.9372768  53.3979691
  20.5336744   5.9846605  53.3222168  19.6679336   7.0932208  53.8820990
  21.6279328  10.8652892  44.6357975  21.1898758  10.1488750  44.1763612
  22.3689769  11.0929006  44.0743066  18.4180494   5.5549828  51.1570070
  17.6048359   5.8543999  51.5635263  18.9139488   5.1605517  51.8744553
  20.5689072  15.5507585  53.0904335  20.5265251  15.7768431  52.1612867
  21.4851771  15.3170960  53.2390136  24.0154706   6.0191653  59.9884964
  24.3704093   6.2463126  60.8479430  24.6626837   6.3510029  59.3662220
  29.7452442   9.1410089  50.6934293  29.6070341   9.3311685  49.7655483
  29.3888661   9.9029471  51.1502344  29.7721822  11.2086616  55.7045565
  30.2058329  11.1161905  56.5528619  30.4853403  11.1844116  55.0665581
  18.6854872  12.4270614  52.8866298  19.4795471  11.9320934  52.6848873
  17.9746565  11.8988477  52.5234003  23.5049717  14.8088710  57.2378665
  23.5586739  15.3779646  58.0056381  22.6364498  14.9790595  56.8732703
  30.6337372  11.2510316  58.2378450  30.8273262  12.1556127  58.4837725
  30.5337990  10.7917735  59.0717035  22.2873682   1.1368207  60.7368778
  21.6401597   1.8358156  60.6433254  23.0574698   1.5704351  61.1045026
  25.6952480  11.4017059  63.8119331  25.5437987  11.1727611  62.8949414
  25.6857160  12.3587660  63.8250676  22.4637817   8.9748972  58.7965597
  23.3929877   9.1260131  58.6234565  22.0428847   9.0632993  57.9414244
  21.2626148  12.9999636  56.5664135  21.1237234  12.6318421  57.4390073
  20.4740745  13.5147276  56.3948093  21.8574300  18.1008733  47.9089671
  22.0326056  17.6296776  48.7235294  21.1707088  18.7274499  48.1370932
  22.8131364  12.3781239  53.9552973  22.4781196  12.3382009  54.8510623
  22.3135309  11.7125955  53.4823383  16.7875608   7.7848869  59.4805554
  16.6495406   7.0529108  60.0817093  17.6980531   7.6957769  59.1989742
  25.7490555   9.7237273  44.2290032  25.1319726   8.9984101  44.1323085
  25.2807044  10.4846633  43.8857107  19.4157908   7.4968828  58.9689233
  20.1257527   6.8562020  58.9275852  19.3727216   7.7481723  59.8915414
  27.4044687  14.4336182  61.8895813  27.3457233  13.7495402  61.2226396
  27.8064205  15.1755172  61.4376439  18.1286842   4.4834046  60.7884873
  17.5924199   4.0324785  61.4406469  17.5403551   4.6179955  60.0455337
  16.4235386  21.2498095  54.6829532  16.6631984  21.8816620  55.3608550
  15.5804582  20.8986135  54.9694891  27.4062094  12.3975765  60.1209792
  26.5188873  12.0601687  60.2436191  27.9760645  11.6658797  60.3578558
  20.9363248  17.0577218  57.0871036  20.8633419  17.8632189  57.5990340
  20.4940641  17.2569184  56.2619057  20.7253027  16.2948988  50.5973857
  19.9420549  16.8370668  50.6912082  21.4245772  16.8122968  50.9968098
  24.0349677   2.1043617  53.2408062  24.5318377   1.3513580  52.9209133
  23.2636659   2.1407934  52.6751272  31.8879435   7.8083983  54.8826354
  31.8769311   8.6908698  54.5120287  31.0196814   7.4555534  54.6880891
  23.3961931  16.9564052  59.2429194  24.1089903  17.5911517  59.1705096
  22.9051960  17.0527918  58.4269196  25.1179458  10.8615305  50.8146486
  24.1835737  10.9816767  50.6451190  25.2956126   9.9587771  50.5506496
  20.6184646   4.2461000  52.9679747  20.2482434   3.6932041  53.6560653
  21.1143739   3.6419134  52.4154747  28.5052009   6.7032624  51.3496520
  28.9712462   7.5360615  51.2756823  28.9559510   6.2377605  52.0541779
  18.4473845  14.7058495  60.0634765  19.1483304  15.3394978  60.2164159
  17.9768960  15.0473227  59.3030404  26.5728240  13.0476445  48.3482672
  26.8488084  12.9333040  49.2576546  25.7032739  12.6493930  48.3094845
  26.4768672  -0.9286789  55.3887421  25.5631752  -0.6982562  55.5569628
  26.9061774  -0.8448345  56.2401454  26.2475131   7.2603103  57.8887315
  25.5946581   7.5079010  57.2339768  26.6255511   6.4467241  57.5549793
  23.2082305  17.2962796  51.9915486  23.3904699  16.4784452  52.4543238
  24.0315291  17.5130488  51.5540376  23.5424470  16.2230981  49.2530534
  24.0712236  15.7123436  48.6400696  23.8052690  15.9073511  50.1176067
  22.2962704   8.0022914  64.3753352  21.6203341   7.9017043  65.0455728
  23.1190338   7.8462128  64.8389350  14.0441563  14.2394850  56.9965868
  14.6295000  13.4938538  57.1293772  13.8466401  14.5498807  57.8802532
  16.8980218  17.2746098  52.0128310  16.2290593  17.7592225  51.5292350
  16.7593088  17.5215318  52.9271689  21.0385487  19.3089841  58.6110968
  21.5903795  19.4721463  59.3760054  21.3791680  19.8994279  57.9390993
  25.8896361  14.1351099  64.4659623  26.4336265  14.7481057  63.9714578
  25.3083206  14.6930677  64.9826636  24.1753874  17.2571817  55.5974651
  24.0505013  16.4561557  55.0885596  24.8332965  17.7518010  55.1088621
  26.2388782  15.0580837  57.2254201  25.2919118  14.9386188  57.1532527
  26.5871555  14.1703335  57.3080462  23.2435215  14.8533553  53.4258553
  23.0960178  13.9250261  53.6066123  24.0688709  14.8753644  52.9415628
  26.8469337  15.6762112  54.5123426  27.7715885  15.4704973  54.3747877
  26.6784641  15.4278513  55.4212767  23.2396730   2.7071391  48.4190670
  23.4560344   3.5896029  48.1179498  22.7590797   2.3157604  47.6896312
  17.9795951   5.6657104  54.9961415  17.8340532   5.9797407  55.8885696
  17.5021155   6.2842004  54.4432313  21.6918465   3.0896992  57.0895432
  21.4336243   4.0114063  57.0879762  21.1603505   2.6927427  57.7795896
  26.6364654  16.1947779  49.8685517  26.8101531  15.6294202  49.1159370
  27.1293545  16.9948674  49.6865007  12.4541613   8.2062448  57.9349076
  11.9095081   8.9822256  58.0669350  13.3320963   8.5533253  57.7768197
  32.4904045   8.9584202  51.4875817  32.9335191   8.2091527  51.0894940
  31.6130555   8.9494339  51.1049549  27.6239826  15.5114544  46.9682415
  28.3190731  16.1321236  47.1869730  27.9662976  14.6609895  47.2434793
  29.5231249  12.9614249  48.4969746  30.0482573  13.3001522  47.7719066
  29.4353602  12.0261265  48.3132881  21.1851298  16.8748323  60.6259623
  21.4938424  16.6297470  61.4982322  21.9826780  17.0794961  60.1378493
  21.2071910  19.0286233  52.8564999  20.7676900  18.5362611  53.5497856
  21.9580027  18.4859200  52.6157075  13.6864249  15.2197773  52.8589627
  14.5122269  14.9201545  52.4788271  13.3358301  14.4505396  53.3079416
  18.6545782  14.5724242  54.9287301  18.0325791  13.9094947  54.6289529
  19.3250649  14.5985373  54.2460949  11.8872854  13.1384100  53.8178561
  11.0504762  12.7106274  53.6362562  11.8596499  13.3316543  54.7549352
  29.2125155  13.5947153  63.8020944  28.4220699  13.5771292  63.2625444
  28.9758510  14.1335447  64.5569981  29.3323030  10.4439619  61.1153673
  29.3821035  10.2789627  62.0569195  29.2236954   9.5766878  60.7251553
  18.2159289  13.1228165  48.4045762  18.3647409  13.8063629  47.7512434
  19.0225732  13.1033255  48.9195217  26.6226793   6.4270547  62.4312979
  27.5236655   6.2877012  62.1396977  26.6974767   6.5925002  63.3711157
  20.9569598   3.8037402  61.2766166  20.0872907   4.0970968  61.0048754
  21.1929078   4.3877847  61.9973429  30.8341227  12.8636561  61.3595694
  30.5426035  13.2266541  62.1959155  30.2213358  12.1503569  61.1809026
  32.0336909  10.4289441  53.8798264  32.8683801  10.8679245  54.0435825
  32.1696038   9.9528094  53.0606510  29.0828415   7.9869175  59.8275752
  29.5582537   8.1796822  59.0194604  28.1593981   8.0428361  59.5819136
  15.9711922   9.1493343  49.4106830  15.7257964   8.2455673  49.6087041
  16.1407836   9.1510493  48.4686308  23.6608632   0.0217019  58.7931586
  24.1790576   0.7578046  58.4678075  23.3063765   0.3281012  59.6278345
  21.7154694  15.6176295  45.8757509  21.1428662  16.2366483  45.4227981
  22.2887488  16.1675657  46.4097431  27.7830084   4.8634935  58.0604058
  28.7347507   4.9633033  58.0816282  27.6133535   4.0713204  58.5702142
  25.8044464   1.9490519  58.2463459  25.2094396   2.2295531  57.5509947
  25.5194161   2.4384420  59.0180200  24.9351954  15.9013446  47.0066091
  25.8682627  15.8359007  47.2098967  24.8475167  16.7369712  46.5480624
  27.5639971  15.2179316  43.9670039  27.4853602  14.8839179  44.8605797
  28.3849638  15.7101084  43.9661511  30.2618162   8.0841055  57.1746357
  30.2294482   7.1457056  57.3606041  30.8718786   8.1625092  56.4412182
  22.1001493   6.9537108  43.2173561  23.0460598   6.8243316  43.2861980
  21.7215738   6.2151770  43.6942990  30.4112651   4.8752099  57.2204641
  29.8951699   4.0910555  57.0334570  31.2952599   4.5470815  57.3851160
  28.0723378  -1.3806886  53.1800453  27.8748199  -1.6891798  54.0643785
  28.6823083  -0.6545247  53.3098383  36.0794712   9.1457062  56.3152394
  36.8098100   8.8842350  56.8760098  35.4701657   8.4085784  56.3554462
  34.1610009   7.2864925  56.9126845  33.4343173   7.1520890  56.3043337
  33.7457296   7.5941753  57.7183563  21.9840186  11.0054854  64.6774218
  22.9043195  11.1833453  64.8714265  21.9489769  10.0610900  64.5253918
  20.2844410   4.8787085  43.1528447  19.3775866   4.5820197  43.2291160
  20.5620391   4.5816903  42.2862733  14.9802258   8.9155889  57.3197000
  15.1988268   9.8472997  57.3385033  15.3928032   8.5563863  58.1051803
  19.8530123   4.4889095  66.7099749  19.7526850   5.4383452  66.6411840
  19.6351665   4.1607334  65.8375819  11.0710611   9.8196359  55.5720615
  10.3774082   9.4050312  55.0590569  11.8183602   9.8616896  54.9754034
  27.2075831   0.6102546  50.4375649  26.6274500   1.2687350  50.0553701
  26.9411764  -0.2120109  50.0263066  25.6579398   0.0107604  52.6396969
  26.1579176   0.1224138  51.8311288  26.3015006  -0.2931343  53.2797778
  19.7161393   7.9186234  65.5264810  19.2328475   8.7186594  65.7328699
  19.8022332   7.9294178  64.5732254  12.9847353   9.7514613  53.4486630
  12.9618041   9.8502300  52.4968513  13.2947990  10.5979764  53.7703796
  15.6434731  11.8090768  57.5633244  16.5977984  11.7774711  57.4963176
  15.4447255  11.3481392  58.3783470  16.2334113  10.3791884  60.1304042
  17.0527002  10.8735963  60.1538879  16.5070921   9.4623852  60.1021609
  25.9900709   2.7702637  49.4931997  25.1026564   3.0552287  49.2752192
  26.4054698   2.6096400  48.6459274  29.3415245   2.7949158  53.2086336
  30.1175636   3.2845610  53.4810953  28.6163380   3.2207212  53.6658206
  31.7787804   3.5076777  54.2660277  32.3732295   3.2672513  53.5553585
  31.8514388   2.7883907  54.8933813  13.9984960  17.3510388  54.5803442
  13.8639428  16.5910789  54.0141440  13.5817022  18.0751288  54.1132231
  25.1343923  12.5347311  43.5880017  25.8379773  12.7397314  44.2037673
  24.4106571  13.1024073  43.8529101  25.9641733   8.2857173  49.7082287
  25.9076934   8.7425724  48.8689920  26.5170075   7.5247857  49.5305130
  29.7746539   4.0746904  50.5332407  29.5183473   3.6743540  51.3640615
  29.1499407   4.7890698  50.4082546  34.0858877   6.8142978  53.0403698
  33.5258435   6.8836167  53.8135260  33.4802380   6.6383962  52.3203194
  17.1554086  18.2479705  54.7921885  17.0386470  19.1925137  54.6900575
  16.3346532  17.9453266  55.1807684  27.0430620  12.9729840  45.6378477
  27.8776224  12.5411039  45.4555952  26.8814963  12.8011854  46.5655372
  26.6976512   9.4761954  47.0034817  26.6425316   9.3106225  46.0623261
  26.0722568  10.1837987  47.1597006  24.0122419  11.7810866  66.3288379
  24.8813579  11.9551518  65.9675014  23.5329171  12.6005282  66.2064109
  18.1808600  18.9007967  58.0077813  19.0835846  18.9331577  58.3244308
  17.9545970  17.9708418  58.0224149  19.9362202  17.6538953  54.6687892
  18.9857833  17.6540815  54.5552264  20.2394688  16.9071688  54.1523926
  35.6714895  23.4899492  55.7333654  36.3093305  23.3706239  55.0296994
  35.5535738  24.4380336  55.7921606  32.4804602  23.4426920  55.6695179
  32.1423113  23.3267984  54.7815714  33.3494370  23.0418085  55.6496185
  28.3391417  25.2962396  51.6592070  27.7756282  25.2052333  50.8908357
  28.2243812  24.4762301  52.1394562  32.9624384  24.5961771  61.6281384
  32.9513025  24.2014570  60.7561888  33.1245024  23.8627844  62.2215156
  25.8855849  26.7913588  54.4976290  26.6777141  26.4504412  54.0822589
  26.1252499  26.9008563  55.4178443  33.9190976  28.9633364  46.9706535
  33.2678956  29.5487444  46.5840548  34.7135339  29.4939559  47.0301572
  27.8446603  26.0522501  47.3693669  28.6177479  25.5051488  47.2306545
  28.1972002  26.9166750  47.5808130  29.6831646  27.3798883  60.5760568
  29.3921512  28.2844514  60.4607234  30.3188630  27.4215411  61.2904638
  30.6087852  24.7575732  57.1661928  31.2051425  24.5331754  56.4518891
  30.6662824  24.0160477  57.7687376  30.1812881  22.2115167  45.0012119
  30.4338402  21.6896688  44.2395582  29.2437440  22.0481313  45.1038802
  35.2256164  21.2150945  52.8086862  36.0119253  20.7970369  52.4577279
  35.4894868  22.1197038  52.9768510  35.3966241  26.6523796  47.5075519
  34.7612074  26.7258422  48.2196423  35.0663647  27.2417395  46.8294598
  40.6264591  21.1526179  53.7119841  41.3589763  20.5825395  53.9457670
  39.8703947  20.7647779  54.1526346  29.9009170  24.1143273  47.2036494
  29.7845428  23.4388176  47.8717578  30.0111430  23.6275647  46.3868647
  32.2440711  23.5753420  50.9083183  31.8798918  23.0484041  51.6196104
  33.1007826  23.1851889  50.7349668  38.1490011  14.8647753  58.1714449
  37.8173336  15.7343164  57.9475664  37.5535625  14.5484037  58.8508480
  31.8846198  18.6043320  45.9044531  32.0520600  19.4723556  46.2715003
  31.6943367  18.7670602  44.9805821  34.6421531  27.0660299  57.5710362
  34.3422254  27.9685338  57.4626169  34.2972590  26.7992482  58.4231515
  28.0934012  23.5174096  53.6047066  27.1684509  23.3850310  53.8124758
  28.3418425  24.2968315  54.1017009  38.0418675  19.5842839  55.2507799
  37.1335552  19.5158247  54.9566560  37.9906270  20.0614784  56.0789625
  31.8635418  21.0600977  46.8891198  31.7435044  21.5058028  47.7276679
  31.1688007  21.4086295  46.3304736  25.4542823  23.1607369  54.4390855
  25.5835204  23.4141848  55.3530267  24.7740275  23.7535077  54.1195510
  29.6242311  33.8304619  50.5381330  29.5466340  34.7812444  50.6169810
  29.0203954  33.4850492  51.1956256  32.1159540  21.0032484  63.1942696
  31.3392874  21.5626405  63.1845561  32.7550103  21.4889267  63.7157567
  39.9080321  17.7859277  57.0285673  39.2654701  18.0791810  56.3825468
  39.4035249  17.6712198  57.8338870  37.5620485  21.5322450  47.7171532
  38.4738341  21.7649837  47.5419230  37.0530132  22.1159495  47.1546611
  30.3705913  23.8117938  62.7560663  31.1120597  24.3502982  62.4795487
  29.6642898  24.4384227  62.9132215  35.8461252  25.9547078  61.3532825
  36.2544608  25.5129489  60.6087457  35.1238514  25.3799706  61.6067018
  32.1992322  20.8919685  58.7266382  33.0453517  21.3159099  58.8701031
  32.1390960  20.2353309  59.4204945  36.1690067  26.5148269  55.1085114
  35.5398929  26.6793983  54.4061182  35.7815729  26.9289878  55.8796078
  40.0479299  27.4502707  52.4629478  39.3630337  27.8301608  51.9126511
  40.1323148  28.0598033  53.1961425  35.3491768  18.5524053  60.3847556
  35.1052699  19.3066114  59.8481831  35.6251698  18.9309401  61.2194803
  37.3030230  25.0962666  59.0624821  37.5147126  25.7394426  58.3859202
  37.2559979  24.2624982  58.5946751  34.9056459  17.7080486  55.9661393
  34.0440938  18.0061740  56.2578131  34.9318894  17.9250885  55.0342426
  31.7218029  26.2522677  52.3735199  32.1856374  26.5310380  51.5839821
  31.4574827  25.3506122  52.1908290  28.6142110  25.7994159  55.3114962
  29.1843467  26.2281427  54.6732447  29.2050222  25.5176743  56.0099148
  30.6586915  22.3745829  49.1824764  31.3610958  22.8266873  49.6498690
  30.3267543  21.7329648  49.8104657  29.1067276  20.9657586  63.5575973
  28.4765937  21.6473867  63.7911370  29.0003364  20.8540668  62.6129112
  24.4012249  20.6329382  54.4841898  23.6111303  20.8886911  54.0082008
  24.8923496  21.4477720  54.5893938  38.4176058  27.9734621  57.2347178
  39.2393502  27.5714809  56.9529860  38.4138461  27.8702855  58.1863294
  26.3526994  20.9973961  51.4425374  25.5558157  21.1092656  51.9608870
  26.1252586  21.3360614  50.5766265  32.1832662  27.5218665  59.3907889
  32.2477094  27.9839072  60.2266061  31.4743586  26.8916029  59.5190199
  22.6849952  20.8859873  56.9156888  22.9357990  21.7706882  57.1814464
  23.2209500  20.7064474  56.1431980  46.5082051  24.3173370  53.5832150
  45.7545760  23.7480768  53.4276154  46.6429593  24.2836034  54.5302785
  31.8980679  29.1886772  49.2586869  31.7626354  30.0338308  49.6871717
  32.4390492  29.3906050  48.4952803  28.3848019  15.2678352  65.9201224
  27.9914965  14.7144550  66.5948869  29.2014159  15.5788930  66.3107742
  25.3510077  26.7062210  49.8314794  25.8634597  27.5005460  49.9820359
  26.0032790  26.0088501  49.7648396  27.1604962  29.8227966  51.9137548
  27.3371590  30.7445931  51.7258531  27.9561795  29.5086386  52.3431927
  31.3015980  16.6836231  63.5121481  32.0425693  17.2843384  63.4325944
  31.5333903  15.9413869  62.9539524  26.4457318  21.8692598  61.7899711
  26.3310833  20.9677855  62.0906810  25.5901836  22.1156295  61.4384527
  33.5249156  29.8110339  63.3887211  33.0813010  29.0246717  63.0708116
  34.1866369  29.9989489  62.7231102  28.2836277  31.3406140  57.9147890
  28.8343702  31.2123203  57.1424884  27.4447753  31.6401029  57.5642783
  35.6230394  30.0913138  61.4168613  35.6048869  30.9122020  60.9248882
  36.5450314  29.9667214  61.6418754  32.0803448  27.6057268  62.2592121
  32.6131785  26.8445556  62.0291429  31.5517529  27.3130920  63.0016275
  35.2473143  12.7117334  57.7885763  34.9037412  13.6018976  57.7124873
  35.6152106  12.5218992  56.9255348  23.3158994  25.0350864  50.6074365
  24.1534216  25.4447873  50.3908073  23.4937261  24.0950307  50.5774559
  35.2123426  22.7025945  46.2958198  34.6970049  23.4730550  46.5346585
  34.9400734  22.0291081  46.9191259  32.7970537  17.5475646  51.3543436
  31.9412133  17.1582496  51.1749075  33.2097489  17.6267607  50.4943222
  34.3269683  15.0821989  55.7534996  33.8234479  15.0452124  54.9402801
  34.6200290  15.9914732  55.8131653  30.5712569  15.1660719  54.7601178
  31.4365566  14.9703527  54.4007067  30.6390078  14.9371071  55.6870534
  40.1857700  25.4558300  48.2311371  39.4087143  25.1169459  47.7866533
  40.8649181  25.4610923  47.5566336  35.0009729  20.5753037  48.1217979
  34.6959864  20.8899186  48.9728122  35.9540171  20.6534457  48.1645312
  33.4456161  26.7343260  49.7710933  32.9177522  25.9996020  49.4584170
  32.9443663  27.5117937  49.5250901  38.4249007  24.9292281  54.8877979
  37.7672681  25.6191542  54.9758108  39.2289406  25.3188713  55.2311966
  28.1774888  17.3962927  52.1317545  28.7518640  17.1738108  51.3990737
  28.7645871  17.4651621  52.8846146  37.2354466  23.2836654  52.9381921
  37.7486347  23.9166645  53.4403631  37.8855689  22.6837849  52.5725281
  28.5044475  19.4267388  46.1513430  27.6681788  19.7642074  46.4722705
  28.3649245  19.2916368  45.2140567  30.4797556  14.2704176  50.8592614
  29.8261968  13.9553193  50.2349229  30.4378030  13.6479916  51.5852437
  31.5908761  24.5523471  42.7745906  30.6835823  24.3212724  42.9737055
  32.0879793  23.7561090  42.9619888  34.4976840  33.2620978  45.6942592
  33.8238539  33.5652675  46.3027550  34.8842662  34.0650058  45.3448049
  33.7135296  20.7586109  55.1840262  32.7957858  20.9801056  55.0261950
  34.1295440  20.8332420  54.3251969  34.4970344  22.1577525  50.3142942
  35.2442163  22.6698922  50.0050064  34.7661934  21.8361578  51.1747335
  32.7696994  24.6536066  47.2969896  31.8608214  24.3695098  47.3942366
  32.7992078  25.0735144  46.4373203  38.0016262  28.2642655  51.0661064
  37.5478589  27.4233565  51.1226254  37.3710228  28.9004053  51.4035844
  36.9449181  19.1934641  52.2961731  36.2071938  18.6812027  52.6271974
  37.1975955  18.7535023  51.4845008  36.4449201  30.1019152  52.0010882
  36.7372175  30.6624209  51.2823247  36.9547822  30.3947713  52.7564041
  37.0460809  11.9710893  52.8903500  37.3519685  11.1108257  52.6029416
  37.7713413  12.5628513  52.6902494  23.3385165  22.3741580  51.2785098
  23.1409565  21.7810940  50.5536165  22.7831829  22.0693790  51.9961037
  31.3181888  22.2664686  53.3979691  31.3730498  21.3138523  53.3222168
  30.5073090  22.4224125  53.8820990  32.4673082  26.1944809  44.6357975
  32.0292512  25.4780668  44.1763612  33.2083523  26.4220924  44.0743066
  29.2574248  20.8841746  51.1570070  28.4442114  21.1835916  51.5635263
  29.7533243  20.4897435  51.8744553  31.4082826  30.8799503  53.0904335
  31.3659005  31.1060349  52.1612867  32.3245525  30.6462877  53.2390136
  34.8548460  21.3483570  59.9884964  35.2097848  21.5755044  60.8479430
  35.5020591  21.6801947  59.3662220  40.5846197  24.4702006  50.6934293
  40.4464096  24.6603602  49.7655483  40.2282416  25.2321389  51.1502344
  28.7488323  18.4560101  56.7731305  29.3887702  18.3148861  56.0754269
  27.9165854  18.1694615  56.3969907  40.6115577  26.5378533  55.7045565
  41.0452083  26.4453822  56.5528619  41.3247157  26.5136034  55.0665581
  29.5248627  27.7562532  52.8866298  30.3189225  27.2612852  52.6848873
  28.8140319  27.2280395  52.5234003  34.3443471  30.1380627  57.2378665
  34.3980494  30.7071564  58.0056381  33.4758253  30.3082512  56.8732703
  25.8331390  21.9005614  48.9626050  24.9028979  21.8390069  49.1796013
  25.9288862  21.3781566  48.1662692  25.7516939  18.4260426  51.5504292
  26.0123757  19.3405760  51.4413453  26.5734112  17.9584869  51.7000905
  27.2241865  19.8398184  58.7203117  27.8964918  19.6315546  58.0715766
  26.3971651  19.6420270  58.2808349  41.4731126  26.5802234  58.2378450
  41.6667016  27.4848044  58.4837725  41.3731744  26.1209653  59.0717035
  33.1267437  16.4660125  60.7368778  32.4795352  17.1650074  60.6433254
  33.8968452  16.8996268  61.1045026  36.5346235  26.7308977  63.8119331
  36.3831741  26.5019528  62.8949414  36.5250914  27.6879578  63.8250676
  33.3031571  24.3040889  58.7965597  34.2323631  24.4552049  58.6234565
  32.8822601  24.3924910  57.9414244  32.1019903  28.3291554  56.5664135
  31.9630989  27.9610338  57.4390073  31.3134499  28.8439193  56.3948093
  32.6968055  33.4300650  47.9089671  32.8719811  32.9588693  48.7235294
  32.0100843  34.0566416  48.1370932  33.6525118  27.7073157  53.9552973
  33.3174951  27.6673926  54.8510623  33.1529064  27.0417872  53.4823383
  27.6269362  23.1140787  59.4805554  27.4889160  22.3821025  60.0817093
  28.5374286  23.0249687  59.1989742  36.5884310  25.0529191  44.2290032
  35.9713480  24.3276019  44.1323085  36.1200798  25.8138551  43.8857107
  30.2551663  22.8260746  58.9689233  30.9651281  22.1853938  58.9275852
  30.2120971  23.0773641  59.8915414  38.2438441  29.7628099  61.8895813
  38.1850988  29.0787319  61.2226396  38.6457960  30.5047089  61.4376439
  28.9680597  19.8125964  60.7884873  28.4317954  19.3616702  61.4406469
  28.3797305  19.9471873  60.0455337  27.2629140  36.5790013  54.6829532
  27.5025738  37.2108537  55.3608550  26.4198337  36.2278053  54.9694891
  28.3782856  19.2714615  43.3511337  27.5012322  19.1503416  42.9873583
  28.8540609  18.4800693  43.0990225  38.2455849  27.7267683  60.1209792
  37.3582627  27.3893605  60.2436191  38.8154400  26.9950714  60.3578558
  19.8984996  24.0591775  53.4452844  20.5856036  23.7453505  52.8573859
  19.7433125  24.9633140  53.1720095  24.7019718  18.9481971  57.8737867
  24.6177907  18.3407641  57.1388277  23.8802424  19.4390990  57.8747364
  31.7757002  32.3869136  57.0871036  31.7027174  33.1924107  57.5990340
  31.3334395  32.5861101  56.2619057  31.5646782  31.6240906  50.5973857
  30.7814304  32.1662586  50.6912082  32.2639527  32.1414885  50.9968098
  34.8743432  17.4335535  53.2408062  35.3712131  16.6805497  52.9209133
  34.1030413  17.4699852  52.6751272  42.7273189  23.1375901  54.8826354
  42.7163065  24.0200616  54.5120287  41.8590569  22.7847451  54.6880891
  34.2355686  32.2855970  59.2429194  34.9483658  32.9203434  59.1705096
  33.7445714  32.3819836  58.4269196  35.9573213  26.1907222  50.8146486
  35.0229491  26.3108685  50.6451190  36.1349881  25.2879689  50.5506496
  31.4578401  19.5752918  52.9679747  31.0876188  19.0223958  53.6560653
  31.9537493  18.9711051  52.4154747  39.3445764  22.0324541  51.3496520
  39.8106216  22.8652533  51.2756823  39.7953264  21.5669523  52.0541779
  29.2867599  30.0350413  60.0634765  29.9877059  30.6686896  60.2164159
  28.8162714  30.3765145  59.3030404  37.4121995  28.3768363  48.3482672
  37.6881839  28.2624957  49.2576546  36.5426494  27.9785848  48.3094845
  37.3162427  14.4005128  55.3887421  36.4025506  14.6309355  55.5569628
  37.7455528  14.4843573  56.2401454  37.0868885  22.5895020  57.8887315
  36.4340335  22.8370928  57.2339768  37.4649265  21.7759159  57.5549793
  34.0476059  32.6254714  51.9915486  34.2298454  31.8076370  52.4543238
  34.8709045  32.8422406  51.5540376  34.3818224  31.5522899  49.2530534
  34.9105991  31.0415353  48.6400696  34.6446444  31.2365429  50.1176067
  33.1356458  23.3314832  64.3753352  32.4597095  23.2308961  65.0455728
  33.9584092  23.1754045  64.8389350  24.8835317  29.5686768  56.9965868
  25.4688754  28.8230456  57.1293772  24.6860156  29.8790725  57.8802532
  27.7373972  32.6038015  52.0128310  27.0684348  33.0884143  51.5292350
  27.5986842  32.8507236  52.9271689  19.4752972  22.1392368  55.7170311
  19.5137071  21.6055959  56.5107429  18.9693265  21.6127574  55.0981288
  26.8543734  16.9856909  59.2132853  26.9185061  17.8471740  58.8010251
  26.7910854  16.3730910  58.4805212  26.3296007  19.0580041  62.8605887
  26.9568046  18.6757119  63.4743412  25.4723926  18.8394243  63.2261580
  36.7290115  29.4643016  64.4659623  37.2730019  30.0772975  63.9714578
  36.1476960  30.0222595  64.9826636  23.1061550  20.8656470  48.7924242
  23.4014991  19.9567149  48.7391296  22.2049585  20.8444210  48.4705245
  35.0147628  32.5863734  55.5974651  34.8898768  31.7853474  55.0885596
  35.6726719  33.0809928  55.1088621  26.6355797  18.9412467  54.7751791
  25.9142382  19.5548435  54.6359264  27.4249052  19.4770232  54.6968437
  37.0782537  30.3872755  57.2254201  36.1312872  30.2678106  57.1532527
  37.4265310  29.4995253  57.3080462  29.4382110  16.2766893  61.0492443
  29.9616512  16.5229190  61.8118752  29.2194443  17.1086928  60.6295580
  24.8349391  18.5470568  48.9163567  24.5062097  17.6667947  48.7338673
  25.1888762  18.4918237  49.8039957  34.0828970  30.1825471  53.4258553
  33.9353932  29.2542178  53.6066123  34.9082463  30.2045561  52.9415628
  27.9491214  18.8343538  49.2839045  28.2887287  19.3629459  48.5617653
  28.3963335  19.1723944  50.0597612  37.6863092  31.0054030  54.5123426
  38.6109639  30.7996891  54.3747877  37.5178395  30.7570431  55.4212767
  30.6434655  17.2180589  58.7342113  30.3031475  16.4188402  59.1362793
  29.9373661  17.5182299  58.1618946  31.2951127  14.3029901  57.1869436
  32.1177196  13.8290379  57.0648326  31.5389190  15.0820385  57.6868122
  29.9359361  17.3318159  47.4832338  30.6567724  17.7099412  46.9796055
  29.3124666  18.0507036  47.5867316  34.0790484  18.0363308  48.4190670
  34.2954099  18.9187946  48.1179498  33.5984551  17.6449522  47.6896312
  28.8189706  20.9949022  54.9961415  28.6734286  21.3089325  55.8885696
  28.3414909  21.6133922  54.4432313  30.6786089  17.9851570  55.0442304
  30.6647657  17.0892663  54.7074602  31.3958517  17.9922233  55.6780590
  32.5312219  18.4188910  57.0895432  32.2729997  19.3405980  57.0879762
  31.9997260  18.0219344  57.7795896  37.4758408  31.5239697  49.8685517
  37.6495286  30.9586119  49.1159370  37.9687299  32.3240592  49.6865007
  23.2935368  23.5354366  57.9349076  22.7488836  24.3114174  58.0669350
  24.1714718  23.8825171  57.7768197  30.0822984  16.8665950  50.3129874
  30.2038896  15.9382596  50.5120762  29.7925027  16.8804636  49.4008190
  32.9514175  14.5520860  53.4496594  32.9735872  14.6160193  52.4948574
  33.3682234  13.7125369  53.6437100  43.3297799  24.2876120  51.4875817
  43.7728945  23.5383445  51.0894940  42.4524309  24.2786256  51.1049549
  38.4633581  30.8406461  46.9682415  39.1584485  31.4613154  47.1869730
  38.8056731  29.9901813  47.2434793  24.0801390  22.6624262  60.8279233
  23.3383126  22.8106898  61.4143863  23.7594134  22.9232528  59.9645982
  40.3625004  28.2906167  48.4969746  40.8876328  28.6293440  47.7719066
  40.2747356  27.3553182  48.3132881  32.0245052  32.2040241  60.6259623
  32.3332179  31.9589387  61.4982322  32.8220534  32.4086879  60.1378493
  32.0465664  34.3578150  52.8564999  31.6070655  33.8654529  53.5497856
  32.7973781  33.8151118  52.6157075  24.5258003  30.5489691  52.8589627
  25.3516023  30.2493463  52.4788271  24.1752055  29.7797313  53.3079416
  29.4939537  29.9016159  54.9287301  28.8719546  29.2386864  54.6289529
  30.1644403  29.9277291  54.2460949  22.7266608  28.4676017  53.8178561
  21.8898517  28.0398192  53.6362562  22.6990254  28.6608461  54.7549352
  29.5664064  18.3797947  64.5219807  29.6152220  19.2560070  64.1397577
  30.1086578  17.8375340  63.9491450  40.0518910  28.9239071  63.8020944
  39.2614453  28.9063209  63.2625444  39.8152264  29.4627364  64.5569981
  40.1716785  25.7731537  61.1153673  40.2214790  25.6081544  62.0569195
  40.0630708  24.9058796  60.7251553  29.0553043  28.4520083  48.4045762
  29.2041164  29.1355547  47.7512434  29.8619487  28.4325173  48.9195217
  37.4620547  21.7562465  62.4312979  38.3630410  21.6168930  62.1396977
  37.5368522  21.9216920  63.3711157  31.7963352  19.1329320  61.2766166
  30.9266662  19.4262886  61.0048754  32.0322833  19.7169765  61.9973429
  41.6734982  28.1928478  61.3595694  41.3819790  28.5558459  62.1959155
  41.0607113  27.4795487  61.1809026  42.8730664  25.7581358  53.8798264
  43.7077555  26.1971162  54.0435825  43.0089793  25.2820011  53.0606510
  39.9222170  23.3161093  59.8275752  40.3976291  23.5088739  59.0194604
  38.9987735  23.3720279  59.5819136  26.8105676  24.4785260  49.4106830
  26.5651718  23.5747590  49.6087041  26.9801591  24.4802411  48.4686308
  34.5002386  15.3508937  58.7931586  35.0184330  16.0869964  58.4678075
  34.1457519  15.6572930  59.6278345  26.0801324  20.2113618  46.9092992
  25.3870569  20.2857973  46.2533028  25.8353076  19.4473961  47.4314509
  34.7514980  11.7709219  54.3132483  35.0316734  11.1032408  54.9392909
  35.5365587  11.9638315  53.8007147  32.5548449  30.9468213  45.8757509
  31.9822416  31.5658400  45.4227981  33.1281243  31.4967575  46.4097431
  38.6223839  20.1926853  58.0604058  39.5741262  20.2924951  58.0816282
  38.4527289  19.4005122  58.5702142  36.6438218  17.2782436  58.2463459
  36.0488150  17.5587449  57.5509947  36.3587915  17.7676337  59.0180200
  35.7745709  31.2305363  47.0066091  36.7076382  31.1650925  47.2098967
  35.6868922  32.0661630  46.5480624  38.4033725  30.5471234  43.9670039
  38.3247357  30.2131097  44.8605797  39.2243392  31.0393001  43.9661511
  41.1011917  23.4132973  57.1746357  41.0688237  22.4748974  57.3606041
  41.7112540  23.4917010  56.4412182  32.9395247  22.2829026  43.2173561
  33.8854352  22.1535234  43.2861980  32.5609492  21.5443688  43.6942990
  41.2506405  20.2044016  57.2204641  40.7345454  19.4202473  57.0334570
  42.1346354  19.8762733  57.3851160  38.9117132  13.9485032  53.1800453
  38.7141953  13.6400120  54.0643785  39.5216838  14.6746671  53.3098383
  46.9188466  24.4748980  56.3152394  47.6491855  24.2134268  56.8760098
  46.3095412  23.7377702  56.3554462  45.0003764  22.6156842  56.9126845
  44.2736927  22.4812807  56.3043337  44.5851050  22.9233671  57.7183563
  32.8233940  26.3346772  64.6774218  33.7436949  26.5125371  64.8714265
  32.7883523  25.3902817  64.5253918  31.1238165  20.2079002  43.1528447
  30.2169620  19.9112115  43.2291160  31.4014146  19.9108820  42.2862733
  22.0416105  21.5285366  53.6027493  21.7218889  20.6750674  53.3101867
  21.4949533  21.7433944  54.3585460  25.8196013  24.2447807  57.3197000
  26.0382022  25.1764914  57.3385033  26.2321786  23.8855781  58.1051803
  32.7400230  14.7515892  49.3072688  31.9300959  14.4062977  49.6827934
  33.4284647  14.4423436  49.8960300  34.6690779  13.8293939  50.9296985
  35.2221817  14.2489392  51.5887008  34.9060865  12.9029687  50.9719941
  30.6923878  19.8181012  66.7099749  30.5920605  20.7675369  66.6411840
  30.4745420  19.4899251  65.8375819  29.8936949  17.0665937  43.2940426
  30.7556113  17.3920836  43.5536243  30.0787293  16.2797433  42.7813492
  21.9104365  25.1488277  55.5720615  21.2167836  24.7342230  55.0590569
  22.6577356  25.1908814  54.9754034  38.0469586  15.9394464  50.4375649
  37.4668255  16.5979268  50.0553701  37.7805518  15.1171808  50.0263066
  36.4973152  15.3399522  52.6396969  36.9972930  15.4516056  51.8311288
  37.1408760  15.0360574  53.2797778  30.5555148  23.2478151  65.5264810
  30.0722230  24.0478511  65.7328699  30.6416087  23.2586096  64.5732254
  23.8241108  25.0806531  53.4486630  23.8011796  25.1794218  52.4968513
  24.1341744  25.9271682  53.7703796  26.4828485  27.1382686  57.5633244
  27.4371739  27.1066628  57.4963176  26.2841009  26.6773310  58.3783470
  27.0727868  25.7083802  60.1304042  27.8920757  26.2027881  60.1538879
  27.3464675  24.7915770  60.1021609  36.8294464  18.0994554  49.4931997
  35.9420319  18.3844205  49.2752192  37.2448453  17.9388318  48.6459274
  40.1809000  18.1241075  53.2086336  40.9569390  18.6137528  53.4810953
  39.4557134  18.5499129  53.6658206  42.6181559  18.8368694  54.2660277
  43.2126049  18.5964430  53.5553585  42.6908142  18.1175825  54.8933813
  24.8378714  32.6802305  54.5803442  24.7033182  31.9202706  54.0141440
  24.4210776  33.4043205  54.1132231  35.9737677  27.8639229  43.5880017
  36.6773527  28.0689231  44.2037673  35.2500326  28.4315991  43.8529101
  36.8035487  23.6149090  49.7082287  36.7470689  24.0717642  48.8689920
  37.3563830  22.8539775  49.5305130  40.6140293  19.4038822  50.5332407
  40.3577228  19.0035458  51.3640615  39.9893161  20.1182616  50.4082546
  44.9252631  22.1434895  53.0403698  44.3652189  22.2128085  53.8135260
  44.3196135  21.9675880  52.3203194  27.9947840  33.5771622  54.7921885
  27.8780224  34.5217055  54.6900575  27.1740286  33.2745184  55.1807684
  37.8824375  28.3021758  45.6378477  38.7169979  27.8702957  45.4555952
  37.7208718  28.1303772  46.5655372  37.5370267  24.8053871  47.0034817
  37.4819071  24.6398143  46.0623261  36.9116322  25.5129904  47.1597006
  22.3262782  20.0421936  60.8296239  22.9721645  19.5320890  61.3183464
  22.1179933  20.7790617  61.4039664  34.8516174  27.1102783  66.3288379
  35.7207334  27.2843436  65.9675014  34.3722925  27.9297200  66.2064109
  30.8466392  14.3061980  46.5820135  30.8345062  15.2503820  46.7388406
  31.7389814  14.1232126  46.2879596  29.0202354  34.2299884  58.0077813
  29.9229601  34.2623495  58.3244308  28.7939724  33.3000335  58.0224149
  30.7755956  32.9830871  54.6687892  29.8251587  32.9832732  54.5552264
  31.0788442  32.2363605  54.1523926  34.6618512  10.9004757  50.8366072
  33.8950908  10.3463244  50.9822754  35.0729217  10.9726626  51.6980223
  26.6660273  17.1889553  64.9271253  27.5291734  16.8326358  65.1374578
  26.0925683  16.8503448  65.6146657  48.9883766  30.1939670  58.1714449
  48.6567090  31.0635081  57.9475664  48.3929379  29.8775954  58.8508480
  50.7474075  33.1151195  57.0285673  50.1048456  33.4083728  56.3825468
  50.2429004  33.0004115  57.8338870  46.1885522  33.8815971  60.3847556
  45.9446454  34.6358032  59.8481831  46.4645453  34.2601319  61.2194803
  39.2241774  30.5970270  65.9201224  38.8308719  30.0436468  66.5948869
  40.0407914  30.9080848  66.3107742  42.1409735  32.0128149  63.5121481
  42.8819448  32.6135302  63.4325944  42.3727657  31.2705786  62.9539524
  46.0866897  28.0409252  57.7885763  45.7431167  28.9310893  57.7124873
  46.4545860  27.8510909  56.9255348  45.1663438  30.4113907  55.7534996
  44.6628233  30.3744042  54.9402801  45.4594045  31.3206649  55.8131653
  41.4106324  30.4952636  54.7601178  42.2759321  30.2995445  54.4007067
  41.4783833  30.2662988  55.6870534  39.0168643  32.7254844  52.1317545
  39.5912395  32.5030026  51.3990737  39.6039625  32.7943539  52.8846146
  41.3191311  29.5996093  50.8592614  40.6655723  29.2845110  50.2349229
  41.2771785  28.9771834  51.5852437  47.8854563  27.3002811  52.8903500
  48.1913440  26.4400174  52.6029416  48.6107168  27.8920431  52.6902494
  36.5910694  33.7552344  51.5504292  36.8517511  34.6697677  51.4413453
  37.4127866  33.2876787  51.7000905  43.9661191  31.7952042  60.7368778
  43.3189106  32.4941992  60.6433254  44.7362207  32.2288186  61.1045026
  39.2176610  34.6006533  43.3511337  38.3406076  34.4795334  42.9873583
  39.6934363  33.8092611  43.0990225  48.1556181  29.7297046  55.3887421
  47.2419261  29.9601273  55.5569628  48.5849283  29.8135490  56.2401454
  37.1689761  34.3871959  62.8605887  37.7961800  34.0049036  63.4743412
  36.3117680  34.1686161  63.2261580  40.2775865  31.6058811  61.0492443
  40.8010266  31.8521108  61.8118752  40.0588198  32.4378846  60.6295580
  38.7884969  34.1635456  49.2839045  39.1281041  34.6921377  48.5617653
  39.2357089  34.5015862  50.0597612  42.1344881  29.6321819  57.1869436
  42.9570951  29.1582297  57.0648326  42.3782945  30.4112302  57.6868122
  40.7753116  32.6610077  47.4832338  41.4961478  33.0391330  46.9796055
  40.1518420  33.3798954  47.5867316  40.9216739  32.1957868  50.3129874
  41.0432650  31.2674514  50.5120762  40.6318781  32.2096554  49.4008190
  43.7907929  29.8812778  53.4496594  43.8129626  29.9452111  52.4948574
  44.2075988  29.0417287  53.6437100  45.3396141  30.6800854  58.7931586
  45.8578085  31.4161881  58.4678075  44.9851274  30.9864848  59.6278345
  45.5908735  27.1001137  54.3132483  45.8710489  26.4324326  54.9392909
  46.3759342  27.2930232  53.8007147  41.9631919  35.5370920  43.1528447
  41.0563375  35.2404033  43.2291160  42.2407900  35.2400738  42.2862733
  43.5793985  30.0807810  49.3072688  42.7694713  29.7354895  49.6827934
  44.2678402  29.7715353  49.8960300  45.5084533  29.1585856  50.9296985
  46.0615572  29.5781310  51.5887008  45.7454619  28.2321605  50.9719941
  40.7330704  32.3957855  43.2940426  41.5949868  32.7212753  43.5536243
  40.9181048  31.6089351  42.7813492  41.6860147  29.6353898  46.5820135
  41.6738817  30.5795738  46.7388406  42.5783569  29.4524044  46.2879596
  45.5012266  26.2296675  50.8366072  44.7344662  25.6755161  50.9822754
  45.9122971  26.3018544  51.6980223  37.5054027  32.5181471  64.9271253
  38.3685489  32.1618275  65.1374578  36.9319438  32.1795365  65.6146657
  79.0263315  70.3049123  53.5832150  78.2727023  69.7356521  53.4276154
  79.1610856  70.2711787  54.5302785  64.1090024  70.5399224  42.7745906
  63.2017086  70.3088477  42.9737055  64.6061056  69.7436843  42.9619888
  67.0158103  79.2496731  45.6942592  66.3419802  79.5528428  46.3027550
  67.4023925  80.0525811  45.3448049  65.2149318  79.4176403  47.9089671
  65.3901074  78.9464447  48.7235294  64.5282106  80.0442170  48.1370932
  75.2454453  69.1251654  54.8826354  75.2344329  70.0076369  54.5120287
  74.3771832  68.7723204  54.6880891  65.0729712  76.9343966  45.8757509
  64.5003680  77.5534153  45.4227981  65.6462506  77.4843328  46.4097431
  70.9214989  76.5346987  43.9670039  70.8428620  76.2006850  44.8605797
  71.7424656  77.0268754  43.9661511  79.4369730  70.4624733  56.3152394
  80.1673118  70.2010021  56.8760098  78.8276675  69.7253455  56.3554462
  77.5185027  68.6032595  56.9126845  76.7918191  68.4688560  56.3043337
  77.1032314  68.9109424  57.7183563  68.4918941  73.8514982  43.5880017
  69.1954791  74.0564984  44.2037673  67.7681589  74.4191744  43.8529101
  77.4433895  68.1310648  53.0403698  76.8833453  68.2003838  53.8135260
  76.8377398  67.9551633  52.3203194  70.4005638  74.2897511  45.6378477
  71.2351242  73.8578710  45.4555952  70.2389981  74.1179525  46.5655372
  79.0289913  84.8067162  55.7333654  79.6668323  84.6873910  55.0296994
  78.9110756  85.7548006  55.7921606  75.8379619  84.7594590  55.6695179
  75.4998131  84.6435655  54.7815714  76.7069388  84.3585755  55.6496185
  71.6966435  86.6130067  51.6592070  71.1331300  86.5220004  50.8908357
  71.5818830  85.7929971  52.1394562  76.3199402  85.9129442  61.6281384
  76.3088043  85.5182240  60.7561888  76.4820042  85.1795515  62.2215156
  69.2430867  88.1081258  54.4976290  70.0352159  87.7672083  54.0822589
  69.4827517  88.2176233  55.4178443  77.2765994  90.2801034  46.9706535
  76.6253974  90.8655115  46.5840548  78.0710357  90.8107229  47.0301572
  71.2021621  87.3690172  47.3693669  71.9752497  86.8219159  47.2306545
  71.5547020  88.2334421  47.5808130  73.0406664  88.6966554  60.5760568
  72.7496530  89.6012185  60.4607234  73.6763648  88.7383082  61.2904638
  73.9662870  86.0743402  57.1661928  74.5626443  85.8499425  56.4518891
  74.0237842  85.3328148  57.7687376  73.5387899  83.5282838  45.0012119
  73.7913420  83.0064359  44.2395582  72.6012458  83.3648983  45.1038802
  78.5831182  82.5318616  52.8086862  79.3694271  82.1138039  52.4577279
  78.8469886  83.4364708  52.9768510  78.7541259  87.9691466  47.5075519
  78.1187092  88.0426093  48.2196423  78.4238665  88.5585065  46.8294598
  83.9839609  82.4693849  53.7119841  84.7164781  81.8993066  53.9457670
  83.2278965  82.0815450  54.1526346  73.2584188  85.4310944  47.2036494
  73.1420446  84.7555847  47.8717578  73.3686447  84.9443318  46.3868647
  75.6015729  84.8921091  50.9083183  75.2373936  84.3651712  51.6196104
  76.4582844  84.5019560  50.7349668  81.5065029  76.1815423  58.1714449
  81.1748354  77.0510834  57.9475664  80.9110643  75.8651707  58.8508480
  75.2421216  79.9210991  45.9044531  75.4095618  80.7891227  46.2715003
  75.0518385  80.0838272  44.9805821  77.9996549  88.3827969  57.5710362
  77.6997272  89.2853008  57.4626169  77.6547608  88.1160153  58.4231515
  81.3993692  80.9010510  55.2507799  80.4910570  80.8325918  54.9566560
  81.3481288  81.3782455  56.0789625  75.2210436  82.3768648  46.8891198
  75.1010062  82.8225699  47.7276679  74.5263025  82.7253966  46.3304736
  72.9817328  95.1472290  50.5381330  72.9041358  96.0980115  50.6169810
  72.3778972  94.8018162  51.1956256  75.4734558  82.3200155  63.1942696
  74.6967892  82.8794075  63.1845561  76.1125121  82.8056938  63.7157567
  83.2655339  79.1026948  57.0285673  82.6229719  79.3959481  56.3825468
  82.7610267  78.9879868  57.8338870  80.9195503  82.8490121  47.7171532
  81.8313359  83.0817508  47.5419230  80.4105150  83.4327165  47.1546611
  73.7280931  85.1285609  62.7560663  74.4695615  85.6670653  62.4795487
  73.0217916  85.7551897  62.9132215  79.2036270  87.2714749  61.3532825
  79.6119626  86.8297160  60.6087457  78.4813532  86.6967377  61.6067018
  75.5567340  82.2087356  58.7266382  76.4028535  82.6326769  58.8701031
  75.4965978  81.5520980  59.4204945  79.5265085  87.8315940  55.1085114
  78.8973947  87.9961654  54.4061182  79.1390747  88.2457549  55.8796078
  83.4054317  88.7670378  52.4629478  82.7205355  89.1469279  51.9126511
  83.4898166  89.3765704  53.1961425  78.7066786  79.8691724  60.3847556
  78.4627717  80.6233785  59.8481831  78.9826716  80.2477072  61.2194803
  80.6605248  86.4130337  59.0624821  80.8722144  87.0562096  58.3859202
  80.6134997  85.5792653  58.5946751  75.0793047  87.5690348  52.3735199
  75.5431392  87.8478051  51.5839821  74.8149845  86.6673792  52.1908290
  71.9717128  87.1161829  55.3114962  72.5418485  87.5449098  54.6732447
  72.5625240  86.8344414  56.0099148  74.0161933  83.6913500  49.1824764
  74.7185976  84.1434544  49.6498690  73.6842561  83.0497319  49.8104657
  72.4642294  82.2825257  63.5575973  71.8340955  82.9641538  63.7911370
  72.3578382  82.1708338  62.6129112  81.7751076  89.2902292  57.2347178
  82.5968520  88.8882479  56.9529860  81.7713479  89.1870526  58.1863294
  75.5407680  88.8386335  59.3907889  75.6052112  89.3006742  60.2266061
  74.8318604  88.2083700  59.5190199  89.8657069  85.6341040  53.5832150
  89.1120778  85.0648438  53.4276154  90.0004611  85.6003705  54.5302785
  75.2555697  90.5054443  49.2586869  75.1201372  91.3505978  49.6871717
  75.7965510  90.7073720  48.4952803  68.7085095  88.0229881  49.8314794
  69.2209615  88.8173131  49.9820359  69.3607808  87.3256171  49.7648396
  70.5179979  91.1395637  51.9137548  70.6946608  92.0613602  51.7258531
  71.3136813  90.8254056  52.3431927  69.8032336  83.1860269  61.7899711
  69.6885851  82.2845526  62.0906810  68.9476854  83.4323966  61.4384527
  76.8824174  91.1278009  63.3887211  76.4388028  90.3414388  63.0708116
  77.5441387  91.3157160  62.7231102  71.6411295  92.6573811  57.9147890
  72.1918720  92.5290874  57.1424884  70.8022771  92.9568700  57.5642783
  78.9805412  91.4080809  61.4168613  78.9623887  92.2289690  60.9248882
  79.9025332  91.2834884  61.6418754  75.4378466  88.9224939  62.2592121
  75.9706803  88.1613227  62.0291429  74.9092547  88.6298590  63.0016275
  78.6048161  74.0285005  57.7885763  78.2612430  74.9186646  57.7124873
  78.9727124  73.8386662  56.9255348  78.5698444  84.0193616  46.2958198
  78.0545067  84.7898220  46.5346585  78.2975752  83.3458752  46.9191259
  83.5432718  86.7725970  48.2311371  82.7662161  86.4337130  47.7866533
  84.2224199  86.7778594  47.5566336  78.3584747  81.8920708  48.1217979
  78.0534882  82.2066857  48.9728122  79.3115189  81.9702128  48.1645312
  76.8031179  88.0510931  49.7710933  76.2752540  87.3163691  49.4584170
  76.3018681  88.8285607  49.5250901  81.7824025  86.2459952  54.8877979
  81.1247699  86.9359213  54.9758108  82.5864424  86.6356384  55.2311966
  80.5929484  84.6004324  52.9381921  81.1061365  85.2334316  53.4403631
  81.2430707  84.0005520  52.5725281  71.8619493  80.7435058  46.1513430
  71.0256806  81.0809745  46.4722705  71.7224263  80.6084038  45.2140567
  74.9483779  85.8691141  42.7745906  74.0410841  85.6380395  42.9737055
  75.4454811  85.0728761  42.9619888  77.8551858  94.5788649  45.6942592
  77.1813557  94.8820345  46.3027550  78.2417680  95.3817729  45.3448049
  77.8545362  83.4745196  50.3142942  78.6017181  83.9866593  50.0050064
  78.1236952  83.1529248  51.1747335  76.1272012  85.9703736  47.2969896
  75.2183232  85.6862769  47.3942366  76.1567096  86.3902815  46.4373203
  81.3591280  89.5810326  51.0661064  80.9053607  88.7401236  51.1226254
  80.7285246  90.2171724  51.4035844  80.3024199  80.5102312  52.2961731
  79.5646956  79.9979698  52.6271974  80.5550973  80.0702693  51.4845008
  79.8024219  91.4186822  52.0010882  80.0947193  91.9791880  51.2823247
  80.3122840  91.7115383  52.7564041  80.4035827  73.2878564  52.8903500
  80.7094703  72.4275927  52.6029416  81.1288431  73.8796184  52.6902494
  75.8248100  87.5112480  44.6357975  75.3867530  86.7948339  44.1763612
  76.5658541  87.7388595  44.0743066  74.7657844  92.1967174  53.0904335
  74.7234023  92.4228020  52.1612867  75.6820543  91.9630548  53.2390136
  78.2123478  82.6651241  59.9884964  78.5672866  82.8922714  60.8479430
  78.8595609  82.9969618  59.3662220  83.9421215  85.7869677  50.6934293
  83.8039113  85.9771273  49.7655483  83.5857434  86.5489060  51.1502344
  83.9690595  87.8546204  55.7045565  84.4027101  87.7621493  56.5528619
  84.6822175  87.8303704  55.0665581  72.8823645  89.0730203  52.8866298
  73.6764243  88.5780523  52.6848873  72.1715337  88.5448066  52.5234003
  77.7018489  91.4548298  57.2378665  77.7555512  92.0239234  58.0056381
  76.8333271  91.6250183  56.8732703  69.1906408  83.2173284  48.9626050
  68.2603997  83.1557740  49.1796013  69.2863880  82.6949237  48.1662692
  84.8306144  87.8969905  58.2378450  85.0242034  88.8015715  58.4837725
  84.7306762  87.4377324  59.0717035  76.4842455  77.7827795  60.7368778
  75.8370370  78.4817745  60.6433254  77.2543470  78.2163939  61.1045026
  79.8921253  88.0476647  63.8119331  79.7406759  87.8187199  62.8949414
  79.8825932  89.0047249  63.8250676  76.6606589  85.6208560  58.7965597
  77.5898649  85.7719720  58.6234565  76.2397619  85.7092581  57.9414244
  75.4594921  89.6459225  56.5664135  75.3206007  89.2778009  57.4390073
  74.6709517  90.1606864  56.3948093  76.0543073  94.7468321  47.9089671
  76.2294829  94.2756364  48.7235294  75.3675861  95.3734087  48.1370932
  77.0100136  89.0240827  53.9552973  76.6749969  88.9841597  54.8510623
  76.5104082  88.3585543  53.4823383  70.9844380  84.4308457  59.4805554
  70.8464178  83.6988696  60.0817093  71.8949304  84.3417357  59.1989742
  79.9459328  86.3696862  44.2290032  79.3288498  85.6443690  44.1323085
  79.4775816  87.1306222  43.8857107  73.6126681  84.1428417  58.9689233
  74.3226299  83.5021609  58.9275852  73.5695989  84.3941311  59.8915414
  81.6013459  91.0795770  61.8895813  81.5426006  90.3954990  61.2226396
  82.0032978  91.8214760  61.4376439  72.3255615  81.1293634  60.7884873
  71.7892972  80.6784373  61.4406469  71.7372323  81.2639543  60.0455337
  70.6204158  97.8957684  54.6829532  70.8600756  98.5276208  55.3608550
  69.7773355  97.5445724  54.9694891  71.7357874  80.5882286  43.3511337
  70.8587340  80.4671087  42.9873583  72.2115627  79.7968364  43.0990225
  81.6030867  89.0435354  60.1209792  80.7157645  88.7061276  60.2436191
  82.1729418  88.3118385  60.3578558  75.1332020  93.7036806  57.0871036
  75.0602192  94.5091778  57.5990340  74.6909413  93.9028772  56.2619057
  74.9221800  92.9408576  50.5973857  74.1389322  93.4830256  50.6912082
  75.6214545  93.4582556  50.9968098  78.2318450  78.7503206  53.2408062
  78.7287149  77.9973168  52.9209133  77.4605431  78.7867522  52.6751272
  86.0848207  84.4543571  54.8826354  86.0738083  85.3368287  54.5120287
  85.2165587  84.1015122  54.6880891  77.5930704  93.6023640  59.2429194
  78.3058676  94.2371105  59.1705096  77.1020732  93.6987506  58.4269196
  79.3148230  87.5074893  50.8146486  78.3804509  87.6276355  50.6451190
  79.4924899  86.6047360  50.5506496  82.7020782  83.3492212  51.3496520
  83.1681234  84.1820204  51.2756823  83.1528282  82.8837194  52.0541779
  72.6442617  91.3518084  60.0634765  73.3452077  91.9854567  60.2164159
  72.1737732  91.6932815  59.3030404  80.7697013  89.6936033  48.3482672
  81.0456857  89.5792628  49.2576546  79.9001512  89.2953518  48.3094845
  80.6737445  75.7172799  55.3887421  79.7600524  75.9477026  55.5569628
  81.1030546  75.8011243  56.2401454  80.4443903  83.9062691  57.8887315
  79.7915353  84.1538599  57.2339768  80.8224283  83.0926829  57.5549793
  77.4051077  93.9422384  51.9915486  77.5873471  93.1244040  52.4543238
  78.2284063  94.1590077  51.5540376  77.7393242  92.8690569  49.2530534
  78.2681009  92.3583024  48.6400696  78.0021462  92.5533100  50.1176067
  76.4931476  84.6482502  64.3753352  75.8172113  84.5476632  65.0455728
  77.3159110  84.4921716  64.8389350  68.2410335  90.8854439  56.9965868
  68.8263772  90.1398127  57.1293772  68.0435174  91.1958395  57.8802532
  71.0948990  93.9205686  52.0128310  70.4259366  94.4051814  51.5292350
  70.9561860  94.1674907  52.9271689  75.2354259  95.9549430  58.6110968
  75.7872567  96.1181051  59.3760054  75.5760452  96.5453867  57.9390993
  80.0865133  90.7810687  64.4659623  80.6305037  91.3940645  63.9714578
  79.5051978  91.3390266  64.9826636  66.4636567  82.1824141  48.7924242
  66.7590009  81.2734820  48.7391296  65.5624603  82.1611881  48.4705245
  78.3722646  93.9031405  55.5974651  78.2473786  93.1021145  55.0885596
  79.0301737  94.3977599  55.1088621  80.4357555  91.7040425  57.2254201
  79.4887890  91.5845776  57.1532527  80.7840328  90.8162923  57.3080462
  77.4403988  91.4993141  53.4258553  77.2928950  90.5709849  53.6066123
  78.2657481  91.5213232  52.9415628  81.0438110  92.3221700  54.5123426
  81.9684657  92.1164562  54.3747877  80.8753413  92.0738101  55.4212767
  73.2934379  78.6485830  47.4832338  74.0142742  79.0267083  46.9796055
  72.6699684  79.3674707  47.5867316  77.4365502  79.3530979  48.4190670
  77.6529117  80.2355617  48.1179498  76.9559569  78.9617193  47.6896312
  80.8333426  92.8407368  49.8685517  81.0070304  92.2753790  49.1159370
  81.3262317  93.6408263  49.6865007  76.3089193  75.8688531  53.4496594
  76.3310890  75.9327864  52.4948574  76.7257252  75.0293040  53.6437100
  86.6872817  85.6043791  51.4875817  87.1303963  84.8551116  51.0894940
  85.8099327  85.5953927  51.1049549  81.8208598  92.1574132  46.9682415
  82.5159503  92.7780825  47.1869730  82.1631749  91.3069483  47.2434793
  67.4376408  83.9791933  60.8279233  66.6958144  84.1274568  61.4143863
  67.1169152  84.2400199  59.9645982  83.7200022  89.6073838  48.4969746
  84.2451346  89.9461110  47.7719066  83.6322374  88.6720853  48.3132881
  75.3820070  93.5207911  60.6259623  75.6907197  93.2757058  61.4982322
  76.1795552  93.7254550  60.1378493  75.4040682  95.6745821  52.8564999
  74.9645673  95.1822200  53.5497856  76.1548799  95.1318789  52.6157075
  67.8833021  91.8657362  52.8589627  68.7091041  91.5661134  52.4788271
  67.5327073  91.0964984  53.3079416  72.8514555  91.2183830  54.9287301
  72.2294564  90.5554535  54.6289529  73.5219421  91.2444962  54.2460949
  66.0841626  89.7843688  53.8178561  65.2473535  89.3565863  53.6362562
  66.0565272  89.9776132  54.7549352  83.4093928  90.2406741  63.8020944
  82.6189471  90.2230880  63.2625444  83.1727282  90.7795035  64.5569981
  83.5291803  87.0899208  61.1153673  83.5789808  86.9249215  62.0569195
  83.4205726  86.2226467  60.7251553  72.4128061  89.7687753  48.4045762
  72.5616182  90.4523218  47.7512434  73.2194505  89.7492843  48.9195217
  80.8195565  83.0730136  62.4312979  81.7205428  82.9336601  62.1396977
  80.8943540  83.2384590  63.3711157  75.1538370  80.4496990  61.2766166
  74.2841680  80.7430556  61.0048754  75.3897851  81.0337435  61.9973429
  85.0310000  89.5096149  61.3595694  84.7394808  89.8726130  62.1959155
  84.4182131  88.7963157  61.1809026  86.2305682  87.0749029  53.8798264
  87.0652573  87.5138833  54.0435825  86.3664811  86.5987682  53.0606510
  83.2797188  84.6328764  59.8275752  83.7551309  84.8256410  59.0194604
  82.3562753  84.6887950  59.5819136  70.1680694  85.7952931  49.4106830
  69.9226736  84.8915261  49.6087041  70.3376609  85.7970081  48.4686308
  77.8577404  76.6676607  58.7931586  78.3759348  77.4037634  58.4678075
  77.5032537  76.9740601  59.6278345  69.4376342  81.5281289  46.9092992
  68.7445587  81.6025644  46.2533028  69.1928094  80.7641632  47.4314509
  78.1089998  73.0876890  54.3132483  78.3891752  72.4200079  54.9392909
  78.8940605  73.2805985  53.8007147  75.9123467  92.2635884  45.8757509
  75.3397434  92.8826071  45.4227981  76.4856261  92.8135245  46.4097431
  81.9798857  81.5094524  58.0604058  82.9316280  81.6092622  58.0816282
  81.8102307  80.7172792  58.5702142  80.0013236  78.5950107  58.2463459
  79.4063168  78.8755120  57.5509947  79.7162933  79.0844008  59.0180200
  79.1320727  92.5473034  47.0066091  80.0651400  92.4818596  47.2098967
  79.0443940  93.3829301  46.5480624  81.7608743  91.8638904  43.9670039
  81.6822375  91.5298768  44.8605797  82.5818410  92.3560672  43.9661511
  84.4586935  84.7300644  57.1746357  84.4263255  83.7916644  57.3606041
  85.0687558  84.8084680  56.4412182  76.2970265  83.5996697  43.2173561
  77.2429370  83.4702905  43.2861980  75.9184510  82.8611358  43.6942990
  84.6081423  81.5211687  57.2204641  84.0920472  80.7370144  57.0334570
  85.4921372  81.1930404  57.3851160  82.2692150  75.2652703  53.1800453
  82.0716971  74.9567791  54.0643785  82.8791856  75.9914341  53.3098383
  90.2763484  85.7916650  56.3152394  91.0066873  85.5301939  56.8760098
  89.6670430  85.0545372  56.3554462  88.3578782  83.9324513  56.9126845
  87.6311945  83.7980478  56.3043337  87.9426068  84.2401342  57.7183563
  76.1808958  87.6514443  64.6774218  77.1011967  87.8293042  64.8714265
  76.1458541  86.7070488  64.5253918  74.4813183  81.5246673  43.1528447
  73.5744638  81.2279786  43.2291160  74.7589164  81.2276491  42.2862733
  69.1771031  85.5615477  57.3197000  69.3957040  86.4932585  57.3385033
  69.5896804  85.2023452  58.1051803  76.0975248  76.0683563  49.3072688
  75.2875977  75.7230648  49.6827934  76.7859665  75.7591106  49.8960300
  78.0265797  75.1461609  50.9296985  78.5796835  75.5657063  51.5887008
  78.2635883  74.2197358  50.9719941  74.0498896  81.1348683  66.7099749
  73.9495623  82.0843040  66.6411840  73.8320438  80.8066922  65.8375819
  73.2511967  78.3833608  43.2940426  74.1131131  78.7088506  43.5536243
  73.4362311  77.5965104  42.7813492  81.4044604  77.2562135  50.4375649
  80.8243273  77.9146939  50.0553701  81.1380536  76.4339479  50.0263066
  79.8548170  76.6567192  52.6396969  80.3547948  76.7683727  51.8311288
  80.4983778  76.3528245  53.2797778  73.9130166  84.5645822  65.5264810
  73.4297248  85.3646182  65.7328699  73.9991105  84.5753767  64.5732254
  69.8403503  88.4550357  57.5633244  70.7946757  88.4234299  57.4963176
  69.6416027  87.9940980  58.3783470  70.4302886  87.0251473  60.1304042
  71.2495774  87.5195551  60.1538879  70.7039693  86.1083441  60.1021609
  80.1869482  79.4162225  49.4931997  79.2995337  79.7011876  49.2752192
  80.6023471  79.2555988  48.6459274  83.5384018  79.4408746  53.2086336
  84.3144408  79.9305198  53.4810953  82.8132152  79.8666800  53.6658206
  85.9756576  80.1536365  54.2660277  86.5701067  79.9132101  53.5553585
  86.0483160  79.4343496  54.8933813  68.1953732  93.9969976  54.5803442
  68.0608200  93.2370377  54.0141440  67.7785794  94.7210876  54.1132231
  79.3312695  89.1806900  43.5880017  80.0348545  89.3856902  44.2037673
  78.6075344  89.7483662  43.8529101  80.1610505  84.9316761  49.7082287
  80.1045707  85.3885312  48.8689920  80.7138848  84.1707446  49.5305130
  83.9715311  80.7206493  50.5332407  83.7152246  80.3203128  51.3640615
  83.3468179  81.4350287  50.4082546  88.2827649  83.4602566  53.0403698
  87.7227207  83.5295755  53.8135260  87.6771153  83.2843551  52.3203194
  71.3522858  94.8939293  54.7921885  71.2355242  95.8384726  54.6900575
  70.5315304  94.5912855  55.1807684  81.2399393  89.6189429  45.6378477
  82.0744997  89.1870627  45.4555952  81.0783735  89.4471443  46.5655372
  80.8945285  86.1221542  47.0034817  80.8394089  85.9565814  46.0623261
  80.2691340  86.8297575  47.1597006  78.2091192  88.4270454  66.3288379
  79.0782352  88.6011106  65.9675014  77.7297943  89.2464871  66.2064109
  74.2041410  75.6229651  46.5820135  74.1920080  76.5671491  46.7388406
  75.0964832  75.4399797  46.2879596  72.3777372  95.5467555  58.0077813
  73.2804619  95.5791165  58.3244308  72.1514742  94.6168006  58.0224149
  74.1330974  94.2998542  54.6687892  73.1826605  94.3000403  54.5552264
  74.4363460  93.5531276  54.1523926  78.0193530  72.2172428  50.8366072
  77.2525925  71.6630914  50.9822754  78.4304235  72.2894297  51.6980223
  89.8683668 100.1359080  55.7333654  90.5062078 100.0165827  55.0296994
  89.7504511 101.0839924  55.7921606  86.6773374 100.0886508  55.6695179
  86.3391885  99.9727573  54.7815714  87.5463142  99.6877673  55.6496185
  82.5360190 101.9421984  51.6592070  81.9725055 101.8511921  50.8908357
  82.4212585 101.1221889  52.1394562  87.1593157 101.2421360  61.6281384
  87.1481798 100.8474158  60.7561888  87.3213796 100.5087432  62.2215156
  80.0824622 103.4373176  54.4976290  80.8745914 103.0964001  54.0822589
  80.3221272 103.5468151  55.4178443  88.1159748 105.6092952  46.9706535
  87.4647728 106.1947033  46.5840548  88.9104111 106.1399147  47.0301572
  82.0415376 102.6982089  47.3693669  82.8146252 102.1511076  47.2306545
  82.3940774 103.5626339  47.5808130  83.8800418 104.0258472  60.5760568
  83.5890284 104.9304102  60.4607234  84.5157402 104.0674999  61.2904638
  84.8056625 101.4035320  57.1661928  85.4020197 101.1791343  56.4518891
  84.8631596 100.6620066  57.7687376  84.3781653  98.8574755  45.0012119
  84.6307174  98.3356277  44.2395582  83.4406212  98.6940901  45.1038802
  89.4224936  97.8610534  52.8086862  90.2088025  97.4429957  52.4577279
  89.6863640  98.7656626  52.9768510  89.5935014 103.2983384  47.5075519
  88.9580846 103.3718011  48.2196423  89.2632420 103.8876983  46.8294598
  94.8233363  97.7985767  53.7119841  95.5558535  97.2284984  53.9457670
  94.0672719  97.4107367  54.1526346  84.0977942 100.7602861  47.2036494
  83.9814200 100.0847765  47.8717578  84.2080202 100.2735235  46.3868647
  86.4409483 100.2213009  50.9083183  86.0767690  99.6943629  51.6196104
  87.2976599  99.8311478  50.7349668  92.3458784  91.5107341  58.1714449
  92.0142108  92.3802752  57.9475664  91.7504397  91.1943625  58.8508480
  86.0814970  95.2502908  45.9044531  86.2489372  96.1183145  46.2715003
  85.8912139  95.4130190  44.9805821  88.8390303 103.7119887  57.5710362
  88.5391026 104.6144926  57.4626169  88.4941363 103.4452070  58.4231515
  82.2902785 100.1633684  53.6047066  81.3653281 100.0309898  53.8124758
  82.5387198 100.9427903  54.1017009  92.2387447  96.2302427  55.2507799
  91.3304324  96.1617836  54.9566560  92.1875043  96.7074372  56.0789625
  86.0604191  97.7060566  46.8891198  85.9403816  98.1517616  47.7276679
  85.3656779  98.0545883  46.3304736  79.6511596  99.8066957  54.4390855
  79.7803977 100.0601436  55.3530267  78.9709047 100.3994665  54.1195510
  86.3128313  97.6492073  63.1942696  85.5361647  98.2085993  63.1845561
  86.9518876  98.1348856  63.7157567  94.1049093  94.4318866  57.0285673
  93.4623474  94.7251399  56.3825468  93.6004022  94.3171786  57.8338870
  91.7589257  98.1782039  47.7171532  92.6707113  98.4109426  47.5419230
  91.2498904  98.7619083  47.1546611  84.5674685 100.4577526  62.7560663
  85.3089369 100.9962570  62.4795487  83.8611671 101.0843815  62.9132215
  90.0430025 102.6006667  61.3532825  90.4513381 102.1589077  60.6087457
  89.3207286 102.0259294  61.6067018  86.3961095  97.5379273  58.7266382
  87.2422290  97.9618687  58.8701031  86.3359732  96.8812898  59.4204945
  90.3658839 103.1607857  55.1085114  89.7367702 103.3253571  54.4061182
  89.9784501 103.5749467  55.8796078  89.5460540  95.1983642  60.3847556
  89.3021472  95.9525702  59.8481831  89.8220471  95.5768989  61.2194803
  91.4999003 101.7422254  59.0624821  91.7115898 102.3854014  58.3859202
  91.4528751 100.9084571  58.5946751  89.1025232  94.3540075  55.9661393
  88.2409711  94.6521328  56.2578131  89.1287666  94.5710474  55.0342426
  85.9186801 102.8982265  52.3735199  86.3825147 103.1769968  51.5839821
  85.6543599 101.9965710  52.1908290  82.8110882 102.4453747  55.3114962
  83.3812239 102.8741015  54.6732447  83.4018994 102.1636332  56.0099148
  84.8555687  99.0205418  49.1824764  85.5579731  99.4726461  49.6498690
  84.5236316  98.3789237  49.8104657  83.3036049  97.6117174  63.5575973
  82.6734709  98.2933455  63.7911370  83.1972137  97.5000256  62.6129112
  78.5981021  97.2788970  54.4841898  77.8080075  97.5346499  54.0082008
  79.0892269  98.0937308  54.5893938  80.5495767  97.6433550  51.4425374
  79.7526930  97.7552244  51.9608870  80.3221359  97.9820202  50.5766265
  86.3801434 104.1678253  59.3907889  86.4445867 104.6298660  60.2266061
  85.6712358 103.5375618  59.5190199  76.8818724  97.5319461  56.9156888
  77.1326763  98.4166471  57.1814464  77.4178273  97.3524062  56.1431980
  86.0949452 105.8346360  49.2586869  85.9595127 106.6797896  49.6871717
  86.6359264 106.0365638  48.4952803  82.5816792  91.9137940  65.9201224
  82.1883737  91.3604139  66.5948869  83.3982932  92.2248519  66.3107742
  79.5478849 103.3521798  49.8314794  80.0603370 104.1465049  49.9820359
  80.2001562 102.6548089  49.7648396  81.3573734 106.4687555  51.9137548
  81.5340362 107.3905519  51.7258531  82.1530568 106.1545974  52.3431927
  85.4984753  93.3295819  63.5121481  86.2394466  93.9302972  63.4325944
  85.7302675  92.5873457  62.9539524  80.6426091  98.5152187  61.7899711
  80.5279606  97.6137444  62.0906810  79.7870608  98.7615883  61.4384527
  82.4805049 107.9865729  57.9147890  83.0312475 107.8582792  57.1424884
  81.6416525 108.2860618  57.5642783  86.2772220 104.2516856  62.2592121
  86.8100557 103.4905145  62.0291429  85.7486302 103.9590508  63.0016275
  89.4441915  89.3576922  57.7885763  89.1006185  90.2478564  57.7124873
  89.8120878  89.1678580  56.9255348  77.5127766 101.6810453  50.6074365
  78.3502988 102.0907461  50.3908073  77.6906034 100.7409895  50.5774559
  89.4092198  99.3485533  46.2958198  88.8938822 100.1190138  46.5346585
  89.1369507  98.6750670  46.9191259  86.9939309  94.1935234  51.3543436
  86.1380906  93.8042085  51.1749075  87.4066261  94.2727195  50.4943222
  88.5238456  91.7281577  55.7534996  88.0203251  91.6911713  54.9402801
  88.8169063  92.6374320  55.8131653  84.7681342  91.8120307  54.7601178
  85.6334339  91.6163116  54.4007067  84.8358851  91.5830659  55.6870534
  89.1978501  97.2212625  48.1217979  88.8928637  97.5358775  48.9728122
  90.1508943  97.2994045  48.1645312  87.6424933 103.3802849  49.7710933
  87.1146295 102.6455608  49.4584170  87.1412436 104.1577525  49.5250901
  92.6217779 101.5751869  54.8877979  91.9641454 102.2651131  54.9758108
  93.4258178 101.9648301  55.2311966  82.3743661  94.0422515  52.1317545
  82.9487413  93.8197697  51.3990737  82.9614643  94.1111210  52.8846146
  91.4323238  99.9296242  52.9381921  91.9455120 100.5626234  53.4403631
  92.0824462  99.3297437  52.5725281  82.7013248  96.0726976  46.1513430
  81.8650560  96.4101663  46.4722705  82.5618018  95.9375956  45.2140567
  84.6766329  90.9163764  50.8592614  84.0230741  90.6012781  50.2349229
  84.6346803  90.2939504  51.5852437  85.7877533 101.1983059  42.7745906
  84.8804595 100.9672313  42.9737055  86.2848565 100.4020678  42.9619888
  87.9104069  97.4045698  55.1840262  86.9926630  97.6260645  55.0261950
  88.3264213  97.4792008  54.3251969  88.6939117  98.8037113  50.3142942
  89.4410936  99.3158510  50.0050064  88.9630706  98.4821166  51.1747335
  86.9665767 101.2995654  47.2969896  86.0576986 101.0154687  47.3942366
  86.9960851 101.7194732  46.4373203  91.1417954  95.8394229  52.2961731
  90.4040711  95.3271616  52.6271974  91.3944727  95.3994611  51.4845008
  91.2429581  88.6170481  52.8903500  91.5488458  87.7567845  52.6029416
  91.9682186  89.2088102  52.6902494  77.5353937  99.0201168  51.2785098
  77.3378337  98.4270529  50.5536165  76.9800601  98.7153378  51.9961037
  85.5150661  98.9124275  53.3979691  85.5699271  97.9598111  53.3222168
  84.7041863  99.0683714  53.8820990  86.6641855 102.8404398  44.6357975
  86.2261285 102.1240257  44.1763612  87.4052295 103.0680512  44.0743066
  83.4543021  97.5301334  51.1570070  82.6410886  97.8295505  51.5635263
  83.9502015  97.1357023  51.8744553  85.6051599 107.5259091  53.0904335
  85.5627777 107.7519938  52.1612867  86.5214298 107.2922466  53.2390136
  89.0517232  97.9943159  59.9884964  89.4066620  98.2214632  60.8479430
  89.6989364  98.3261536  59.3662220  94.7814969 101.1161595  50.6934293
  94.6432868 101.3063191  49.7655483  94.4251188 101.8780977  51.1502344
  82.9457096  95.1019690  56.7731305  83.5856475  94.9608449  56.0754269
  82.1134626  94.8154203  56.3969907  83.7217399 104.4022120  52.8866298
  84.5157998 103.9072440  52.6848873  83.0109092 103.8739983  52.5234003
  80.0300163  98.5465202  48.9626050  79.0997751  98.4849657  49.1796013
  80.1257635  98.0241155  48.1662692  79.9485712  95.0720015  51.5504292
  80.2092529  95.9865348  51.4413453  80.7702884  94.6044457  51.7000905
  81.4210637  96.4857772  58.7203117  82.0933691  96.2775134  58.0715766
  80.5940424  96.2879858  58.2808349  87.3236209  93.1119713  60.7368778
  86.6764124  93.8109663  60.6433254  88.0937225  93.5455857  61.1045026
  90.7315007 103.3768565  63.8119331  90.5800514 103.1479117  62.8949414
  90.7219687 104.3339166  63.8250676  87.5000344 100.9500478  58.7965597
  88.4292404 101.1011637  58.6234565  87.0791374 101.0384499  57.9414244
  86.2988675 104.9751142  56.5664135  86.1599761 104.6069927  57.4390073
  85.5103272 105.4898782  56.3948093  87.8493891 104.3532745  53.9552973
  87.5143723 104.3133515  54.8510623  87.3497836 103.6877461  53.4823383
  81.8238135  99.7600375  59.4805554  81.6857932  99.0280614  60.0817093
  82.7343058  99.6709275  59.1989742  90.7853082 101.6988779  44.2290032
  90.1682253 100.9735607  44.1323085  90.3169571 102.4598140  43.8857107
  84.4520435  99.4720334  58.9689233  85.1620054  98.8313526  58.9275852
  84.4089743  99.7233229  59.8915414  83.1649369  96.4585552  60.7884873
  82.6286726  96.0076291  61.4406469  82.5766078  96.5931461  60.0455337
  82.5751628  95.9174204  43.3511337  81.6981094  95.7963004  42.9873583
  83.0509381  95.1260282  43.0990225  74.0953768 100.7051363  53.4452844
  74.7824808 100.3913093  52.8573859  73.9401897 101.6092728  53.1720095
  78.8988490  95.5941560  57.8737867  78.8146679  94.9867229  57.1388277
  78.0771197  96.0850578  57.8747364  89.0712204  94.0795123  53.2408062
  89.5680904  93.3265086  52.9209133  88.2999186  94.1159440  52.6751272
  90.1541985 102.8366811  50.8146486  89.2198264 102.9568273  50.6451190
  90.3318653 101.9339277  50.5506496  85.6547173  96.2212506  52.9679747
  85.2844961  95.6683547  53.6560653  86.1506265  95.6170640  52.4154747
  93.5414536  98.6784130  51.3496520  94.0074989  99.5112121  51.2756823
  93.9922037  98.2129111  52.0541779  83.4836372 106.6810001  60.0634765
  84.1845831 107.3146484  60.2164159  83.0131487 107.0224733  59.3030404
  91.5131199  91.0464717  55.3887421  90.5994279  91.2768944  55.5569628
  91.9424301  91.1303161  56.2401454  91.2837658  99.2354609  57.8887315
  90.6309108  99.4830516  57.2339768  91.6618037  98.4218747  57.5549793
  87.3325231  99.9774420  64.3753352  86.6565868  99.8768549  65.0455728
  88.1552864  99.8213634  64.8389350  79.0804090 106.2146356  56.9965868
  79.6657526 105.4690044  57.1293772  78.8828928 106.5250313  57.8802532
  81.9342745 109.2497604  52.0128310  81.2653120 109.7343731  51.5292350
  81.7955615 109.4966824  52.9271689  73.6721744  98.7851957  55.7170311
  73.7105844  98.2515547  56.5107429  73.1662037  98.2587162  55.0981288
  81.0512507  93.6316497  59.2132853  81.1153833  94.4931328  58.8010251
  80.9879627  93.0190499  58.4805212  80.5264779  95.7039630  62.8605887
  81.1536818  95.3216707  63.4743412  79.6692698  95.4853832  63.2261580
  77.3030322  97.5116059  48.7924242  77.5983763  96.6026737  48.7391296
  76.4018358  97.4903798  48.4705245  80.8324569  95.5872055  54.7751791
  80.1111155  96.2008023  54.6359264  81.6217825  96.1229820  54.6968437
  83.6350883  92.9226482  61.0492443  84.1585284  93.1688778  61.8118752
  83.4163216  93.7546517  60.6295580  79.0318164  95.1930156  48.9163567
  78.7030870  94.3127535  48.7338673  79.3857534  95.1377825  49.8039957
  82.1459987  95.4803126  49.2839045  82.4856059  96.0089048  48.5617653
  82.5932107  95.8183532  50.0597612  84.8403428  93.8640177  58.7342113
  84.5000248  93.0647990  59.1362793  84.1342434  94.1641888  58.1618946
  85.4919899  90.9489489  57.1869436  86.3145969  90.4749968  57.0648326
  85.7357963  91.7279973  57.6868122  84.1328134  93.9777748  47.4832338
  84.8536496  94.3559001  46.9796055  83.5093438  94.6966625  47.5867316
  88.2759257  94.6822897  48.4190670  88.4922871  95.5647535  48.1179498
  87.7953324  94.2909110  47.6896312  83.0158478  97.6408610  54.9961415
  82.8703059  97.9548913  55.8885696  82.5383682  98.2593510  54.4432313
  84.8754861  94.6311158  55.0442304  84.8616430  93.7352251  54.7074602
  85.5927289  94.6381822  55.6780590  86.7280992  95.0648498  57.0895432
  86.4698770  95.9865569  57.0879762  86.1966032  94.6678933  57.7795896
  77.4904140 100.1813954  57.9349076  76.9457608 100.9573762  58.0669350
  78.3683490 100.5284759  57.7768197  84.2791757  93.5125538  50.3129874
  84.4007668  92.5842184  50.5120762  83.9893799  93.5264224  49.4008190
  87.1482947  91.1980449  53.4496594  87.1704644  91.2619782  52.4948574
  87.5651006  90.3584957  53.6437100  78.2770162  99.3083851  60.8279233
  77.5351898  99.4566486  61.4143863  77.9562906  99.5692116  59.9645982
  78.7226776 107.1949279  52.8589627  79.5484796 106.8953051  52.4788271
  78.3720828 106.4256902  53.3079416  83.6908309 106.5475748  54.9287301
  83.0688318 105.8846453  54.6289529  84.3613176 106.5736880  54.2460949
  76.9235381 105.1135606  53.8178561  76.0867289 104.6857780  53.6362562
  76.8959026 105.3068049  54.7549352  83.7632836  95.0257536  64.5219807
  83.8120992  95.9019658  64.1397577  84.3055351  94.4834929  63.9491450
  83.2521816 105.0979671  48.4045762  83.4009936 105.7815135  47.7512434
  84.0588259 105.0784761  48.9195217  91.6589320  98.4022053  62.4312979
  92.5599182  98.2628518  62.1396977  91.7337294  98.5676508  63.3711157
  85.9932125  95.7788908  61.2766166  85.1235434  96.0722474  61.0048754
  86.2291605  96.3629353  61.9973429  94.1190942  99.9620681  59.8275752
  94.5945064 100.1548328  59.0194604  93.1956508 100.0179867  59.5819136
  81.0074449 101.1244849  49.4106830  80.7620491 100.2207179  49.6087041
  81.1770363 101.1261999  48.4686308  88.6971159  91.9968525  58.7931586
  89.2153103  92.7329552  58.4678075  88.3426292  92.3032518  59.6278345
  80.2770096  96.8573206  46.9092992  79.5839341  96.9317561  46.2533028
  80.0321848  96.0933550  47.4314509  88.9483753  88.4168808  54.3132483
  89.2285507  87.7491997  54.9392909  89.7334360  88.6097903  53.8007147
  92.8192611  96.8386442  58.0604058  93.7710034  96.9384539  58.0816282
  92.6496062  96.0464710  58.5702142  90.8406991  93.9242025  58.2463459
  90.2456923  94.2047037  57.5509947  90.5556687  94.4135926  59.0180200
  95.2980689 100.0592561  57.1746357  95.2657009  99.1208562  57.3606041
  95.9081313 100.1376598  56.4412182  87.1364020  98.9288614  43.2173561
  88.0823125  98.7994822  43.2861980  86.7578265  98.1903276  43.6942990
  95.4475178  96.8503605  57.2204641  94.9314226  96.0662061  57.0334570
  96.3315126  96.5222321  57.3851160  93.1085904  90.5944620  53.1800453
  92.9110726  90.2859708  54.0643785  93.7185610  91.3206259  53.3098383
  87.0202712 102.9806360  64.6774218  87.9405722 103.1584959  64.8714265
  86.9852296 102.0362406  64.5253918  85.3206937  96.8538591  43.1528447
  84.4138392  96.5571703  43.2291160  85.5982918  96.5568409  42.2862733
  76.2384877  98.1744954  53.6027493  75.9187662  97.3210262  53.3101867
  75.6918306  98.3893532  54.3585460  80.0164785 100.8907395  57.3197000
  80.2350795 101.8224503  57.3385033  80.4290559 100.5315369  58.1051803
  86.9369003  91.3975480  49.3072688  86.1269731  91.0522565  49.6827934
  87.6253420  91.0883024  49.8960300  88.8659551  90.4753527  50.9296985
  89.4190590  90.8948981  51.5887008  89.1029637  89.5489275  50.9719941
  84.8892650  96.4640601  66.7099749  84.7889377  97.4134958  66.6411840
  84.6714192  96.1358840  65.8375819  84.0905722  93.7125526  43.2940426
  84.9524886  94.0380424  43.5536243  84.2756066  92.9257022  42.7813492
  76.1073137 101.7947865  55.5720615  75.4136609 101.3801818  55.0590569
  76.8546128 101.8368402  54.9754034  92.2438358  92.5854052  50.4375649
  91.6637027  93.2438856  50.0553701  91.9774291  91.7631397  50.0263066
  90.6941925  91.9859110  52.6396969  91.1941703  92.0975645  51.8311288
  91.3377532  91.6820163  53.2797778  84.7523920  99.8937740  65.5264810
  84.2691002 100.6938100  65.7328699  84.8384859  99.9045684  64.5732254
  78.0209880 101.7266119  53.4486630  77.9980568 101.8253807  52.4968513
  78.3310516 102.5731270  53.7703796  80.6797258 103.7842274  57.5633244
  81.6340511 103.7526217  57.4963176  80.4809781 103.3232898  58.3783470
  81.2696640 102.3543390  60.1304042  82.0889529 102.8487469  60.1538879
  81.5433448 101.4375358  60.1021609  91.0263236  94.7454143  49.4931997
  90.1389091  95.0303793  49.2752192  91.4417225  94.5847906  48.6459274
  94.3777772  94.7700664  53.2086336  95.1538162  95.2597116  53.4810953
  93.6525907  95.1958718  53.6658206  96.8150331  95.4828283  54.2660277
  97.4094822  95.2424019  53.5553585  96.8876915  94.7635413  54.8933813
  79.0347487 109.3261894  54.5803442  78.9001955 108.5662295  54.0141440
  78.6179549 110.0502794  54.1132231  90.1706450 104.5098817  43.5880017
  90.8742300 104.7148820  44.2037673  89.4469098 105.0775579  43.8529101
  91.0004260 100.2608679  49.7082287  90.9439461 100.7177230  48.8689920
  91.5532602  99.4999363  49.5305130  94.8109066  96.0498410  50.5332407
  94.5546000  95.6495046  51.3640615  94.1861934  96.7642204  50.4082546
  99.1221404  98.7894484  53.0403698  98.5620962  98.8587673  53.8135260
  98.5164907  98.6135468  52.3203194  91.7339039 101.4513460  47.0034817
  91.6787843 101.2857731  46.0623261  91.1085095 102.1589493  47.1597006
  76.5231554  96.6881524  60.8296239  77.1690418  96.1780478  61.3183464
  76.3148705  97.4250206  61.4039664  89.0484946 103.7562372  66.3288379
  89.9176106 103.9303024  65.9675014  88.5691698 104.5756789  66.2064109
  85.0435165  90.9521569  46.5820135  85.0313835  91.8963409  46.7388406
  85.9358587  90.7691714  46.2879596  88.8587284  87.5464345  50.8366072
  88.0919680  86.9922832  50.9822754  89.2697989  87.6186214  51.6980223
  80.8629045  93.8349141  64.9271253  81.7260507  93.4785946  65.1374578
  80.2894456  93.4963036  65.6146657  35.6714896   0.4961614  42.4578961
  36.3093306   0.3768362  41.7542301  35.5535739   1.4442458  42.5166913
  32.4804603   0.4489042  42.3940485  32.1423114   0.3330107  41.5061020
  33.3494371   0.0480207  42.3741491  28.3391418   2.3024519  38.3837376
  27.7756284   2.2114456  37.6153664  28.2243813   1.4824423  38.8639869
  32.9624386   1.6023894  48.3526691  32.9513027   1.2076692  47.4807194
  33.1245025   0.8689967  48.9460462  25.8855850   3.7975710  41.2221597
  26.6777142   3.4566535  40.8067896  26.1252501   3.9070685  42.1423750
  33.9190977   5.9695486  33.6951841  33.2678957   6.5549567  33.3085855
  34.7135340   6.5001681  33.7546879  27.8446604   3.0584624  34.0938976
  28.6177480   2.5113611  33.9551851  28.1972003   3.9228873  34.3053437
  29.6831647   4.3861006  47.3005875  29.3921513   5.2906637  47.1852541
  30.3188631   4.4277533  48.0149944  30.6087854   1.7637854  43.8907234
  31.2051426   1.5393877  43.1764197  30.6662825   1.0222600  44.4932682
  30.1812882  -0.7822710  31.7257425  30.4338403  -1.3041189  30.9640888
  29.2437441  -0.9456565  31.8284109  35.2256165  -1.7786932  39.5332169
  36.0119254  -2.1967509  39.1822586  35.4894869  -0.8740840  39.7013817
  35.3966242   3.6585918  34.2320825  34.7612075   3.7320545  34.9441730
  35.0663649   4.2479517  33.5539905  40.6264592  -1.8411699  40.4365147
  41.3589764  -2.4112482  40.6702977  39.8703948  -2.2290098  40.8771653
  29.9009171   1.1205396  33.9281800  29.7845429   0.4450299  34.5962885
  30.0111431   0.6337770  33.1113953  32.2440712   0.5815543  37.6328490
  31.8798919   0.0546164  38.3441411  33.1007828   0.1914012  37.4594975
  38.1490012  -8.1290125  44.8959756  37.8173337  -7.2594714  44.6720971
  37.5535626  -8.4453841  45.5753786  31.8846199  -4.3894558  32.6289838
  32.0520601  -3.5214321  32.9960309  31.6943368  -4.2267276  31.7051127
  34.6421532   4.0722421  44.2955668  34.3422255   4.9747460  44.1871476
  34.2972591   3.8054605  45.1476821  28.0934013   0.5236218  40.3292373
  27.1684510   0.3912432  40.5370065  28.3418427   1.3030437  40.8262315
  38.0418676  -3.4095038  41.9753106  37.1335553  -3.4779630  41.6811867
  37.9906272  -2.9323094  42.8034931  31.8635420  -1.9336900  33.6136505
  31.7435045  -1.4879849  34.4521985  31.1688008  -1.5851582  33.0550043
  25.4542824   0.1669492  41.1636162  25.5835206   0.4203971  42.0775574
  24.7740276   0.7597200  40.8440817  29.6242312  10.8366742  37.2626636
  29.5466341  11.7874567  37.3415117  29.0203955  10.4912614  37.9201562
  32.1159542  -1.9905393  49.9188003  31.3392876  -1.4311473  49.9090868
  32.7550105  -1.5048610  50.4402873  39.9080322  -5.2078600  43.7530980
  39.2654702  -4.9146067  43.1070774  39.4035251  -5.3225680  44.5584176
  37.5620486  -1.4615427  34.4416839  38.4738342  -1.2288040  34.2664537
  37.0530133  -0.8778383  33.8791918  30.3705914   0.8180060  49.4805970
  31.1120598   1.3565104  49.2040794  29.6642899   1.4446349  49.6377522
  35.8461253   2.9609201  48.0778132  36.2544610   2.5191611  47.3332764
  35.1238515   2.3861828  48.3312324  32.1992324  -2.1018192  45.4511689
  33.0453519  -1.6778779  45.5946338  32.1390961  -2.7584568  46.1450252
  36.1690068   3.5210392  41.8330420  35.5398931   3.6856106  41.1306488
  35.7815730   3.9352001  42.6041384  40.0479300   4.4564829  39.1874784
  39.3630338   4.8363731  38.6371818  40.1323149   5.0660156  39.9206732
  35.3491769  -4.4413824  47.1092862  35.1052701  -3.6871763  46.5727138
  35.6251699  -4.0628476  47.9440109  37.3030232   2.1024788  45.7870128
  37.5147127   2.7456548  45.1104509  37.2559980   1.2687105  45.3192058
  34.9056461  -5.2857391  42.6906700  34.0440940  -4.9876137  42.9823437
  34.9318895  -5.0686992  41.7587733  31.7218030   3.2584800  39.0980506
  32.1856376   3.5372503  38.3085128  31.4574828   2.3568244  38.9153596
  28.6142111   2.8056281  42.0360269  29.1843468   3.2343550  41.3977753
  29.2050223   2.5238866  42.7344454  30.6586916  -0.6192048  35.9070071
  31.3610959  -0.1671004  36.3743997  30.3267545  -1.2608229  36.5349964
  29.1067278  -2.0280291  50.2821280  28.4765938  -1.3464011  50.5156677
  29.0003365  -2.1397210  49.3374418  38.4176060   4.9796744  43.9592485
  39.2393503   4.5776931  43.6775167  38.4138462   4.8764978  44.9108601
  32.1832663   4.5280787  46.1153196  32.2477096   4.9901194  46.9511367
  31.4743587   3.8978152  46.2435505  46.5082053   1.3235492  40.3077457
  45.7545761   0.7542890  40.1521461  46.6429594   1.2898157  41.2548091
  31.8980681   6.1948895  35.9832176  31.7626355   7.0400430  36.4117024
  32.4390493   6.3968172  35.2198110  25.3510078   3.7124333  36.5560101
  25.8634599   4.5067583  36.7065666  26.0032791   3.0150623  36.4893702
  27.1604963   6.8290089  38.6382854  27.3371591   7.7508054  38.4503838
  27.9561796   6.5148508  39.0677234  26.4457319  -1.1245279  48.5145017
  26.3310834  -2.0260022  48.8152116  25.5901837  -0.8781582  48.1629834
  33.5249157   6.8172461  50.1132518  33.0813011   6.0308840  49.7953422
  34.1866371   7.0051612  49.4476409  28.2836278   8.3468263  44.6393197
  28.8343703   8.2185326  43.8670190  27.4447754   8.6463152  44.2888089
  35.6230395   7.0975261  48.1413919  35.6048870   7.9184142  47.6494188
  36.5450315   6.9729336  48.3664060  32.0803449   4.6119391  48.9837428
  32.6131786   3.8507679  48.7536736  31.5517530   4.3193042  49.7261582
  23.3158995   2.0412987  37.3319672  24.1534217   2.4509995  37.1153379
  23.4937263   1.1012429  37.3019865  35.2123427  -0.2911932  33.0203504
  34.6970050   0.4792672  33.2591892  34.9400735  -0.9646796  33.6436566
  32.7970538  -5.4462232  38.0788743  31.9412134  -5.8355381  37.8994382
  33.2097490  -5.3670271  37.2188528  40.1857701   2.4620422  34.9556678
  39.4087144   2.1231582  34.5111840  40.8649182   2.4673045  34.2811643
  35.0009730  -2.4184840  34.8463286  34.6959866  -2.1038691  35.6973429
  35.9540172  -2.3403420  34.8890619  33.4456162   3.7405383  36.4956240
  32.9177524   3.0058143  36.1829477  32.9443665   4.5180059  36.2496208
  38.4249008   1.9354404  41.6123286  37.7672682   2.6253665  41.7003415
  39.2289407   2.3250835  41.9557272  37.2354467   0.2898776  39.6627228
  37.7486349   0.9228768  40.1648937  37.8855691  -0.3100028  39.2970588
  31.5908762   1.5585593  29.4991213  30.6835824   1.3274847  29.6982362
  32.0879794   0.7623213  29.6865194  34.4976841  10.2683100  32.4187899
  33.8238540  10.5714797  33.0272857  34.8842663  11.0712181  32.0693356
  33.7135298  -2.2351768  41.9085568  32.7957859  -2.0136821  41.7507256
  34.1295441  -2.1605458  41.0497276  34.4970345  -0.8360353  37.0388248
  35.2442164  -0.3238955  36.7295371  34.7661935  -1.1576300  37.8992642
  32.7696996   1.6598188  34.0215203  31.8608215   1.3757221  34.1187673
  32.7992079   2.0797267  33.1618510  38.0016263   5.2704778  37.7906370
  37.5478590   4.4295688  37.8471561  37.3710230   5.9066176  38.1281150
  36.9449183  -3.8003236  39.0207038  36.2071939  -4.3125850  39.3517280
  37.1975956  -4.2402855  38.2090315  36.4449202   7.1081274  38.7256188
  36.7372177   7.6686331  38.0068554  36.9547823   7.4009835  39.4809348
  31.3181890  -0.7273191  40.1224998  31.3730499  -1.6799355  40.0467475
  30.5073092  -0.5713752  40.6066297  32.4673083   3.2006932  31.3603281
  32.0292513   2.4842791  30.9008919  33.2083524   3.4283047  30.7988373
  29.2574250  -2.1096132  37.8815377  28.4442115  -1.8101961  38.2880569
  29.7533244  -2.5040443  38.5989859  31.4082827   7.8861625  39.8149642
  31.3659006   8.1122472  38.8858174  32.3245526   7.6525000  39.9635443
  34.8548461  -1.6454307  46.7130271  35.2097849  -1.4182834  47.5724737
  35.5020592  -1.3135930  46.0907526  40.5846198   1.4764129  37.4179600
  40.4464097   1.6665725  36.4900789  40.2282417   2.2383512  37.8747651
  40.6115578   3.5440656  42.4290871  41.0452084   3.4515945  43.2773925
  41.3247159   3.5198156  41.7910887  29.5248628   4.7624654  39.6111604
  30.3189227   4.2674975  39.4094179  28.8140321   4.2342518  39.2479310
  34.3443473   7.1442750  43.9623972  34.3980495   7.7133686  44.7301688
  33.4758254   7.3144635  43.5978009  41.4731127   3.5864357  44.9623757
  41.6667017   4.4910167  45.2083032  41.3731746   3.1271776  45.7962342
  33.1267438  -6.5277753  47.4614084  32.4795353  -5.8287803  47.3678561
  33.8968454  -6.0941609  47.8290332  36.5346236   3.7371099  50.5364637
  36.3831742   3.5081651  49.6194721  36.5250916   4.6941701  50.5495982
  33.3031572   1.3103012  45.5210904  34.2323632   1.4614172  45.3479871
  32.8822602   1.3987033  44.6659550  32.1019904   5.3353676  43.2909442
  31.9630990   4.9672461  44.1635380  31.3134500   5.8501316  43.1193399
  32.6968056  10.4362773  34.6334978  32.8719812   9.9650816  35.4480601
  32.0100844  11.0628539  34.8616239  33.6525119   4.7135279  40.6798279
  33.3174952   4.6736049  41.5755929  33.1529065   4.0479995  40.2068690
  27.6269363   0.1202909  46.2050860  27.4889161  -0.6116852  46.8062399
  28.5374287   0.0311809  45.9235048  36.5884311   2.0591313  30.9535339
  35.9713482   1.3338142  30.8568392  36.1200799   2.8200674  30.6102413
  30.2551664  -0.1677132  45.6934540  30.9651283  -0.8083939  45.6521159
  30.2120972   0.0835763  46.6160721  38.2438443   6.7690222  48.6141119
  38.1850989   6.0849442  47.9471702  38.6457961   7.5109212  48.1621745
  28.9680598  -3.1811914  47.5130180  28.4317955  -3.6321175  48.1651776
  28.3797306  -3.0466005  46.7700644  27.2629141  13.5852136  41.4074838
  27.5025740  14.2170660  42.0853857  26.4198338  13.2340176  41.6940197
  38.2455850   4.7329806  46.8455099  37.3582629   4.3955728  46.9681498
  38.8154401   4.0012837  47.0823864  31.7757003   9.3931258  43.8116342
  31.7027175  10.1986230  44.3235647  31.3334396   9.5923224  42.9864364
  31.5646783   8.6303028  37.3219164  30.7814305   9.1724708  37.4157388
  32.2639528   9.1477008  37.7213405  34.8743433  -5.5602342  39.9653369
  35.3712133  -6.3132380  39.6454439  34.1030415  -5.5238026  39.3996578
  42.7273190   0.1438023  41.6071661  42.7163067   1.0262739  41.2365594
  41.8590570  -0.2090426  41.4126198  34.2355687   9.2918092  45.9674501
  34.9483659   9.9265557  45.8950402  33.7445716   9.3881958  45.1514503
  35.9573214   3.1969345  37.5391793  35.0229493   3.3170807  37.3696497
  36.1349882   2.2941812  37.2751802  31.4578402  -3.4184959  39.6925054
  31.0876189  -3.9713919  40.3805959  31.9537494  -4.0226826  39.1400054
  39.3445765  -0.9613336  38.0741827  39.8106217  -0.1285344  38.0002129
  39.7953266  -1.4268354  38.7787085  29.2867600   7.0412536  46.7880072
  29.9877060   7.6749019  46.9409466  28.8162715   7.3827267  46.0275711
  37.4121996   5.3830485  35.0727979  37.6881840   5.2687080  35.9821853
  36.5426495   4.9847970  35.0340152  37.3162428  -8.5932749  42.1132728
  36.4025508  -8.3628522  42.2814935  37.7455529  -8.5094305  42.9646760
  37.0868886  -0.4042857  44.6132622  36.4340337  -0.1566950  43.9585075
  37.4649266  -1.2178719  44.2795099  34.0476060   9.6316836  38.7160792
  34.2298455   8.8138492  39.1788545  34.8709046   9.8484528  38.2785682
  34.3818226   8.5585021  35.9775841  34.9105992   8.0477476  35.3646003
  34.6446445   8.2427552  36.8421374  33.1356459   0.3376954  51.0998659
  32.4597096   0.2371083  51.7701034  33.9584093   0.1816168  51.5634656
  24.8835318   6.5748891  43.7211174  25.4688755   5.8292579  43.8539079
  24.6860157   6.8852847  44.6047838  27.7373974   9.6100138  38.7373617
  27.0684349  10.0946266  38.2537657  27.5986843   9.8569358  39.6516995
  31.8779242  11.6443882  45.3356275  32.4297550  11.8075503  46.1005360
  32.2185436  12.2348319  44.6636300  36.7290117   6.4705139  51.1904930
  37.2730021   7.0835097  50.6959884  36.1476961   7.0284717  51.7071943
  35.0147630   9.5925857  42.3219957  34.8898769   8.7915597  41.8130903
  35.6726721  10.0872050  41.8333927  37.0782538   7.3934877  43.9499507
  36.1312873   7.2740228  43.8777834  37.4265311   6.5057375  44.0325769
  34.0828971   7.1887593  40.1503860  33.9353934   6.2604301  40.3311430
  34.9082465   7.2107684  39.6660935  37.6863093   8.0116152  41.2368732
  38.6109641   7.8059013  41.0993183  37.5178396   7.7632553  42.1458074
  34.0790486  -4.9574569  35.1435977  34.2954100  -4.0749931  34.8424805
  33.5984553  -5.3488356  34.4141619  28.8189707  -1.9988856  41.7206721
  28.6734288  -1.6848553  42.6131003  28.3414911  -1.3803955  41.1677620
  32.5312221  -4.5748968  43.8140738  32.2729998  -3.6531897  43.8125069
  31.9997261  -4.9718533  44.5041203  37.4758409   8.5301820  36.5930824
  37.6495287   7.9648242  35.8404676  37.9687301   9.3302714  36.4110314
  23.2935369   0.5416489  44.6594383  22.7488837   1.3176297  44.7914657
  24.1714719   0.8887293  44.5013504  43.3297800   1.2938243  38.2121124
  43.7728946   0.5445568  37.8140247  42.4524311   1.2848379  37.8294856
  38.4633582   7.8468584  33.6927722  39.1584486   8.4675277  33.9115037
  38.8056732   6.9963935  33.9680100  40.3625005   5.2968290  35.2215053
  40.8876329   5.6355562  34.4964373  40.2747357   4.3615305  35.0378187
  32.0245054   9.2102363  47.3504929  32.3332180   8.9651510  48.2227629
  32.8220536   9.4149002  46.8623800  32.0465666  11.3640273  39.5810306
  31.6070656  10.8716651  40.2743163  32.7973783  10.8213240  39.3402381
  24.5258005   7.5551814  39.5834934  25.3516025   7.2555586  39.2033578
  24.1752057   6.7859436  40.0324723  29.4939538   6.9078282  41.6532608
  28.8719547   6.2448987  41.3534836  30.1644405   6.9339414  40.9706255
  22.7266610   5.4738140  40.5423868  21.8898518   5.0460314  40.3607869
  22.6990255   5.6670583  41.4794659  40.0518911   5.9301193  50.5266251
  39.2614455   5.9125332  49.9870750  39.8152266   6.4689487  51.2815287
  40.1716786   2.7793660  47.8398979  40.2214791   2.6143667  48.7814502
  40.0630709   1.9120919  47.4496860  29.0553045   5.4582205  35.1291068
  29.2041165   6.1417670  34.4757741  29.8619488   5.4387295  35.6440524
  37.4620548  -1.2375412  49.1558286  38.3630411  -1.3768948  48.8642284
  37.5368523  -1.0720958  50.0956463  31.7963354  -3.8608558  48.0011472
  30.9266663  -3.5674992  47.7294061  32.0322834  -3.2768113  48.7218736
  41.6734983   5.1990601  48.0841001  41.3819791   5.5620582  48.9204462
  41.0607114   4.4857609  47.9054333  42.8730665   2.7643481  40.6043571
  43.7077557   3.2033285  40.7681131  43.0089794   2.2882134  39.7851817
  39.9222171   0.3223216  46.5521059  40.3976293   0.5150862  45.7439910
  38.9987736   0.3782401  46.3064443  26.8105678   1.4847383  36.1352137
  26.5651720   0.5809713  36.3332347  26.9801592   1.4864533  35.1931615
  34.5002388  -7.6428941  45.5176893  35.0184331  -6.9067914  45.1923381
  34.1457520  -7.3364947  46.3523652  32.5548450   7.9530336  32.6002816
  31.9822417   8.5720523  32.1473288  33.1281244   8.5029697  33.1342738
  38.6223840  -2.8011024  44.7849364  39.5741263  -2.7012927  44.8061588
  38.4527291  -3.5932756  45.2947449  36.6438220  -5.7155441  44.9708765
  36.0488152  -5.4350428  44.2755254  36.3587916  -5.2261540  45.7425506
  35.7745710   8.2367486  33.7311398  36.7076383   8.1713047  33.9344273
  35.6868923   9.0723753  33.2725931  38.4033727   7.5533356  30.6915345
  38.3247358   7.2193220  31.5851103  39.2243393   8.0455124  30.6906818
  41.1011918   0.4195095  43.8991664  41.0688238  -0.5188904  44.0851348
  41.7112542   0.4979132  43.1657489  32.9395249  -0.7108852  29.9418868
  33.8854353  -0.8402643  30.0107286  32.5609494  -1.4494190  30.4188296
  41.2506406  -2.7893861  43.9449947  40.7345455  -3.5735404  43.7579876
  42.1346355  -3.1175145  44.1096467  46.9188468   1.4811102  43.0397701
  47.6491856   1.2196390  43.6005404  46.3095413   0.7439824  43.0799769
  45.0003765  -0.3781035  43.6372152  44.2736928  -0.5125070  43.0288644
  44.5851052  -0.0704207  44.4428870  32.8233941   3.3408895  51.4019525
  33.7436951   3.5187494  51.5959572  32.7883524   2.3964940  51.2499224
  25.8196014   1.2509929  44.0442306  26.0382024   2.1827037  44.0630340
  26.2321788   0.8917904  44.8297110  30.6923879  -3.1756865  53.4345055
  30.5920606  -2.2262508  53.3657146  30.4745421  -3.5038626  52.5621125
  21.9104366   2.1550400  42.2965921  21.2167838   1.7404352  41.7835876
  22.6577357   2.1970936  41.6999340  38.0469587  -7.0543414  37.1620956
  37.4668256  -6.3958609  36.7799008  37.7805520  -7.8766069  36.7508373
  36.4973153  -7.6538356  39.3642276  36.9972932  -7.5421821  38.5556595
  37.1408761  -7.9577303  40.0043084  30.5555149   0.2540274  52.2510117
  30.0722231   1.0540634  52.4574006  30.6416088   0.2648219  51.2977561
  23.8241109   2.0868653  40.1731936  23.8011797   2.1856341  39.2213819
  24.1341745   2.9333804  40.4949102  26.4828487   4.1444809  44.2878551
  27.4371740   4.1128751  44.2208482  26.2841010   3.6835432  45.1028777
  27.0727869   2.7145925  46.8549348  27.8920758   3.2090003  46.8784186
  27.3464677   1.7977893  46.8266916  36.8294465  -4.8943323  36.2177304
  35.9420320  -4.6093673  35.9997499  37.2448454  -5.0549560  35.3704581
  40.1809001  -4.8696802  39.9331643  40.9569391  -4.3800350  40.2056260
  39.4557135  -4.4438748  40.3903513  42.6181560  -4.1569183  40.9905584
  43.2126051  -4.3973447  40.2798892  42.6908143  -4.8762052  41.6179120
  24.8378715   9.6864428  41.3048749  24.7033183   8.9264829  40.7386747
  24.4210778  10.4105328  40.8377537  35.9737678   4.8701352  30.3125324
  36.6773529   5.0751354  30.9282979  35.2500327   5.4378113  30.5774407
  36.8035489   0.6211213  36.4327594  36.7470690   1.0779764  35.5935226
  37.3563831  -0.1398103  36.2550437  40.6140295  -3.5899055  37.2577713
  40.3577229  -3.9902420  38.0885921  39.9893163  -2.8755261  37.1327853
  44.9252633  -0.8502982  39.7649005  44.3652190  -0.7809793  40.5380567
  44.3196136  -1.0261997  39.0448501  27.9947841  10.5833745  41.5167191
  27.8780225  11.5279178  41.4145881  27.1740288  10.2807307  41.9052990
  37.8824376   5.3083881  32.3623784  38.7169980   4.8765079  32.1801259
  37.7208719   5.1365894  33.2900678  37.5370268   1.8115994  33.7280123
  37.4819072   1.6460265  32.7868567  36.9116323   2.5192027  33.8842313
  34.8516175   4.1164906  53.0533686  35.7207335   4.2905558  52.6920321
  34.3722927   4.9359323  52.9309415  29.0202355  11.2362007  44.7323120
  29.9229602  11.2685617  45.0489615  28.7939726  10.3062458  44.7469455
  30.7755957   9.9892993  41.3933198  29.8251588   9.9894855  41.2797570
  31.0788444   9.2425728  40.8769233  46.5108651  15.8253532  42.4578961
  47.1487061  15.7060279  41.7542301  46.3929494  16.7734376  42.5166913
  43.3198357  15.7780960  42.3940485  42.9816869  15.6622025  41.5061020
  44.1888125  15.3772125  42.3741491  39.1785173  17.6316436  38.3837376
  38.6150038  17.5406373  37.6153664  39.0637568  16.8116341  38.8639869
  43.8018140  16.9315812  48.3526691  43.7906781  16.5368610  47.4807194
  43.9638780  16.1981884  48.9460462  36.7249605  19.1267628  41.2221597
  37.5170897  18.7858453  40.8067896  36.9646255  19.2362603  42.1423750
  44.7584732  21.2987404  33.6951841  44.1072711  21.8841484  33.3085855
  45.5529094  21.8293599  33.7546879  38.6840359  18.3876541  34.0938976
  39.4571235  17.8405528  33.9551851  39.0365758  19.2520791  34.3053437
  40.5225401  19.7152923  47.3005875  40.2315267  20.6198554  47.1852541
  41.1582386  19.7569451  48.0149944  41.4481608  17.0929772  43.8907234
  42.0445180  16.8685794  43.1764197  41.5056580  16.3514517  44.4932682
  41.0206637  14.5469207  31.7257425  41.2732157  14.0250729  30.9640888
  40.0831196  14.3835353  31.8284109  46.0649919  13.5504986  39.5332169
  46.8513009  13.1324409  39.1822586  46.3288624  14.4551078  39.7013817
  46.2359997  18.9877836  34.2320825  45.6005830  19.0612463  34.9441730
  45.9057403  19.5771435  33.5539905  51.4658347  13.4880219  40.4365147
  52.1983519  12.9179436  40.6702977  50.7097702  13.1001819  40.8771653
  40.7402925  16.4497313  33.9281800  40.6239183  15.7742217  34.5962885
  40.8505185  15.9629687  33.1113953  43.0834466  15.9107460  37.6328490
  42.7192674  15.3838081  38.3441411  43.9401582  15.5205929  37.4594975
  48.9883767   7.2001793  44.8959756  48.6567092   8.0697204  44.6720971
  48.3929380   6.8838077  45.5753786  42.7239953  10.9397360  32.6289838
  42.8914356  11.8077596  32.9960309  42.5337122  11.1024642  31.7051127
  45.4815286  19.4014339  44.2955668  45.1816010  20.3039378  44.1871476
  45.1366346  19.1346522  45.1476821  38.9327768  15.8528136  40.3292373
  38.0078264  15.7204350  40.5370065  39.1812181  16.6322355  40.8262315
  48.8812430  11.9196879  41.9753106  47.9729308  11.8512288  41.6811867
  48.8300026  12.3968824  42.8034931  42.7029174  13.3955018  33.6136505
  42.5828799  13.8412068  34.4521985  42.0081763  13.7440335  33.0550043
  36.2936579  15.4961409  41.1636162  36.4228960  15.7495888  42.0775574
  35.6134030  16.0889117  40.8440817  40.4636066  26.1658659  37.2626636
  40.3860096  27.1166484  37.3415117  39.8597710  25.8204532  37.9201562
  42.9553296  13.3386525  49.9188003  42.1786630  13.8980445  49.9090868
  43.5943859  13.8243308  50.4402873  50.7474077  10.1213318  43.7530980
  50.1048457  10.4145851  43.1070774  50.2429005  10.0066238  44.5584176
  48.4014240  13.8676491  34.4416839  49.3132096  14.1003878  34.2664537
  47.8923887  14.4513535  33.8791918  41.2099668  16.1471978  49.4805970
  41.9514353  16.6857022  49.2040794  40.5036654  16.7738267  49.6377522
  46.6855008  18.2901119  48.0778132  47.0938364  17.8483529  47.3332764
  45.9632269  17.7153746  48.3312324  43.0386078  13.2273725  45.4511689
  43.8847273  13.6513139  45.5946338  42.9784716  12.5707350  46.1450252
  47.0083823  18.8502309  41.8330420  46.3792685  19.0148023  41.1306488
  46.6209485  19.2643919  42.6041384  50.8873055  19.7856747  39.1874784
  50.2024093  20.1655648  38.6371818  50.9716904  20.3952074  39.9206732
  46.1885523  10.8878094  47.1092862  45.9446455  11.6420154  46.5727138
  46.4645454  11.2663441  47.9440109  48.1423986  17.4316706  45.7870128
  48.3540881  18.0748466  45.1104509  48.0953734  16.5979023  45.3192058
  45.7450215  10.0434527  42.6906700  44.8834694  10.3415780  42.9823437
  45.7712650  10.2604926  41.7587733  42.5611785  18.5876717  39.0980506
  43.0250130  18.8664420  38.3085128  42.2968583  17.6860162  38.9153596
  39.4535866  18.1348199  42.0360269  40.0237223  18.5635467  41.3977753
  40.0443977  17.8530784  42.7344454  41.4980671  14.7099870  35.9070071
  42.2004714  15.1620913  36.3743997  41.1661299  14.0683689  36.5349964
  39.9461032  13.3011626  50.2821280  39.3159693  13.9827907  50.5156677
  39.8397120  13.1894708  49.3374418  35.2406005  12.9683422  41.2087204
  34.4505059  13.2240951  40.7327315  35.7317252  13.7831760  41.3139245
  49.2569814  20.3088662  43.9592485  50.0787258  19.9068849  43.6775167
  49.2532217  20.2056896  44.9108601  37.1920750  13.3328002  38.1670681
  36.3951913  13.4446696  38.6854177  36.9646342  13.6714654  37.3011571
  43.0226418  19.8572705  46.1153196  43.0870850  20.3193112  46.9511367
  42.3137341  19.2270070  46.2435505  33.5243708  13.2213913  43.6402195
  33.7751746  14.1060923  43.9059771  34.0603256  13.0418514  42.8677287
  57.3475807  16.6527410  40.3077457  56.5939516  16.0834808  40.1521461
  57.4823348  16.6190074  41.2548091  42.7374435  21.5240812  35.9832176
  42.6020110  22.3692348  36.4117024  43.2784248  21.7260090  35.2198110
  39.2241775   7.6032392  52.6446531  38.8308720   7.0498591  53.3194175
  40.0407915   7.9142971  53.0353049  36.1903833  19.0416250  36.5560101
  36.7028353  19.8359501  36.7065666  36.8426545  18.3442541  36.4893702
  37.9998717  22.1582007  38.6382854  38.1765346  23.0799971  38.4503838
  38.7955551  21.8440426  39.0677234  42.1409736   9.0190271  50.2366788
  42.8819449   9.6197424  50.1571250  42.3727659   8.2767909  49.6784830
  37.2851074  14.2046639  48.5145017  37.1704589  13.3031896  48.8152116
  36.4295592  14.4510335  48.1629834  44.3642912  22.1464379  50.1132518
  43.9206766  21.3600757  49.7953422  45.0260125  22.3343529  49.4476409
  39.1230033  23.6760180  44.6393197  39.6737458  23.5477244  43.8670190
  38.2841509  23.9755069  44.2888089  46.4624150  22.4267179  48.1413919
  46.4442625  23.2476060  47.6494188  47.3844070  22.3021254  48.3664060
  42.9197204  19.9411308  48.9837428  43.4525541  19.1799596  48.7536736
  42.3911285  19.6484960  49.7261582  46.0866899   5.0471374  44.5131069
  45.7431168   5.9373016  44.4370180  46.4545861   4.8573032  43.6500654
  34.1552749  17.3704905  37.3319672  34.9927971  17.7801913  37.1153379
  34.3331017  16.4304347  37.3019865  46.0517181  15.0379985  33.0203504
  45.5363805  15.8084590  33.2591892  45.7794490  14.3645121  33.6436566
  43.6364293   9.8829686  38.0788743  42.7805889   9.4936536  37.8994382
  44.0491244   9.9621647  37.2188528  45.1663439   7.4176029  42.4780303
  44.6628235   7.3806164  41.6648108  45.4594046   8.3268772  42.5376959
  41.4106325   7.5014759  41.4846484  42.2759322   7.3057568  41.1252374
  41.4783834   7.2725111  42.4115841  51.0251456  17.7912340  34.9556678
  50.2480898  17.4523499  34.5111840  51.7042937  17.7964963  34.2811643
  45.8403485  12.9107077  34.8463286  45.5353620  13.2253227  35.6973429
  46.7933927  12.9888497  34.8890619  44.2849916  19.0697301  36.4956240
  43.7571278  18.3350060  36.1829477  43.7837419  19.8471977  36.2496208
  49.2642763  17.2646321  41.6123286  48.6066437  17.9545583  41.7003415
  50.0683162  17.6542753  41.9557272  39.0168644   9.7316967  38.8562851
  39.5912396   9.5092148  38.1236044  39.6039627   9.8005661  39.6091452
  48.0748221  15.6190694  39.6627228  48.5880103  16.2520686  40.1648937
  48.7249445  15.0191889  39.2970588  39.3438231  11.7621428  32.8758736
  38.5075543  12.0996115  33.1968011  39.2043001  11.6270408  31.9385873
  41.3191312   6.6058216  37.5837921  40.6655724   6.2907233  36.9594535
  41.2771786   5.9833956  38.3097744  42.4302517  16.8877511  29.4991213
  41.5229578  16.6566764  29.6982362  42.9273549  16.0915130  29.6865194
  45.3370596  25.5975018  32.4187899  44.6632294  25.9006715  33.0272857
  45.7236418  26.4004098  32.0693356  44.5529052  13.0940149  41.9085568
  43.6351614  13.3155096  41.7507256  44.9689196  13.1686460  41.0497276
  45.3364100  14.4931565  37.0388248  46.0835919  15.0052962  36.7295371
  45.6055689  14.1715618  37.8992642  43.6090750  16.9890106  34.0215203
  42.7001969  16.7049139  34.1187673  43.6385834  17.4089184  33.1618510
  48.8410018  20.5996695  37.7906370  48.3872345  19.7587605  37.8471561
  48.2103984  21.2358094  38.1281150  47.7842937  11.5288681  39.0207038
  47.0465694  11.0166068  39.3517280  48.0369711  11.0889063  38.2090315
  47.2842957  22.4373192  38.7256188  47.5765931  22.9978249  38.0068554
  47.7941577  22.7301753  39.4809348  47.8854564   4.3064933  39.6148807
  48.1913441   3.4462297  39.3274722  48.6107169   4.8982554  39.4147801
  34.1778920  14.7095620  38.0030405  33.9803320  14.1164981  37.2781472
  33.6225584  14.4047830  38.7206344  42.1575644  14.6018726  40.1224998
  42.2124254  13.6492563  40.0467475  41.3466846  14.7578166  40.6066297
  43.3066838  18.5298849  31.3603281  42.8686268  17.8134708  30.9008919
  44.0477279  18.7574964  30.7988373  40.0968004  13.2195786  37.8815377
  39.2835870  13.5189957  38.2880569  40.5926998  12.8251475  38.5989859
  42.2476582  23.2153543  39.8149642  42.2052761  23.4414389  38.8858174
  43.1639281  22.9816918  39.9635443  45.6942216  13.6837611  46.7130271
  46.0491603  13.9109084  47.5724737  46.3414347  14.0155987  46.0907526
  51.4239953  16.8056047  37.4179600  51.2857851  16.9957643  36.4900789
  51.0676172  17.5675429  37.8747651  39.5882079  10.7914142  43.4976612
  40.2281458  10.6502901  42.7999575  38.7559609  10.5048655  43.1215214
  51.4509332  18.8732574  42.4290871  51.8845839  18.7807863  43.2773925
  52.1640913  18.8490074  41.7910887  40.3642383  20.0916572  39.6111604
  41.1582981  19.5966892  39.4094179  39.6534075  19.5634435  39.2479310
  45.1837227  22.4734668  43.9623972  45.2374249  23.0425604  44.7301688
  44.3152009  22.6436553  43.5978009  36.6725146  14.2359654  35.6871357
  35.7422734  14.1744109  35.9041319  36.7682618  13.7135607  34.8907998
  36.5910695  10.7614467  38.2749599  36.8517513  11.6759800  38.1658759
  37.4127868  10.2938909  38.4246212  38.0635621  12.1752224  45.4448423
  38.7358674  11.9669586  44.7961072  37.2365407  11.9774310  45.0053656
  52.3124882  18.9156274  44.9623757  52.5060772  19.8202085  45.2083032
  52.2125500  18.4563693  45.7962342  43.9661193   8.8014165  47.4614084
  43.3189108   9.5004114  47.3678561  44.7362208   9.2350309  47.8290332
  47.3739991  19.0663017  50.5364637  47.2225497  18.8373569  49.6194721
  47.3644670  20.0233618  50.5495982  44.1425327  16.6394930  45.5210904
  45.0717387  16.7906089  45.3479871  43.7216357  16.7278950  44.6659550
  42.9413659  20.6645594  43.2909442  42.8024744  20.2964379  44.1635380
  42.1528255  21.1793234  43.1193399  43.5361811  25.7654691  34.6334978
  43.7113566  25.2942734  35.4480601  42.8494599  26.3920457  34.8616239
  44.4918874  20.0427197  40.6798279  44.1568706  20.0027967  41.5755929
  43.9922820  19.3771913  40.2068690  38.4663118  15.4494827  46.2050860
  38.3282916  14.7175066  46.8062399  39.3768041  15.3603727  45.9235048
  47.4278066  17.3883231  30.9535339  46.8107236  16.6630059  30.8568392
  46.9594554  18.1492591  30.6102413  41.0945418  15.1614786  45.6934540
  41.8045037  14.5207978  45.6521159  41.0514727  15.4127681  46.6160721
  49.0832197  22.0982139  48.6141119  49.0244743  21.4141360  47.9471702
  49.4851716  22.8401130  48.1621745  39.8074352  12.1480004  47.5130180
  39.2711709  11.6970742  48.1651776  39.2191061  12.2825913  46.7700644
  38.1022896  28.9144053  41.4074838  38.3419494  29.5462577  42.0853857
  37.2592092  28.5632093  41.6940197  39.2176611  11.6068655  30.0756643
  38.3406078  11.4857456  29.7118890  39.6934364  10.8154734  29.8235532
  49.0849604  20.0621723  46.8455099  48.1976383  19.7247645  46.9681498
  49.6548156  19.3304755  47.0823864  30.7378752  16.3945815  40.1698150
  31.4249791  16.0807545  39.5819166  30.5826880  17.2987180  39.8965402
  35.5413474  11.2836012  44.5983174  35.4571662  10.6761681  43.8633584
  34.7196180  11.7745030  44.5992670  42.6150758  24.7223176  43.8116342
  42.5420929  25.5278147  44.3235647  42.1728151  24.9215142  42.9864364
  42.4040537  23.9594946  37.3219164  41.6208059  24.5016626  37.4157388
  43.1033283  24.4768925  37.7213405  45.7137188   9.7689575  39.9653369
  46.2105887   9.0159538  39.6454439  44.9424169   9.8053892  39.3996578
  53.5666945  15.4729941  41.6071661  53.5556821  16.3554656  41.2365594
  52.6984324  15.1201492  41.4126198  45.0749441  24.6210010  45.9674501
  45.7877414  25.2557475  45.8950402  44.5839470  24.7173876  45.1514503
  46.7966968  18.5261262  37.5391793  45.8623247  18.6462725  37.3696497
  46.9743637  17.6233729  37.2751802  42.2972156  11.9106958  39.6925054
  41.9269944  11.3577999  40.3805959  42.7931249  11.3065092  39.1400054
  50.1839520  14.3678582  38.0741827  50.6499972  15.2006573  38.0002129
  50.6347020  13.9023563  38.7787085  40.1261355  22.3704453  46.7880072
  40.8270814  23.0040936  46.9409466  39.6556470  22.7119185  46.0275711
  48.2515751  20.7122403  35.0727979  48.5275595  20.5978998  35.9821853
  47.3820249  20.3139888  35.0340152  48.1556182   6.7359169  42.1132728
  47.2419262   6.9663396  42.2814935  48.5849284   6.8197613  42.9646760
  47.9262641  14.9249061  44.6132622  47.2734091  15.1724968  43.9585075
  48.3043021  14.1113199  44.2795099  44.8869815  24.9608754  38.7160792
  45.0692209  24.1430410  39.1788545  45.7102801  25.1776446  38.2785682
  45.2211980  23.8876939  35.9775841  45.7499747  23.3769394  35.3646003
  45.4840200  23.5719469  36.8421374  43.9750214  15.6668872  51.0998659
  43.2990851  15.5663001  51.7701034  44.7977848  15.5108086  51.5634656
  35.7229073  21.9040808  43.7211174  36.3082510  21.1584496  43.8539079
  35.5253911  22.2144765  44.6047838  38.5767728  24.9392056  38.7373617
  37.9078103  25.4238183  38.2537657  38.4380598  25.1861276  39.6516995
  30.3146728  14.4746409  42.4415618  30.3530827  13.9409999  43.2352736
  29.8087021  13.9481614  41.8226595  42.7172997  26.9735799  45.3356275
  43.2691305  27.1367421  46.1005360  43.0579190  27.5640237  44.6636300
  37.6937490   9.3210949  45.9378160  37.7578816  10.1825780  45.5255557
  37.6304610   8.7084951  45.2050518  37.1689763  11.3934082  49.5851194
  37.7961801  11.0111159  50.1988718  36.3117681  11.1748284  49.9506887
  47.5683871  21.7997057  51.1904930  48.1123775  22.4127015  50.6959884
  46.9870716  22.3576635  51.7071943  33.9455305  13.2010511  35.5169549
  34.2408746  12.2921189  35.4636603  33.0443341  13.1798250  35.1950551
  45.8541384  24.9217775  42.3219957  45.7292523  24.1207515  41.8130903
  46.5120475  25.4163968  41.8333927  37.4749552  11.2766507  41.4997097
  36.7536138  11.8902475  41.3604571  38.2642808  11.8124272  41.4213743
  47.9176292  22.7226795  43.9499507  46.9706628  22.6032146  43.8777834
  48.2659066  21.8349293  44.0325769  40.2775866   8.6120934  47.7737749
  40.8010268   8.8583230  48.5364059  40.0588199   9.4440969  47.3540887
  35.6743147  10.8824608  35.6408874  35.3455853  10.0021987  35.4583980
  36.0282518  10.8272277  36.5285263  44.9222726  22.5179511  40.1503860
  44.7747688  21.5896218  40.3311430  45.7476219  22.5399602  39.6660935
  38.7884970  11.1697578  36.0084352  39.1281043  11.6983499  35.2862960
  39.2357090  11.5077984  36.7842918  48.5256848  23.3408070  41.2368732
  49.4503395  23.1350931  41.0993183  48.3572151  23.0924471  42.1458074
  41.4828411   9.5534629  45.4587420  41.1425231   8.7542442  45.8608100
  40.7767417   9.8536340  44.8864253  42.1344883   6.6383941  43.9114743
  42.9570952   6.1644419  43.7893633  42.3782946   7.4174425  44.4113429
  40.7753117   9.6672200  34.2077644  41.4961480  10.0453453  33.7041361
  40.1518421  10.3861077  34.3112622  44.9184240  10.3717349  35.1435977
  45.1347854  11.2541987  34.8424805  44.4378307   9.9803562  34.4141619
  39.6583461  13.3303062  41.7206721  39.5128042  13.6443365  42.6131003
  39.1808665  13.9487962  41.1677620  41.5179844  10.3205610  41.7687611
  41.5041413   9.4246703  41.4319909  42.2352272  10.3276274  42.4025897
  43.3705975  10.7542950  43.8140738  43.1123753  11.6760021  43.8125069
  42.8391015  10.3573385  44.5041203  48.3152164  23.8593737  36.5930824
  48.4889041  23.2940160  35.8404676  48.8081055  24.6594632  36.4110314
  34.1329124  15.8708406  44.6594383  33.5882592  16.6468214  44.7914657
  35.0108473  16.2179211  44.5013504  40.9216740   9.2019990  37.0375181
  41.0432651   8.2736636  37.2366069  40.6318783   9.2158676  36.1253497
  43.7907931   6.8874901  40.1741901  43.8129627   6.9514234  39.2193880
  44.2075990   6.0479409  40.3682407  54.1691555  16.6230160  38.2121124
  54.6122701  15.8737485  37.8140247  53.2918065  16.6140297  37.8294856
  49.3027336  23.1760502  33.6927722  49.9978241  23.7967194  33.9115037
  49.6450486  22.3255853  33.9680100  34.9195145  14.9978303  47.5524539
  34.1776881  15.1460938  48.1389170  34.5987890  15.2586568  46.6891289
  51.2018759  20.6260207  35.2215053  51.7270083  20.9647480  34.4964373
  51.1141112  19.6907223  35.0378187  42.8638808  24.5394281  47.3504929
  43.1725935  24.2943428  48.2227629  43.6614290  24.7440919  46.8623800
  42.8859420  26.6932190  39.5810306  42.4464410  26.2008569  40.2743163
  43.6367537  26.1505158  39.3402381  35.3651759  22.8843731  39.5834934
  36.1909779  22.5847503  39.2033578  35.0145811  22.1151354  40.0324723
  40.3333292  22.2370200  41.6532608  39.7113302  21.5740905  41.3534836
  41.0038159  22.2631331  40.9706255  33.5660364  20.8030058  40.5423868
  32.7292272  20.3752232  40.3607869  33.5384010  20.9962501  41.4794659
  40.4057820  10.7151988  51.2465114  40.4545975  11.5914110  50.8642883
  40.9480334  10.1729381  50.6736757  50.8912665  21.2593111  50.5266251
  50.1008209  21.2417250  49.9870750  50.6546020  21.7981405  51.2815287
  51.0110541  18.1085577  47.8398979  51.0608545  17.9435585  48.7814502
  50.9024464  17.2412836  47.4496860  39.8946799  20.7874123  35.1291068
  40.0434920  21.4709587  34.4757741  40.7013243  20.7679213  35.6440524
  48.3014303  14.0916505  49.1558286  49.2024166  13.9522970  48.8642284
  48.3762277  14.2570960  50.0956463  42.6357108  11.4683360  48.0011472
  41.7660418  11.7616926  47.7294061  42.8716589  12.0523805  48.7218736
  52.5128737  20.5282519  48.0841001  52.2213546  20.8912499  48.9204462
  51.9000869  19.8149527  47.9054333  53.7124420  18.0935398  40.6043571
  54.5471311  18.5325203  40.7681131  53.8483548  17.6174052  39.7851817
  50.7615926  15.6515133  46.5521059  51.2370047  15.8442780  45.7439910
  49.8381491  15.7074319  46.3064443  37.6499432  16.8139301  36.1352137
  37.4045474  15.9101631  36.3332347  37.8195347  16.8156451  35.1931615
  45.3396142   7.6862977  45.5176893  45.8578086   8.4224004  45.1923381
  44.9851275   7.9926970  46.3523652  36.9195080  12.5467658  33.6338299
  36.2264325  12.6212013  32.9778335  36.6746832  11.7828002  34.1559816
  45.5908736   4.1063259  41.0377789  45.8710490   3.4386448  41.6638216
  46.3759343   4.2992355  40.5252453  43.3942205  23.2822253  32.6002816
  42.8216172  23.9012440  32.1473288  43.9674998  23.8321615  33.1342738
  49.4617595  12.5280893  44.7849364  50.4135017  12.6278991  44.8061588
  49.2921045  11.7359162  45.2947449  47.4831974   9.6136477  44.9708765
  46.8881906   9.8941489  44.2755254  47.1981671  10.1030378  45.7425506
  46.6139465  23.5659403  33.7311398  47.5470138  23.5004965  33.9344273
  46.5262677  24.4015670  33.2725931  49.2427481  22.8825274  30.6915345
  49.1641113  22.5485137  31.5851103  50.0637148  23.3747042  30.6906818
  51.9405672  15.7487013  43.8991664  51.9081992  14.8103014  44.0851348
  52.5506296  15.8271050  43.1657489  43.7789003  14.6183066  29.9418868
  44.7248108  14.4889274  30.0107286  43.4003248  13.8797728  30.4188296
  52.0900161  12.5398057  43.9449947  51.5739209  11.7556513  43.7579876
  52.9740109  12.2116773  44.1096467  49.7510888   6.2839072  39.9045760
  49.5535709   5.9754160  40.7889092  50.3610593   7.0100711  40.0343690
  57.7582222  16.8103020  43.0397701  58.4885611  16.5488308  43.6005404
  57.1489168  16.0731742  43.0799769  55.8397519  14.9510883  43.6372152
  55.1130683  14.8166847  43.0288644  55.4244806  15.2587711  44.4428870
  43.6627696  18.6700812  51.4019525  44.5830705  18.8479411  51.5959572
  43.6277279  17.7256858  51.2499224  41.9631920  12.5433042  29.8773753
  41.0563376  12.2466155  29.9536467  42.2407901  12.2462861  29.0108040
  32.8809861  13.8639406  40.3272800  32.5612645  13.0104714  40.0347174
  32.3343289  14.0787984  41.0830767  36.6589768  16.5801847  44.0442306
  36.8775778  17.5118955  44.0630340  37.0715542  16.2209821  44.8297110
  43.5793986   7.0869932  36.0317995  42.7694714   6.7417017  36.4073241
  44.2678403   6.7777476  36.6205606  45.5084534   6.1647979  37.6542291
  46.0615573   6.5843432  38.3132314  45.7454621   5.2383727  37.6965247
  41.5317634  12.1535053  53.4345055  41.4314361  13.1029410  53.3657146
  41.3139176  11.8253292  52.5621125  40.7330705   9.4019978  30.0185733
  41.5949869   9.7274876  30.2781550  40.9181049   8.6151474  29.5058798
  32.7498121  17.4842317  42.2965921  32.0561592  17.0696270  41.7835876
  33.4971112  17.5262854  41.6999340  48.8863341   8.2748504  37.1620956
  48.3062011   8.9333308  36.7799008  48.6199274   7.4525849  36.7508373
  47.3366908   7.6753562  39.3642276  47.8366686   7.7870096  38.5556595
  47.9802516   7.3714615  40.0043084  41.3948904  15.5832191  52.2510117
  40.9115985  16.3832552  52.4574006  41.4809843  15.5940136  51.2977561
  34.6634863  17.4160571  40.1731936  34.6405551  17.5148258  39.2213819
  34.9735500  18.2625722  40.4949102  37.3222241  19.4736726  44.2878551
  38.2765495  19.4420669  44.2208482  37.1234765  19.0127350  45.1028777
  37.9121623  18.0437842  46.8549348  38.7314512  18.5381921  46.8784186
  38.1858431  17.1269810  46.8266916  47.6688219  10.4348595  36.2177304
  46.7814075  10.7198245  35.9997499  48.0842209  10.2742358  35.3704581
  51.0202756  10.4595116  39.9331643  51.7963146  10.9491568  40.2056260
  50.2950890  10.8853170  40.3903513  53.4575314  11.1722735  40.9905584
  54.0519805  10.9318471  40.2798892  53.5301898  10.4529865  41.6179120
  35.6772470  25.0156346  41.3048749  35.5426938  24.2556747  40.7386747
  35.2604532  25.7397246  40.8377537  46.8131433  20.1993269  30.3125324
  47.5167283  20.4043272  30.9282979  46.0894082  20.7670031  30.5774407
  47.6429243  15.9503130  36.4327594  47.5864445  16.4071682  35.5935226
  48.1957586  15.1893815  36.2550437  51.4534049  11.7392862  37.2577713
  51.1970983  11.3389498  38.0885921  50.8286917  12.4536656  37.1327853
  55.7646387  14.4788936  39.7649005  55.2045945  14.5482125  40.5380567
  55.1589890  14.3029920  39.0448501  38.8341596  25.9125663  41.5167191
  38.7173980  26.8571095  41.4145881  38.0134042  25.6099224  41.9052990
  48.7218130  20.6375798  32.3623784  49.5563734  20.2056997  32.1801259
  48.5602473  20.4657812  33.2900678  48.3764023  17.1407912  33.7280123
  48.3212826  16.9752183  32.7868567  47.7510078  17.8483945  33.8842313
  33.1656538  12.3775976  47.5541545  33.8115401  11.8674930  48.0428771
  32.9573689  13.1144658  48.1284971  45.6909930  19.4456824  53.0533686
  46.5601089  19.6197476  52.6920321  45.2116681  20.2651240  52.9309415
  41.6860148   6.6416021  33.3065442  41.6738818   7.5857861  33.4633712
  42.5783570   6.4586166  33.0124903  39.8596110  26.5653925  44.7323120
  40.7623357  26.5977535  45.0489615  39.6333480  25.6354376  44.7469455
  41.6149712  25.3184911  41.3933198  40.6645343  25.3186773  41.2797570
  41.9182198  24.5717646  40.8769233  45.5012267   3.2358797  37.5611378
  44.7344663   2.6817284  37.7068061  45.9122972   3.3080666  38.4225530
  37.5054029   9.5243593  51.6516560  38.3685490   9.1680398  51.8619884
  36.9319439   9.1857488  52.3391964  57.3502405  31.1545450  42.4578961
  57.9880815  31.0352197  41.7542301  57.2323248  32.1026293  42.5166913
  54.1592112  31.1072878  42.3940485  53.8210623  30.9913942  41.5061020
  55.0281880  30.7064043  42.3741491  50.0178927  32.9608354  38.3837376
  49.4543793  32.8698291  37.6153664  49.9031322  32.1408258  38.8639869
  54.6411895  32.2607729  48.3526691  54.6300535  31.8660528  47.4807194
  54.8032534  31.5273802  48.9460462  49.5234113  33.7168459  34.0938976
  50.2964989  33.1697446  33.9551851  49.8759512  34.5812708  34.3053437
  52.2875363  32.4221690  43.8907234  52.8838935  32.1977712  43.1764197
  52.3450334  31.6806435  44.4932682  51.8600391  29.8761125  31.7257425
  52.1125912  29.3542646  30.9640888  50.9224950  29.7127270  31.8284109
  56.9043674  28.8796903  39.5332169  57.6906763  28.4616327  39.1822586
  57.1682378  29.7842996  39.7013817  62.3052101  28.8172137  40.4365147
  63.0377273  28.2471353  40.6702977  61.5491457  28.4293737  40.8771653
  51.5796680  31.7789231  33.9281800  51.4632938  31.1034134  34.5962885
  51.6898940  31.2921605  33.1113953  53.9228221  31.2399378  37.6328490
  53.5586428  30.7129999  38.3441411  54.7795337  30.8497847  37.4594975
  59.8277521  22.5293711  44.8959756  59.4960846  23.3989122  44.6720971
  59.2323135  22.2129995  45.5753786  53.5633708  26.2689278  32.6289838
  53.7308110  27.1369514  32.9960309  53.3730877  26.4316559  31.7051127
  49.7721522  31.1820054  40.3292373  48.8472019  31.0496268  40.5370065
  50.0205936  31.9614273  40.8262315  59.7206185  27.2488797  41.9753106
  58.8123062  27.1804205  41.6811867  59.6693781  27.7260742  42.8034931
  53.5422929  28.7246935  33.6136505  53.4222554  29.1703986  34.4521985
  52.8475517  29.0732253  33.0550043  47.1330333  30.8253327  41.1636162
  47.2622715  31.0787806  42.0775574  46.4527785  31.4181035  40.8440817
  53.7947051  28.6678442  49.9188003  53.0180385  29.2272363  49.9090868
  54.4337614  29.1535225  50.4402873  61.5867831  25.4505235  43.7530980
  60.9442211  25.7437768  43.1070774  61.0822760  25.3358156  44.5584176
  59.2407995  29.1968408  34.4416839  60.1525851  29.4295795  34.2664537
  58.7317642  29.7805453  33.8791918  57.5248762  33.6193036  48.0778132
  57.9332119  33.1775447  47.3332764  56.8026024  33.0445664  48.3312324
  53.8779833  28.5565643  45.4511689  54.7241028  28.9805057  45.5946338
  53.8178470  27.8999267  46.1450252  57.0279278  26.2170011  47.1092862
  56.7840210  26.9712072  46.5727138  57.3039208  26.5955359  47.9440109
  58.9817741  32.7608624  45.7870128  59.1934636  33.4040384  45.1104509
  58.9347489  31.9270940  45.3192058  56.5843970  25.3726444  42.6906700
  55.7228449  25.6707698  42.9823437  56.6106404  25.5896843  41.7587733
  52.3374425  30.0391787  35.9070071  53.0398468  30.4912831  36.3743997
  52.0055054  29.3975606  36.5349964  50.7854787  28.6303544  50.2821280
  50.1553447  29.3119825  50.5156677  50.6790874  28.5186626  49.3374418
  46.0799759  28.2975340  41.2087204  45.2898813  28.5532869  40.7327315
  46.5711006  29.1123678  41.3139245  48.0314504  28.6619919  38.1670681
  47.2345668  28.7738614  38.6854177  47.8040097  29.0006571  37.3011571
  53.8620172  35.1864622  46.1153196  53.9264605  35.6485030  46.9511367
  53.1531096  34.5561987  46.2435505  44.3637462  28.5505830  43.6402195
  44.6145500  29.4352840  43.9059771  44.8997010  28.3710432  42.8677287
  50.0635529  22.9324310  52.6446531  49.6702475  22.3790508  53.3194175
  50.8801670  23.2434888  53.0353049  52.9803490  24.3482189  50.2366788
  53.7213204  24.9489342  50.1571250  53.2121413  23.6059827  49.6784830
  48.1244828  29.5338556  48.5145017  48.0098343  28.6323813  48.8152116
  47.2689346  29.7802253  48.1629834  53.7590958  35.2703226  48.9837428
  54.2919295  34.5091514  48.7536736  53.2305039  34.9776878  49.7261582
  56.9260653  20.3763292  44.5131069  56.5824923  21.2664934  44.4370180
  57.2939616  20.1864949  43.6500654  44.9946504  32.6996822  37.3319672
  45.8321726  33.1093831  37.1153379  45.1724772  31.7596264  37.3019865
  56.8910936  30.3671903  33.0203504  56.3757559  31.1376508  33.2591892
  56.6188244  29.6937039  33.6436566  54.4758047  25.2121604  38.0788743
  53.6199643  24.8228454  37.8994382  54.8884999  25.2913565  37.2188528
  56.0057194  22.7467947  42.4780303  55.5021989  22.7098082  41.6648108
  56.2987800  23.6560690  42.5376959  52.2500080  22.8306677  41.4846484
  53.1153076  22.6349485  41.1252374  52.3177588  22.6017029  42.4115841
  56.6797239  28.2398995  34.8463286  56.3747375  28.5545144  35.6973429
  57.6327681  28.3180415  34.8890619  49.8562399  25.0608885  38.8562851
  50.4306150  24.8384066  38.1236044  50.4433381  25.1297579  39.6091452
  58.9141976  30.9482612  39.6627228  59.4273858  31.5812603  40.1648937
  59.5643200  30.3483807  39.2970588  50.1831986  27.0913346  32.8758736
  49.3469298  27.4288032  33.1968011  50.0436755  26.9562325  31.9385873
  52.1585066  21.9350134  37.5837921  51.5049479  21.6199151  36.9594535
  52.1165540  21.3125874  38.3097744  53.2696271  32.2169429  29.4991213
  52.3623333  31.9858682  29.6982362  53.7667303  31.4207048  29.6865194
  55.3922807  28.4232067  41.9085568  54.4745368  28.6447014  41.7507256
  55.8082950  28.4978378  41.0497276  56.1757854  29.8223483  37.0388248
  56.9229673  30.3344880  36.7295371  56.4449444  29.5007536  37.8992642
  54.4484505  32.3182024  34.0215203  53.5395724  32.0341056  34.1187673
  54.4779588  32.7381102  33.1618510  58.6236692  26.8580599  39.0207038
  57.8859448  26.3457985  39.3517280  58.8763465  26.4180981  38.2090315
  58.7248319  19.6356851  39.6148807  59.0307196  18.7754214  39.3274722
  59.4500924  20.2274471  39.4147801  45.0172675  30.0387538  38.0030405
  44.8197075  29.4456898  37.2781472  44.4619339  29.7339748  38.7206344
  52.9969399  29.9310644  40.1224998  53.0518008  28.9784481  40.0467475
  52.1860601  30.0870083  40.6066297  54.1460592  33.8590767  31.3603281
  53.7080022  33.1426626  30.9008919  54.8871033  34.0866882  30.7988373
  50.9361759  28.5487704  37.8815377  50.1229624  28.8481874  38.2880569
  51.4320753  28.1543393  38.5989859  56.5335970  29.0129528  46.7130271
  56.8885358  29.2401001  47.5724737  57.1808101  29.3447905  46.0907526
  62.2633707  32.1347964  37.4179600  62.1251606  32.3249560  36.4900789
  61.9069926  32.8967347  37.8747651  50.4275833  26.1206059  43.4976612
  51.0675213  25.9794818  42.7999575  49.5953364  25.8340573  43.1215214
  47.5118901  29.5651572  35.6871357  46.5816489  29.5036027  35.9041319
  47.6076373  29.0427524  34.8907998  47.4304450  26.0906384  38.2749599
  47.6911267  27.0051718  38.1658759  48.2521622  25.6230827  38.4246212
  48.9029375  27.5044142  45.4448423  49.5752428  27.2961504  44.7961072
  48.0759162  27.3066228  45.0053656  54.8054947  24.1306082  47.4614084
  54.1582862  24.8296032  47.3678561  55.5755962  24.5642226  47.8290332
  54.9819081  31.9686847  45.5210904  55.9111141  32.1198007  45.3479871
  54.5610111  32.0570868  44.6659550  49.3056872  30.7786745  46.2050860
  49.1676670  30.0466983  46.8062399  50.2161796  30.6895645  45.9235048
  58.2671820  32.7175149  30.9535339  57.6500991  31.9921977  30.8568392
  57.7988308  33.4784509  30.6102413  51.9339173  30.4906704  45.6934540
  52.6438792  29.8499896  45.6521159  51.8908481  30.7419599  46.6160721
  50.6468107  27.4771922  47.5130180  50.1105464  27.0262660  48.1651776
  50.0584815  27.6117831  46.7700644  50.0570366  26.9360573  30.0756643
  49.1799832  26.8149374  29.7118890  50.5328119  26.1446651  29.8235532
  41.5772506  31.7237733  40.1698150  42.2643546  31.4099463  39.5819166
  41.4220635  32.6279097  39.8965402  46.3807228  26.6127929  44.5983174
  46.2965417  26.0053599  43.8633584  45.5589935  27.1036948  44.5992670
  56.5530942  25.0981493  39.9653369  57.0499642  24.3451455  39.6454439
  55.7817924  25.1345810  39.3996578  53.1365911  27.2398876  39.6925054
  52.7663698  26.6869916  40.3805959  53.6325003  26.6357009  39.1400054
  61.0233274  29.6970499  38.0741827  61.4893726  30.5298491  38.0002129
  61.4740775  29.2315481  38.7787085  58.9949937  22.0651086  42.1132728
  58.0813017  22.2955313  42.2814935  59.4243038  22.1489531  42.9646760
  58.7656395  30.2540978  44.6132622  58.1127846  30.5016886  43.9585075
  59.1436775  29.4405117  44.2795099  54.8143968  30.9960789  51.0998659
  54.1384605  30.8954919  51.7701034  55.6371602  30.8400003  51.5634656
  41.1540482  29.8038326  42.4415618  41.1924582  29.2701917  43.2352736
  40.6480775  29.2773532  41.8226595  48.5331244  24.6502867  45.9378160
  48.5972571  25.5117698  45.5255557  48.4698365  24.0376868  45.2050518
  48.0083517  26.7225999  49.5851194  48.6355556  26.3403077  50.1988718
  47.1511436  26.5040201  49.9506887  44.7849060  28.5302428  35.5169549
  45.0802501  27.6213107  35.4636603  43.8837096  28.5090168  35.1950551
  48.3143307  26.6058425  41.4997097  47.5929893  27.2194393  41.3604571
  49.1036563  27.1416190  41.4213743  51.1169620  23.9412851  47.7737749
  51.6404022  24.1875148  48.5364059  50.8981954  24.7732886  47.3540887
  46.5136901  26.2116526  35.6408874  46.1849608  25.3313905  35.4583980
  46.8676272  26.1564195  36.5285263  49.6278725  26.4989496  36.0084352
  49.9674797  27.0275417  35.2862960  50.0750845  26.8369902  36.7842918
  52.3222165  24.8826547  45.4587420  51.9818986  24.0834360  45.8608100
  51.6161172  25.1828257  44.8864253  52.9738637  21.9675859  43.9114743
  53.7964706  21.4936337  43.7893633  53.2176701  22.7466343  44.4113429
  51.6146872  24.9964117  34.2077644  52.3355234  25.3745370  33.7041361
  50.9912176  25.7152994  34.3112622  55.7577995  25.7009266  35.1435977
  55.9741609  26.5833904  34.8424805  55.2772062  25.3095480  34.4141619
  50.4977216  28.6594980  41.7206721  50.3521797  28.9735283  42.6131003
  50.0202420  29.2779880  41.1677620  52.3573599  25.6497528  41.7687611
  52.3435168  24.7538621  41.4319909  53.0746027  25.6568191  42.4025897
  54.2099730  26.0834868  43.8140738  53.9517507  27.0051938  43.8125069
  53.6784770  25.6865302  44.5041203  51.7610495  24.5311908  37.0375181
  51.8826406  23.6028554  37.2366069  51.4712537  24.5450594  36.1253497
  54.6301685  22.2166818  40.1741901  54.6523382  22.2806151  39.2193880
  55.0469744  21.3771327  40.3682407  51.2451574  26.0443905  51.2465114
  51.2939730  26.9206028  50.8642883  51.7874088  25.5021298  50.6736757
  59.1408057  29.4208423  49.1558286  60.0417920  29.2814888  48.8642284
  59.2156032  29.5862878  50.0956463  53.4750863  26.7975278  48.0011472
  52.6054172  27.0908844  47.7294061  53.7110343  27.3815723  48.7218736
  48.4893187  32.1431218  36.1352137  48.2439229  31.2393548  36.3332347
  48.6589101  32.1448369  35.1931615  56.1789897  23.0154895  45.5176893
  56.6971840  23.7515922  45.1923381  55.8245029  23.3218888  46.3523652
  47.7588834  27.8759576  33.6338299  47.0658079  27.9503931  32.9778335
  47.5140586  27.1119919  34.1559816  56.4302491  19.4355177  41.0377789
  56.7104244  18.7678366  41.6638216  57.2153098  19.6284273  40.5252453
  58.3225729  24.9428394  44.9708765  57.7275661  25.2233407  44.2755254
  58.0375425  25.4322295  45.7425506  54.6182758  29.9474984  29.9418868
  55.5641862  29.8181192  30.0107286  54.2397003  29.2089646  30.4188296
  60.5904642  21.6130990  39.9045760  60.3929463  21.3046078  40.7889092
  61.2004348  22.3392629  40.0343690  54.5021450  33.9992730  51.4019525
  55.4224460  34.1771329  51.5959572  54.4671033  33.0548775  51.2499224
  52.8025675  27.8724960  29.8773753  51.8957130  27.5758073  29.9536467
  53.0801656  27.5754778  29.0108040  43.7203615  29.1931324  40.3272800
  43.4006400  28.3396632  40.0347174  43.1737043  29.4079902  41.0830767
  54.4187741  22.4161850  36.0317995  53.6088469  22.0708935  36.4073241
  55.1072158  22.1069394  36.6205606  56.3478289  21.4939897  37.6542291
  56.9009327  21.9135350  38.3132314  56.5848375  20.5675645  37.6965247
  52.3711388  27.4826970  53.4345055  52.2708115  28.4321327  53.3657146
  52.1532930  27.1545209  52.5621125  51.5724459  24.7311895  30.0185733
  52.4343623  25.0566794  30.2781550  51.7574804  23.9443391  29.5058798
  43.5891875  32.8134235  42.2965921  42.8955347  32.3988188  41.7835876
  44.3364866  32.8554772  41.6999340  59.7257096  23.6040422  37.1620956
  59.1455765  24.2625226  36.7799008  59.4593029  22.7817766  36.7508373
  58.1760662  23.0045480  39.3642276  58.6760441  23.1162014  38.5556595
  58.8196270  22.7006532  40.0043084  45.5028618  32.7452489  40.1731936
  45.4799306  32.8440176  39.2213819  45.8129254  33.5917640  40.4949102
  58.5081974  25.7640512  36.2177304  57.6207829  26.0490163  35.9997499
  58.9235963  25.6034276  35.3704581  61.8596510  25.7887033  39.9331643
  62.6356900  26.2783486  40.2056260  61.1344644  26.2145087  40.3903513
  64.2969069  26.5014652  40.9905584  64.8913560  26.2610388  40.2798892
  64.3695652  25.7821783  41.6179120  58.4822998  31.2795048  36.4327594
  58.4258199  31.7363600  35.5935226  59.0351340  30.5185733  36.2550437
  62.2927804  27.0684780  37.2577713  62.0364738  26.6681416  38.0885921
  61.6680672  27.7828574  37.1327853  44.0050292  27.7067894  47.5541545
  44.6509156  27.1966848  48.0428771  43.7967443  28.4436575  48.1284971
  52.5253903  21.9707938  33.3065442  52.5132572  22.9149778  33.4633712
  53.4177324  21.7878084  33.0124903  56.3406022  18.5650715  37.5611378
  55.5738418  18.0109202  37.7068061  56.7516727  18.6372584  38.4225530
  48.3447783  24.8535511  51.6516560  49.2079245  24.4972316  51.8619884
  47.7713194  24.5149406  52.3391964  79.0289914  61.8129285  42.4578961
  79.6668324  61.6936032  41.7542301  78.9110757  62.7610129  42.5166913
  77.2765995  67.2863157  33.6951841  76.6253975  67.8717238  33.3085855
  78.0710358  67.8169352  33.7546879  78.5831183  59.5380739  39.5332169
  79.3694272  59.1200162  39.1822586  78.8469887  60.4426831  39.7013817
  78.7541260  64.9753589  34.2320825  78.1187093  65.0488216  34.9441730
  78.4238667  65.5647188  33.5539905  83.9839610  59.4755972  40.4365147
  84.7164782  58.9055189  40.6702977  83.2278966  59.0877572  40.8771653
  77.9996550  65.3890092  44.2955668  77.6997273  66.2915131  44.1871476
  77.6547609  65.1222275  45.1476821  72.9817330  72.1534412  37.2626636
  72.9041359  73.1042237  37.3415117  72.3778973  71.8080285  37.9201562
  80.9195504  59.8552244  34.4416839  81.8313360  60.0879631  34.2664537
  80.4105151  60.4389288  33.8791918  79.2036271  64.2776872  48.0778132
  79.6119627  63.8359282  47.3332764  78.4813533  63.7029499  48.3312324
  79.5265086  64.8378062  41.8330420  78.8973949  65.0023776  41.1306488
  79.1390748  65.2519672  42.6041384  83.4054318  65.7732500  39.1874784
  82.7205356  66.1531401  38.6371818  83.4898167  66.3827827  39.9206732
  80.6605250  63.4192459  45.7870128  80.8722145  64.0624219  45.1104509
  80.6134998  62.5854776  45.3192058  81.7751078  66.2964415  43.9592485
  82.5968521  65.8944602  43.6775167  81.7713480  66.1932649  44.9108601
  75.5407681  65.8448458  46.1153196  75.6052114  66.3068865  46.9511367
  74.8318605  65.2145823  46.2435505  89.8657071  62.6403163  40.3077457
  89.1120779  62.0710561  40.1521461  90.0004612  62.6065828  41.2548091
  75.2555699  67.5116565  35.9832176  75.1201373  68.3568101  36.4117024
  75.7965511  67.7135843  35.2198110  76.8824175  68.1340132  50.1132518
  76.4388029  67.3476510  49.7953422  77.5441389  68.3219282  49.4476409
  71.6411296  69.6635933  44.6393197  72.1918721  69.5352997  43.8670190
  70.8022772  69.9630822  44.2888089  78.9805413  68.4142932  48.1413919
  78.9623888  69.2351813  47.6494188  79.9025333  68.2897007  48.3664060
  75.4378467  65.9287061  48.9837428  75.9706804  65.1675349  48.7536736
  74.9092548  65.6360713  49.7261582  78.5698445  61.0255738  33.0203504
  78.0545068  61.7960343  33.2591892  78.2975753  60.3520874  33.6436566
  83.5432719  63.7788093  34.9556678  82.7662162  63.4399252  34.5111840
  84.2224200  63.7840716  34.2811643  78.3584748  58.8982830  34.8463286
  78.0534884  59.2128980  35.6973429  79.3115190  58.9764250  34.8890619
  76.8031180  65.0573054  36.4956240  76.2752542  64.3225813  36.1829477
  76.3018683  65.8347730  36.2496208  81.7824026  63.2522074  41.6123286
  81.1247700  63.9421336  41.7003415  82.5864425  63.6418506  41.9557272
  80.5929485  61.6066447  39.6627228  81.1061367  62.2396439  40.1648937
  81.2430709  61.0067642  39.2970588  74.9483780  62.8753264  29.4991213
  74.0410842  62.6442517  29.6982362  75.4454812  62.0790883  29.6865194
  77.8551859  71.5850771  32.4187899  77.1813558  71.8882468  33.0272857
  78.2417681  72.3879852  32.0693356  77.8545363  60.4807318  37.0388248
  78.6017182  60.9928715  36.7295371  78.1236953  60.1591371  37.8992642
  76.1272014  62.9765859  34.0215203  75.2183233  62.6924892  34.1187673
  76.1567097  63.3964937  33.1618510  81.3591281  66.5872448  37.7906370
  80.9053608  65.7463358  37.8471561  80.7285248  67.2233847  38.1281150
  79.8024220  68.4248945  38.7256188  80.0947195  68.9854002  38.0068554
  80.3122841  68.7177506  39.4809348  75.8248101  64.5174603  31.3603281
  75.3867531  63.8010461  30.9008919  76.5658542  64.7450717  30.7988373
  74.7657845  69.2029296  39.8149642  74.7234024  69.4290142  38.8858174
  75.6820544  68.9692671  39.9635443  83.9421216  62.7931800  37.4179600
  83.8039115  62.9833396  36.4900789  83.5857435  63.5551182  37.8747651
  83.9690596  64.8608327  42.4290871  84.4027102  64.7683616  43.2773925
  84.6822176  64.8365827  41.7910887  77.7018491  68.4610421  43.9623972
  77.7555513  69.0301357  44.7301688  76.8333272  68.6312306  43.5978009
  84.8306145  64.9032027  44.9623757  85.0242035  65.8077838  45.2083032
  84.7306763  64.4439446  45.7962342  79.8921254  65.0538770  50.5364637
  79.7406760  64.8249322  49.6194721  79.8825933  66.0109371  50.5495982
  75.4594922  66.6521347  43.2909442  75.3206008  66.2840132  44.1635380
  74.6709518  67.1668987  43.1193399  76.0543074  71.7530444  34.6334978
  76.2294830  71.2818487  35.4480601  75.3675862  72.3796210  34.8616239
  77.0100137  66.0302950  40.6798279  76.6749970  65.9903720  41.5755929
  76.5104083  65.3647666  40.2068690  79.9459329  63.3758984  30.9535339
  79.3288500  62.6505812  30.8568392  79.4775817  64.1368344  30.6102413
  81.6013461  68.0857893  48.6141119  81.5426007  67.4017113  47.9471702
  82.0032979  68.8276883  48.1621745  70.6204159  74.9019806  41.4074838
  70.8600758  75.5338331  42.0853857  69.7773356  74.5507846  41.6940197
  81.6030868  66.0497476  46.8455099  80.7157647  65.7123398  46.9681498
  82.1729419  65.3180508  47.0823864  75.1332021  70.7098929  43.8116342
  75.0602193  71.5153900  44.3235647  74.6909414  70.9090895  42.9864364
  74.9221801  69.9470699  37.3219164  74.1389323  70.4892379  37.4157388
  75.6214546  70.4644678  37.7213405  86.0848208  61.4605694  41.6071661
  86.0738085  62.3430409  41.2365594  85.2165588  61.1077245  41.4126198
  77.5930705  70.6085763  45.9674501  78.3058677  71.2433228  45.8950402
  77.1020733  70.7049629  45.1514503  79.3148232  64.5137016  37.5391793
  78.3804510  64.6338478  37.3696497  79.4924900  63.6109482  37.2751802
  82.7020783  60.3554335  38.0741827  83.1681235  61.1882326  38.0002129
  83.1528284  59.8899316  38.7787085  72.6442618  68.3580206  46.7880072
  73.3452078  68.9916689  46.9409466  72.1737733  68.6994938  46.0275711
  80.7697014  66.6998156  35.0727979  81.0456858  66.5854751  35.9821853
  79.9001513  66.3015641  35.0340152  77.4051078  70.9484507  38.7160792
  77.5873473  70.1306163  39.1788545  78.2284064  71.1652199  38.2785682
  77.7393244  69.8752692  35.9775841  78.2681010  69.3645147  35.3646003
  78.0021463  69.5595222  36.8421374  71.0948992  70.9267809  38.7373617
  70.4259367  71.4113936  38.2537657  70.9561861  71.1737029  39.6516995
  75.2354260  72.9611552  45.3356275  75.7872568  73.1243174  46.1005360
  75.5760454  73.5515990  44.6636300  80.0865135  67.7872810  51.1904930
  80.6305039  68.4002768  50.6959884  79.5051979  68.3452388  51.7071943
  78.3722648  70.9093528  42.3219957  78.2473787  70.1083268  41.8130903
  79.0301739  71.4039721  41.8333927  80.4357556  68.7102548  43.9499507
  79.4887891  68.5907899  43.8777834  80.7840329  67.8225046  44.0325769
  77.4403989  68.5055264  40.1503860  77.2928952  67.5771972  40.3311430
  78.2657483  68.5275355  39.6660935  81.0438111  69.3283823  41.2368732
  81.9684659  69.1226684  41.0993183  80.8753414  69.0800224  42.1458074
  80.8333427  69.8469490  36.5930824  81.0070305  69.2815913  35.8404676
  81.3262318  70.6470385  36.4110314  86.6872818  62.6105913  38.2121124
  87.1303964  61.8613238  37.8140247  85.8099329  62.6016050  37.8294856
  81.8208600  69.1636255  33.6927722  82.5159504  69.7842947  33.9115037
  82.1631750  68.3131606  33.9680100  83.7200023  66.6135960  35.2215053
  84.2451347  66.9523233  34.4964373  83.6322375  65.6782976  35.0378187
  75.3820072  70.5270034  47.3504929  75.6907198  70.2819181  48.2227629
  76.1795554  70.7316672  46.8623800  75.4040684  72.6807943  39.5810306
  74.9645674  72.1884322  40.2743163  76.1548801  72.1380911  39.3402381
  72.8514556  68.2245953  41.6532608  72.2294565  67.5616658  41.3534836
  73.5219423  68.2507084  40.9706255  83.4093929  67.2468864  50.5266251
  82.6189473  67.2293003  49.9870750  83.1727283  67.7857158  51.2815287
  83.5291804  64.0961330  47.8398979  83.5789809  63.9311338  48.7814502
  83.4205727  63.2288589  47.4496860  85.0310001  66.5158272  48.0841001
  84.7394809  66.8788252  48.9204462  84.4182132  65.8025280  47.9054333
  86.2305683  64.0811152  40.6043571  87.0652575  64.5200956  40.7681131
  86.3664812  63.6049805  39.7851817  83.2797189  61.6390886  46.5521059
  83.7551311  61.8318533  45.7439910  82.3562754  61.6950072  46.3064443
  75.9123468  69.2698006  32.6002816  75.3397435  69.8888193  32.1473288
  76.4856262  69.8197368  33.1342738  79.1320728  69.5535156  33.7311398
  80.0651401  69.4880718  33.9344273  79.0443941  70.3891423  33.2725931
  81.7608745  68.8701027  30.6915345  81.6822376  68.5360890  31.5851103
  82.5818411  69.3622795  30.6906818  84.4586936  61.7362766  43.8991664
  84.4263256  60.7978767  44.0851348  85.0687559  61.8146803  43.1657489
  84.6081424  58.5273810  43.9449947  84.0920473  57.7432266  43.7579876
  85.4921373  58.1992526  44.1096467  90.2763486  62.7978773  43.0397701
  91.0066874  62.5364061  43.6005404  89.6670431  62.0607495  43.0799769
  88.3578783  60.9386636  43.6372152  87.6311946  60.8042601  43.0288644
  87.9426070  61.2463464  44.4428870  85.9756578  57.1598488  40.9905584
  86.5701069  56.9194224  40.2798892  86.0483161  56.4405618  41.6179120
  68.1953733  71.0032099  41.3048749  68.0608201  70.2432500  40.7386747
  67.7785796  71.7272999  40.8377537  79.3312696  66.1869022  30.3125324
  80.0348547  66.3919025  30.9282979  78.6075345  66.7545784  30.5774407
  80.1610507  61.9378883  36.4327594  80.1045708  62.3947435  35.5935226
  80.7138849  61.1769568  36.2550437  88.2827650  60.4664689  39.7649005
  87.7227208  60.5357878  40.5380567  87.6771154  60.2905673  39.0448501
  71.3522859  71.9001416  41.5167191  71.2355243  72.8446848  41.4145881
  70.5315306  71.5974977  41.9052990  81.2399394  66.6251551  32.3623784
  82.0744998  66.1932750  32.1801259  81.0783737  66.4533565  33.2900678
  80.8945286  63.1283665  33.7280123  80.8394090  62.9627936  32.7868567
  80.2691341  63.8359698  33.8842313  78.2091193  65.4332577  53.0533686
  79.0782353  65.6073229  52.6920321  77.7297945  66.2526993  52.9309415
  72.3777373  72.5529678  44.7323120  73.2804620  72.5853288  45.0489615
  72.1514743  71.6230129  44.7469455  74.1330975  71.3060664  41.3933198
  73.1826606  71.3062526  41.2797570  74.4363462  70.5593399  40.8769233
  89.8683669  77.1421203  42.4578961  90.5062079  77.0227950  41.7542301
  89.7504512  78.0902047  42.5166913  86.6773375  77.0948631  42.3940485
  86.3391887  76.9789695  41.5061020  87.5463143  76.6939796  42.3741491
  82.5360191  78.9484107  38.3837376  81.9725056  78.8574044  37.6153664
  82.4212586  78.1284012  38.8639869  87.1593158  78.2483482  48.3526691
  87.1481799  77.8536281  47.4807194  87.3213798  77.5149555  48.9460462
  80.0824623  80.4435299  41.2221597  80.8745915  80.1026123  40.8067896
  80.3221273  80.5530274  42.1423750  88.1159750  82.6155075  33.6951841
  87.4647729  83.2009155  33.3085855  88.9104112  83.1461270  33.7546879
  82.0415377  79.7044212  34.0938976  82.8146253  79.1573199  33.9551851
  82.3940776  80.5688461  34.3053437  83.8800419  81.0320594  47.3005875
  83.5890285  81.9366225  47.1852541  84.5157404  81.0737122  48.0149944
  84.8056626  78.4097443  43.8907234  85.4020198  78.1853465  43.1764197
  84.8631598  77.6682188  44.4932682  84.3781655  75.8636878  31.7257425
  84.6307175  75.3418399  30.9640888  83.4406214  75.7003023  31.8284109
  89.4224937  74.8672656  39.5332169  90.2088027  74.4492080  39.1822586
  89.6863642  75.7718749  39.7013817  89.5935015  80.3045507  34.2320825
  88.9580848  80.3780133  34.9441730  89.2632421  80.8939106  33.5539905
  94.8233365  74.8047890  40.4365147  95.5558536  74.2347106  40.6702977
  94.0672720  74.4169490  40.8771653  84.0977943  77.7664984  33.9281800
  83.9814201  77.0909887  34.5962885  84.2080203  77.2797358  33.1113953
  86.4409484  77.2275131  37.6328490  86.0767691  76.7005752  38.3441411
  87.2976600  76.8373600  37.4594975  92.3458785  68.5169464  44.8959756
  92.0142110  69.3864875  44.6720971  91.7504398  68.2005748  45.5753786
  86.0814971  72.2565031  32.6289838  86.2489374  73.1245267  32.9960309
  85.8912140  72.4192312  31.7051127  88.8390304  80.7182010  44.2955668
  88.5391028  81.6207049  44.1871476  88.4941364  80.4514193  45.1476821
  82.2902786  77.1695807  40.3292373  81.3653282  77.0372021  40.5370065
  82.5387199  77.9490026  40.8262315  92.2387448  73.2364550  41.9753106
  91.3304326  73.1679958  41.6811867  92.1875044  73.7136495  42.8034931
  86.0604192  74.7122688  33.6136505  85.9403817  75.1579739  34.4521985
  85.3656781  75.0608006  33.0550043  79.6511597  76.8129080  41.1636162
  79.7803978  77.0663559  42.0775574  78.9709048  77.4056788  40.8440817
  83.8211084  87.4826330  37.2626636  83.7435114  88.4334155  37.3415117
  83.2172728  87.1372203  37.9201562  86.3128314  74.6554195  49.9188003
  85.5361648  75.2148116  49.9090868  86.9518877  75.1410978  50.4402873
  94.1049095  71.4380988  43.7530980  93.4623475  71.7313521  43.1070774
  93.6004023  71.3233909  44.5584176  91.7589258  75.1844161  34.4416839
  92.6707114  75.4171548  34.2664537  91.2498905  75.7681206  33.8791918
  84.5674686  77.4639649  49.4805970  85.3089371  78.0024693  49.2040794
  83.8611672  78.0905938  49.6377522  90.0430026  79.6068789  48.0778132
  90.4513382  79.1651200  47.3332764  89.3207287  79.0321417  48.3312324
  86.3961096  74.5441396  45.4511689  87.2422291  74.9680810  45.5946338
  86.3359734  73.8875020  46.1450252  90.3658841  80.1669980  41.8330420
  89.7367703  80.3315694  41.1306488  89.9784503  80.5811589  42.6041384
  94.2448072  81.1024418  39.1874784  93.5599111  81.4823319  38.6371818
  94.3291922  81.7119744  39.9206732  89.5460541  72.2045764  47.1092862
  89.3021473  72.9587825  46.5727138  89.8220472  72.5831112  47.9440109
  91.4999004  78.7484377  45.7870128  91.7115899  79.3916137  45.1104509
  91.4528752  77.9146693  45.3192058  89.1025233  71.3602197  42.6906700
  88.2409712  71.6583451  42.9823437  89.1287668  71.5772596  41.7587733
  85.9186802  79.9044388  39.0980506  86.3825148  80.1832091  38.3085128
  85.6543601  79.0027833  38.9153596  82.8110884  79.4515870  42.0360269
  83.3812241  79.8803138  41.3977753  83.4018995  79.1698454  42.7344454
  84.8555689  76.0267540  35.9070071  85.5579732  76.4788584  36.3743997
  84.5236317  75.3851359  36.5349964  83.3036050  74.6179297  50.2821280
  82.6734711  75.2995578  50.5156677  83.1972138  74.5062379  49.3374418
  78.5981022  74.2851093  41.2087204  77.8080076  74.5408622  40.7327315
  79.0892270  75.0999431  41.3139245  92.6144832  81.6256332  43.9592485
  93.4362276  81.2236519  43.6775167  92.6107235  81.5224566  44.9108601
  80.5495768  74.6495672  38.1670681  79.7526931  74.7614367  38.6854177
  80.3221360  74.9882325  37.3011571  86.3801435  81.1740376  46.1153196
  86.4445868  81.6360783  46.9511367  85.6712359  80.5437740  46.2435505
  76.8818725  74.5381583  43.6402195  77.1326764  75.4228593  43.9059771
  77.4178274  74.3586185  42.8677287 100.7050825  77.9695081  40.3077457
  99.9514533  77.4002479  40.1521461 100.8398366  77.9357745  41.2548091
  86.0949453  82.8408483  35.9832176  85.9595128  83.6860019  36.4117024
  86.6359266  83.0427761  35.2198110  82.5816793  68.9200063  52.6446531
  82.1883738  68.3666261  53.3194175  83.3982933  69.2310641  53.0353049
  79.5478851  80.3583921  36.5560101  80.0603371  81.1527171  36.7065666
  80.2001563  79.6610211  36.4893702  81.3573735  83.4749677  38.6382854
  81.5340364  84.3967642  38.4503838  82.1530569  83.1608097  39.0677234
  85.4984754  70.3357942  50.2366788  86.2394467  70.9365095  50.1571250
  85.7302677  69.5935580  49.6784830  80.6426092  75.5214309  48.5145017
  80.5279607  74.6199566  48.8152116  79.7870610  75.7678006  48.1629834
  87.7217930  83.4632050  50.1132518  87.2781784  82.6768428  49.7953422
  88.3835143  83.6511200  49.4476409  82.4805051  84.9927851  44.6393197
  83.0312476  84.8644914  43.8670190  81.6416527  85.2922740  44.2888089
  89.8199168  83.7434849  48.1413919  89.8017643  84.5643730  47.6494188
  90.7419088  83.6188925  48.3664060  86.2772222  81.2578979  48.9837428
  86.8100559  80.4967267  48.7536736  85.7486303  80.9652631  49.7261582
  89.4441917  66.3639045  44.5131069  89.1006186  67.2540687  44.4370180
  89.8120879  66.1740703  43.6500654  77.5127767  78.6872575  37.3319672
  78.3502989  79.0969584  37.1153379  77.6906035  77.7472018  37.3019865
  89.4092199  76.3547656  33.0203504  88.8938823  77.1252261  33.2591892
  89.1369508  75.6812792  33.6436566  86.9939310  71.1997357  38.0788743
  86.1380907  70.8104207  37.8994382  87.4066262  71.2789318  37.2188528
  88.5238457  68.7343700  42.4780303  88.0203253  68.6973835  41.6648108
  88.8169064  69.6436443  42.5376959  84.7681343  68.8182430  41.4846484
  85.6334340  68.6225238  41.1252374  84.8358852  68.5892782  42.4115841
  94.3826474  79.1080011  34.9556678  93.6055916  78.7691170  34.5111840
  95.0617955  79.1132634  34.2811643  89.1978503  74.2274748  34.8463286
  88.8928638  74.5420897  35.6973429  90.1508945  74.3056168  34.8890619
  87.6424934  80.3864971  36.4956240  87.1146296  79.6517731  36.1829477
  87.1412437  81.1639648  36.2496208  92.6217780  78.5813992  41.6123286
  91.9641455  79.2713253  41.7003415  93.4258180  78.9710424  41.9557272
  82.3743662  71.0484638  38.8562851  82.9487414  70.8259819  38.1236044
  82.9614644  71.1173332  39.6091452  91.4323239  76.9358365  39.6627228
  91.9455121  77.5688356  40.1648937  92.0824463  76.3359560  39.2970588
  82.7013249  73.0789099  32.8758736  81.8650561  73.4163785  33.1968011
  82.5618019  72.9438079  31.9385873  84.6766330  67.9225887  37.5837921
  84.0230742  67.6074904  36.9594535  84.6346804  67.3001627  38.3097744
  85.7877535  78.2045182  29.4991213  84.8804596  77.9734435  29.6982362
  86.2848567  77.4082801  29.6865194  88.6945614  86.9142689  32.4187899
  88.0207312  87.2174386  33.0272857  89.0811435  87.7171769  32.0693356
  87.9104070  74.4107820  41.9085568  86.9926632  74.6322767  41.7507256
  88.3264214  74.4854131  41.0497276  88.6939118  75.8099236  37.0388248
  89.4410937  76.3220633  36.7295371  88.9630707  75.4883289  37.8992642
  86.9665768  78.3057777  34.0215203  86.0576987  78.0216809  34.1187673
  86.9960852  78.7256855  33.1618510  92.1985035  81.9164366  37.7906370
  91.7447363  81.0755276  37.8471561  91.5679002  82.5525764  38.1281150
  91.1417955  72.8456352  39.0207038  90.4040712  72.3333738  39.3517280
  91.3944729  72.4056734  38.2090315  90.6417975  83.7540863  38.7256188
  90.9340949  84.3145920  38.0068554  91.1516595  84.0469424  39.4809348
  91.2429582  65.6232604  39.6148807  91.5488459  64.7629967  39.3274722
  91.9682187  66.2150224  39.4147801  77.5353938  76.0263291  38.0030405
  77.3378338  75.4332651  37.2781472  76.9800602  75.7215501  38.7206344
  85.5150662  75.9186397  40.1224998  85.5699272  74.9660234  40.0467475
  84.7041864  76.0745836  40.6066297  86.6641856  79.8466520  31.3603281
  86.2261286  79.1302379  30.9008919  87.4052297  80.0742635  30.7988373
  83.4543022  74.5363457  37.8815377  82.6410888  74.8357627  38.2880569
  83.9502016  74.1419146  38.5989859  85.6051600  84.5321214  39.8149642
  85.5627779  84.7582060  38.8858174  86.5214299  84.2984588  39.9635443
  89.0517234  75.0005281  46.7130271  89.4066621  75.2276754  47.5724737
  89.6989365  75.3323658  46.0907526  94.7814971  78.1223717  37.4179600
  94.6432869  78.3125313  36.4900789  94.4251189  78.8843100  37.8747651
  82.9457097  72.1081812  43.4976612  83.5856476  71.9670572  42.7999575
  82.1134627  71.8216326  43.1215214  94.8084350  80.1900244  42.4290871
  95.2420857  80.0975533  43.2773925  95.5215931  80.1657745  41.7910887
  83.7217401  81.4084243  39.6111604  84.5157999  80.9134563  39.4094179
  83.0109093  80.8802106  39.2479310  88.5412245  83.7902338  43.9623972
  88.5949267  84.3593275  44.7301688  87.6727027  83.9604223  43.5978009
  80.0300164  75.5527325  35.6871357  79.0997752  75.4911780  35.9041319
  80.1257636  75.0303277  34.8907998  79.9485713  72.0782137  38.2749599
  80.2092531  72.9927471  38.1658759  80.7702886  71.6106580  38.4246212
  81.4210639  73.4919895  45.4448423  82.0933692  73.2837257  44.7961072
  80.5940425  73.2941981  45.0053656  95.6699900  80.2323945  44.9623757
  95.8635790  81.1369755  45.2083032  95.5700518  79.7731364  45.7962342
  87.3236211  70.1181835  47.4614084  86.6764126  70.8171785  47.3678561
  88.0937226  70.5517979  47.8290332  90.7315008  80.3830688  50.5364637
  90.5800515  80.1541239  49.6194721  90.7219688  81.3401289  50.5495982
  87.5000345  77.9562600  45.5210904  88.4292405  78.1073760  45.3479871
  87.0791375  78.0446621  44.6659550  86.2988677  81.9813265  43.2909442
  86.1599762  81.6132049  44.1635380  85.5103273  82.4960904  43.1193399
  86.8936829  87.0822361  34.6334978  87.0688584  86.6110404  35.4480601
  86.2069617  87.7088127  34.8616239  87.8493892  81.3594868  40.6798279
  87.5143724  81.3195637  41.5755929  87.3497838  80.6939583  40.2068690
  81.8238136  76.7662498  46.2050860  81.6857934  76.0342736  46.8062399
  82.7343059  76.6771398  45.9235048  90.7853083  78.7050902  30.9535339
  90.1682254  77.9797730  30.8568392  90.3169572  79.4660262  30.6102413
  84.4520436  76.4782457  45.6934540  85.1620055  75.8375649  45.6521159
  84.4089745  76.7295352  46.6160721  92.4407215  83.4149810  48.6141119
  92.3819761  82.7309030  47.9471702  92.8426734  84.1568800  48.1621745
  83.1649370  73.4647675  47.5130180  82.6286727  73.0138413  48.1651776
  82.5766079  73.5993584  46.7700644  81.4597914  90.2311724  41.4074838
  81.6994512  90.8630248  42.0853857  80.6167110  89.8799764  41.6940197
  82.5751629  72.9236326  30.0756643  81.6981096  72.8025127  29.7118890
  83.0509382  72.1322404  29.8235532  92.4424622  81.3789394  46.8455099
  91.5551401  81.0415316  46.9681498  93.0123173  80.6472425  47.0823864
  74.0953770  77.7113486  40.1698150  74.7824809  77.3975216  39.5819166
  73.9401898  78.6154851  39.8965402  78.8988492  72.6003682  44.5983174
  78.8146680  71.9929352  43.8633584  78.0771198  73.0912701  44.5992670
  85.9725776  86.0390846  43.8116342  85.8995947  86.8445818  44.3235647
  85.5303169  86.2382812  42.9864364  85.7615555  85.2762617  37.3219164
  84.9783077  85.8184297  37.4157388  86.4608301  85.7936596  37.7213405
  89.0712206  71.0857246  39.9653369  89.5680905  70.3327208  39.6454439
  88.2999187  71.1221563  39.3996578  96.9241963  76.7897612  41.6071661
  96.9131839  77.6722327  41.2365594  96.0559342  76.4369162  41.4126198
  88.4324459  85.9377681  45.9674501  89.1452432  86.5725145  45.8950402
  87.9414488  86.0341547  45.1514503  90.1541986  79.8428933  37.5391793
  89.2198265  79.9630396  37.3696497  90.3318655  78.9401400  37.2751802
  85.6547174  73.2274629  39.6925054  85.2844962  72.6745669  40.3805959
  86.1506267  72.6232762  39.1400054  93.5414538  75.6846252  38.0741827
  94.0074990  76.5174244  38.0002129  93.9922038  75.2191234  38.7787085
  83.4836373  83.6872124  46.7880072  84.1845832  84.3208607  46.9409466
  83.0131488  84.0286856  46.0275711  91.6090769  82.0290074  35.0727979
  91.8850613  81.9146668  35.9821853  90.7395267  81.6307559  35.0340152
  91.5131200  68.0526839  42.1132728  90.5994280  68.2831066  42.2814935
  91.9424302  68.1365284  42.9646760  91.2837659  76.2416731  44.6132622
  90.6309109  76.4892639  43.9585075  91.6618039  75.4280870  44.2795099
  88.2444833  86.2776425  38.7160792  88.4267227  85.4598081  39.1788545
  89.0677819  86.4944117  38.2785682  88.5786998  85.2044610  35.9775841
  89.1074765  84.6937064  35.3646003  88.8415218  84.8887140  36.8421374
  87.3325232  76.9836542  51.0998659  86.6565869  76.8830672  51.7701034
  88.1552866  76.8275756  51.5634656  79.0804091  83.2208479  43.7211174
  79.6657528  82.4752167  43.8539079  78.8828929  83.5312436  44.6047838
  81.9342746  86.2559726  38.7373617  81.2653121  86.7405854  38.2537657
  81.7955616  86.5028947  39.6516995  73.6721746  75.7914079  42.4415618
  73.7105845  75.2577670  43.2352736  73.1662038  75.2649285  41.8226595
  86.0748015  88.2903470  45.3356275  86.6266323  88.4535091  46.1005360
  86.4154208  88.8807908  44.6636300  81.0512508  70.6378620  45.9378160
  81.1153834  71.4993451  45.5255557  80.9879628  70.0252621  45.2050518
  80.5264780  72.7101752  49.5851194  81.1536819  72.3278830  50.1988718
  79.6692699  72.4915954  49.9506887  90.9258889  83.1164727  51.1904930
  91.4698793  83.7294686  50.6959884  90.3445734  83.6744306  51.7071943
  77.3030323  74.5178181  35.5169549  77.5983764  73.6088860  35.4636603
  76.4018359  74.4965921  35.1950551  89.2116402  86.2385445  42.3219957
  89.0867541  85.4375185  41.8130903  89.8695493  86.7331639  41.8333927
  80.8324570  72.5934178  41.4997097  80.1111156  73.2070146  41.3604571
  81.6217826  73.1291943  41.4213743  91.2751310  84.0394466  43.9499507
  90.3281646  83.9199817  43.8777834  91.6234084  83.1516964  44.0325769
  83.6350884  69.9288604  47.7737749  84.1585286  70.1750901  48.5364059
  83.4163217  70.7608639  47.3540887  79.0318165  72.1992279  35.6408874
  78.7030871  71.3189658  35.4583980  79.3857536  72.1439948  36.5285263
  88.2797744  83.8347182  40.1503860  88.1322706  82.9063889  40.3311430
  89.1051237  83.8567272  39.6660935  82.1459988  72.4865249  36.0084352
  82.4856060  73.0151170  35.2862960  82.5932108  72.8245655  36.7842918
  91.8831866  84.6575740  41.2368732  92.8078413  84.4518602  41.0993183
  91.7147169  84.4092142  42.1458074  84.8403429  70.8702300  45.4587420
  84.5000249  70.0710113  45.8608100  84.1342435  71.1704010  44.8864253
  85.4919901  67.9551612  43.9114743  86.3145970  67.4812090  43.7893633
  85.7357964  68.7342096  44.4113429  84.1328135  70.9839870  34.2077644
  84.8536498  71.3621123  33.7041361  83.5093439  71.7028747  34.3112622
  88.2759258  71.6885019  35.1435977  88.4922872  72.5709657  34.8424805
  87.7953325  71.2971233  34.4141619  83.0158479  74.6470733  41.7206721
  82.8703060  74.9611036  42.6131003  82.5383683  75.2655633  41.1677620
  84.8754862  71.6373281  41.7687611  84.8616431  70.7414374  41.4319909
  85.5927290  71.6443944  42.4025897  86.7280993  72.0710621  43.8140738
  86.4698771  72.9927691  43.8125069  86.1966033  71.6741055  44.5041203
  91.6727182  85.1761408  36.5930824  91.8464059  84.6107830  35.8404676
  92.1656073  85.9762303  36.4110314  77.4904142  77.1876077  44.6594383
  76.9457610  77.9635885  44.7914657  78.3683491  77.5346882  44.5013504
  84.2791758  70.5187661  37.0375181  84.4007669  69.5904307  37.2366069
  83.9893801  70.5326347  36.1253497  87.1482949  68.2042571  40.1741901
  87.1704645  68.2681904  39.2193880  87.5651008  67.3647080  40.3682407
  97.5266573  77.9397831  38.2121124  97.9697719  77.1905156  37.8140247
  96.6493083  77.9307967  37.8294856  92.6602354  84.4928172  33.6927722
  93.3553259  85.1134865  33.9115037  93.0025504  83.6423524  33.9680100
  78.2770163  76.3145973  47.5524539  77.5351899  76.4628609  48.1389170
  77.9562908  76.5754239  46.6891289  94.5593777  81.9427878  35.2215053
  95.0845101  82.2815151  34.4964373  94.4716130  81.0074893  35.0378187
  86.2213826  85.8561952  47.3504929  86.5300952  85.6111098  48.2227629
  87.0189308  86.0608590  46.8623800  86.2434438  88.0099861  39.5810306
  85.8039428  87.5176240  40.2743163  86.9942555  87.4672829  39.3402381
  78.7226777  84.2011402  39.5834934  79.5484797  83.9015174  39.2033578
  78.3720829  83.4319024  40.0324723  83.6908310  83.5537870  41.6532608
  83.0688320  82.8908575  41.3534836  84.3613177  83.5799002  40.9706255
  76.9235382  82.1197728  40.5423868  76.0867290  81.6919903  40.3607869
  76.8959028  82.3130172  41.4794659  83.7632838  72.0319658  51.2465114
  83.8120993  72.9081781  50.8642883  84.3055352  71.4897051  50.6736757
  94.2487683  82.5760782  50.5266251  93.4583227  82.5584920  49.9870750
  94.0121038  83.1149075  51.2815287  94.3685558  79.4253248  47.8398979
  94.4183563  79.2603255  48.7814502  94.2599482  78.5580507  47.4496860
  83.2521817  82.1041794  35.1291068  83.4009938  82.7877258  34.4757741
  84.0588261  82.0846884  35.6440524  91.6589321  75.4084176  49.1558286
  92.5599184  75.2690641  48.8642284  91.7337295  75.5738631  50.0956463
  85.9932126  72.7851031  48.0011472  85.1235436  73.0784597  47.7294061
  86.2291607  73.3691476  48.7218736  95.8703755  81.8450189  48.0841001
  95.5788564  82.2080170  48.9204462  95.2575887  81.1317198  47.9054333
  97.0699438  79.4103069  40.6043571  97.9046329  79.8492873  40.7681131
  97.2058566  78.9341722  39.7851817  94.1190944  76.9682804  46.5521059
  94.5945065  77.1610450  45.7439910  93.1956509  77.0241990  46.3064443
  81.0074450  78.1306971  36.1352137  80.7620492  77.2269301  36.3332347
  81.1770365  78.1324122  35.1931615  88.6971160  69.0030648  45.5176893
  89.2153104  69.7391675  45.1923381  88.3426293  69.3094641  46.3523652
  80.2770098  73.8635329  33.6338299  79.5839343  73.9379684  32.9778335
  80.0321850  73.0995672  34.1559816  88.9483754  65.4230930  41.0377789
  89.2285508  64.7554119  41.6638216  89.7334361  65.6160026  40.5252453
  86.7517223  84.5989924  32.6002816  86.1791190  85.2180111  32.1473288
  87.3250016  85.1489286  33.1342738  92.8192613  73.8448564  44.7849364
  93.7710035  73.9446662  44.8061588  92.6496063  73.0526833  45.2947449
  90.8406992  70.9304147  44.9708765  90.2456924  71.2109160  44.2755254
  90.5556689  71.4198048  45.7425506  89.9714482  84.8827074  33.7311398
  90.9045156  84.8172636  33.9344273  89.8837695  85.7183341  33.2725931
  92.6002499  84.1992945  30.6915345  92.5216131  83.8652808  31.5851103
  93.4212166  84.6914712  30.6906818  95.2980690  77.0654684  43.8991664
  95.2657010  76.1270685  44.0851348  95.9081314  77.1438721  43.1657489
  87.1364021  75.9350737  29.9418868  88.0823126  75.8056945  30.0107286
  86.7578266  75.1965399  30.4188296  95.4475179  73.8565727  43.9449947
  94.9314227  73.0724184  43.7579876  96.3315127  73.5284444  44.1096467
  93.1085906  67.6006743  39.9045760  92.9110727  67.2921831  40.7889092
  93.7185611  68.3268382  40.0343690 101.1157240  78.1270691  43.0397701
 101.8460629  77.8655979  43.6005404 100.5064186  77.3899413  43.0799769
  99.1972537  76.2678553  43.6372152  98.4705701  76.1334518  43.0288644
  98.7819824  76.5755382  44.4428870  87.0202714  79.9868483  51.4019525
  87.9405723  80.1647082  51.5959572  86.9852297  79.0424528  51.2499224
  85.3206938  73.8600713  29.8773753  84.4138394  73.5633826  29.9536467
  85.5982919  73.5630531  29.0108040  76.2384879  75.1807077  40.3272800
  75.9187663  74.3272385  40.0347174  75.6918307  75.3955655  41.0830767
  80.0164786  77.8969518  44.0442306  80.2350796  78.8286625  44.0630340
  80.4290560  77.5377492  44.8297110  86.9369004  68.4037603  36.0317995
  86.1269732  68.0584688  36.4073241  87.6253421  68.0945147  36.6205606
  88.8659552  67.4815650  37.6542291  89.4190591  67.9011103  38.3132314
  89.1029639  66.5551398  37.6965247  84.8892652  73.4702723  53.4345055
  84.7889378  74.4197080  53.3657146  84.6714194  73.1420962  52.5621125
  84.0905723  70.7187648  30.0185733  84.9524887  71.0442547  30.2781550
  84.2756067  69.9319144  29.5058798  76.1073139  78.8009988  42.2965921
  75.4136610  78.3863941  41.7835876  76.8546130  78.8430525  41.6999340
  92.2438359  69.5916175  37.1620956  91.6637028  70.2500979  36.7799008
  91.9774292  68.7693519  36.7508373  90.6941926  68.9921233  39.3642276
  91.1941704  69.1037767  38.5556595  91.3377534  68.6882285  40.0043084
  84.7523922  76.8999862  52.2510117  84.2691003  77.7000222  52.4574006
  84.8384861  76.9107807  51.2977561  78.0209881  78.7328242  40.1731936
  77.9980569  78.8315929  39.2213819  78.3310518  79.5793393  40.4949102
  80.6797259  80.7904397  44.2878551  81.6340513  80.7588339  44.2208482
  80.4809783  80.3295021  45.1028777  81.2696641  79.3605513  46.8549348
  82.0889530  79.8549592  46.8784186  81.5433449  78.4437481  46.8266916
  91.0263237  71.7516265  36.2177304  90.1389092  72.0365916  35.9997499
  91.4417227  71.5910029  35.3704581  94.3777774  71.7762786  39.9331643
  95.1538164  72.2659239  40.2056260  93.6525908  72.2020840  40.3903513
  96.8150332  72.4890405  40.9905584  97.4094823  72.2486141  40.2798892
  96.8876916  71.7697536  41.6179120  79.0347488  86.3324016  41.3048749
  78.9001956  85.5724417  40.7386747  78.6179550  87.0564916  40.8377537
  90.1706451  81.5160940  30.3125324  90.8742301  81.7210942  30.9282979
  89.4469100  82.0837702  30.5774407  91.0004261  77.2670801  36.4327594
  90.9439463  77.7239353  35.5935226  91.5532604  76.5061486  36.2550437
  94.8109067  73.0560533  37.2577713  94.5546001  72.6557169  38.0885921
  94.1861935  73.7704327  37.1327853  99.1221405  75.7956606  39.7649005
  98.5620963  75.8649796  40.5380567  98.5164908  75.6197591  39.0448501
  82.1916614  87.2293333  41.5167191  82.0748998  88.1738766  41.4145881
  81.3709060  86.9266895  41.9052990  92.0793148  81.9543469  32.3623784
  92.9138752  81.5224668  32.1801259  91.9177491  81.7825483  33.2900678
  91.7339041  78.4575582  33.7280123  91.6787844  78.2919854  32.7868567
  91.1085096  79.1651615  33.8842313  76.5231555  73.6943647  47.5541545
  77.1690419  73.1842601  48.0428771  76.3148707  74.4312328  48.1284971
  89.0484948  80.7624494  53.0533686  89.9176107  80.9365147  52.6920321
  88.5691699  81.5818911  52.9309415  85.0435166  67.9583691  33.3065442
  85.0313836  68.9025531  33.4633712  85.9358588  67.7753837  33.0124903
  83.2171128  87.8821595  44.7323120  84.1198375  87.9145206  45.0489615
  82.9908498  86.9522046  44.7469455  84.9724730  86.6352582  41.3933198
  84.0220361  86.6354443  41.2797570  85.2757216  85.8885316  40.8769233
  88.8587285  64.5526468  37.5611378  88.0919681  63.9984955  37.7068061
  89.2697990  64.6248337  38.4225530  80.8629046  70.8411264  51.6516560
  81.7260508  70.4848069  51.8619884  80.2894457  70.5025159  52.3391964
 100.7077423  92.4713120  42.4578961 101.3455833  92.3519868  41.7542301
 100.5898266  93.4193964  42.5166913  97.5167130  92.4240548  42.3940485
  97.1785641  92.3081613  41.5061020  98.3856898  92.0231713  42.3741491
  93.3753945  94.2776025  38.3837376  92.8118811  94.1865962  37.6153664
  93.2606340  93.4575929  38.8639869  97.9986913  93.5775400  48.3526691
  97.9875553  93.1828198  47.4807194  98.1607552  92.8441473  48.9460462
  90.9218377  95.7727216  41.2221597  91.7139669  95.4318041  40.8067896
  91.1615027  95.8822191  42.1423750  98.9553504  97.9446992  33.6951841
  98.3041484  98.5301073  33.3085855  99.7497867  98.4753187  33.7546879
  92.8809131  95.0336130  34.0938976  93.6540007  94.4865117  33.9551851
  93.2334530  95.8980379  34.3053437  94.7194174  96.3612512  47.3005875
  94.4284040  97.2658143  47.1852541  95.3551158  96.4029039  48.0149944
  95.6450381  93.7389360  43.8907234  96.2413953  93.5145383  43.1764197
  95.7025352  92.9974106  44.4932682  95.2175409  91.1928796  31.7257425
  95.4700930  90.6710317  30.9640888  94.2799968  91.0294941  31.8284109
 100.2618692  90.1964574  39.5332169 101.0481781  89.7783997  39.1822586
 100.5257396  91.1010666  39.7013817 100.4328769  95.6337424  34.2320825
  99.7974602  95.7072051  34.9441730 100.1026176  96.2231023  33.5539905
 105.6627119  90.1339807  40.4365147 106.3952291  89.5639024  40.6702977
 104.9066475  89.7461408  40.8771653  94.9371698  93.0956902  33.9281800
  94.8207956  92.4201805  34.5962885  95.0473958  92.6089276  33.1113953
  97.2803239  92.5567049  37.6328490  96.9161446  92.0297670  38.3441411
  98.1370355  92.1665518  37.4594975 103.1852539  83.8461381  44.8959756
 102.8535864  84.7156792  44.6720971 102.5898153  83.5297665  45.5753786
  96.9208726  87.5856948  32.6289838  97.0883128  88.4537185  32.9960309
  96.7305895  87.7484230  31.7051127  99.6784059  96.0473927  44.2955668
  99.3784782  96.9498966  44.1871476  99.3335118  95.7806111  45.1476821
  93.1296540  92.4987724  40.3292373  92.2047037  92.3663938  40.5370065
  93.3780954  93.2781943  40.8262315 103.0781203  88.5656468  41.9753106
 102.1698080  88.4971876  41.6811867 103.0268798  89.0428412  42.8034931
  96.8997947  90.0414606  33.6136505  96.7797572  90.4871657  34.4521985
  96.2050535  90.3899924  33.0550043  90.4905351  92.1420998  41.1636162
  90.6197733  92.3955477  42.0775574  89.8102803  92.7348706  40.8440817
  97.1522068  89.9846113  49.9188003  96.3755403  90.5440033  49.9090868
  97.7912632  90.4702896  50.4402873 104.9442849  86.7672906  43.7530980
 104.3017229  87.0605439  43.1070774 104.4397778  86.6525826  44.5584176
 102.5983013  90.5136079  34.4416839 103.5100869  90.7463466  34.2664537
 102.0892660  91.0973123  33.8791918  95.4068441  92.7931567  49.4805970
  96.1483125  93.3316610  49.2040794  94.7005426  93.4197855  49.6377522
 100.8823780  94.9360707  48.0778132 101.2907136  94.4943117  47.3332764
 100.1601042  94.3613334  48.3312324  97.2354850  89.8733314  45.4511689
  98.0816046  90.2972727  45.5946338  97.1753488  89.2166938  46.1450252
 101.2052595  95.4961898  41.8330420 100.5761458  95.6607612  41.1306488
 100.8178257  95.9103507  42.6041384 100.3854296  87.5337682  47.1092862
 100.1415228  88.2879743  46.5727138 100.6614226  87.9123030  47.9440109
 102.3392759  94.0776294  45.7870128 102.5509654  94.7208054  45.1104509
 102.2922507  93.2438611  45.3192058  99.9418988  86.6894115  42.6906700
  99.0803467  86.9875369  42.9823437  99.9681422  86.9064514  41.7587733
  96.7580557  95.2336306  39.0980506  97.2218902  95.5124009  38.3085128
  96.4937355  94.3319750  38.9153596  93.6504638  94.7807787  42.0360269
  94.2205995  95.2095056  41.3977753  94.2412750  94.4990372  42.7344454
  95.6949443  91.3559458  35.9070071  96.3973486  91.8080502  36.3743997
  95.3630072  90.7143277  36.5349964  94.1429805  89.9471215  50.2821280
  93.5128465  90.6287496  50.5156677  94.0365892  89.8354296  49.3374418
  89.4374777  89.6143011  41.2087204  88.6473831  89.8700539  40.7327315
  89.9286024  90.4291349  41.3139245  91.3889522  89.9787590  38.1670681
  90.5920686  90.0906284  38.6854177  91.1615115  90.3174242  37.3011571
  97.2195190  96.5032293  46.1153196  97.2839622  96.9652700  46.9511367
  96.5106114  95.8729658  46.2435505  87.7212480  89.8673501  43.6402195
  87.9720518  90.7520511  43.9059771  88.2572028  89.6878103  42.8677287
  96.9343208  98.1700401  35.9832176  96.7988882  99.0151936  36.4117024
  97.4753020  98.3719678  35.2198110  93.4210547  84.2491981  52.6446531
  93.0277493  83.6958179  53.3194175  94.2376688  84.5602559  53.0353049
  90.3872605  95.6875839  36.5560101  90.8997126  96.4819089  36.7065666
  91.0395318  94.9902129  36.4893702  92.1967490  98.8041595  38.6382854
  92.3734118  99.7259560  38.4503838  92.9924323  98.4900014  39.0677234
  96.3378508  85.6649860  50.2366788  97.0788222  86.2657013  50.1571250
  96.5696431  84.9227497  49.6784830  91.4819846  90.8506227  48.5145017
  91.3673361  89.9491484  48.8152116  90.6264364  91.0969924  48.1629834
  93.3198805 100.3219769  44.6393197  93.8706230 100.1936832  43.8670190
  92.4810281 100.6214658  44.2888089  97.1165976  96.5870897  48.9837428
  97.6494313  95.8259185  48.7536736  96.5880057  96.2944548  49.7261582
 100.2835671  81.6930963  44.5131069  99.9399941  82.5832604  44.4370180
 100.6514634  81.5032620  43.6500654  88.3521522  94.0164493  37.3319672
  89.1896744  94.4261501  37.1153379  88.5299790  93.0763935  37.3019865
 100.2485954  91.6839574  33.0203504  99.7332577  92.4544178  33.2591892
  99.9763262  91.0104710  33.6436566  97.8333065  86.5289274  38.0788743
  96.9774661  86.1396125  37.8994382  98.2460017  86.6081235  37.2188528
  99.3632212  84.0635618  42.4780303  98.8597007  84.0265753  41.6648108
  99.6562818  84.9728360  42.5376959  95.6075097  84.1474347  41.4846484
  96.4728094  83.9517156  41.1252374  95.6752606  83.9184699  42.4115841
 100.0372257  89.5566666  34.8463286  99.7322393  89.8712815  35.6973429
 100.9902699  89.6348086  34.8890619  98.4818689  95.7156889  36.4956240
  97.9540051  94.9809649  36.1829477  97.9806192  96.4931565  36.2496208
 103.4611535  93.9105910  41.6123286 102.8035209  94.6005171  41.7003415
 104.2651934  94.3002342  41.9557272  93.2137417  86.3776555  38.8562851
  93.7881168  86.1551737  38.1236044  93.8008399  86.4465250  39.6091452
 102.2716994  92.2650282  39.6627228 102.7848876  92.8980274  40.1648937
 102.9218218  91.6651478  39.2970588  93.5407004  88.4081016  32.8758736
  92.7044316  88.7455703  33.1968011  93.4011773  88.2729996  31.9385873
  95.5160084  83.2517804  37.5837921  94.8624497  82.9366821  36.9594535
  95.4740558  82.6293545  38.3097744  96.6271289  93.5337099  29.4991213
  95.7198351  93.3026353  29.6982362  97.1242321  92.7374719  29.6865194
  98.7497825  89.7399738  41.9085568  97.8320386  89.9614685  41.7507256
  99.1657968  89.8146048  41.0497276  99.5332872  91.1391153  37.0388248
 100.2804691  91.6512551  36.7295371  99.8024462  90.8175206  37.8992642
  97.8059523  93.6349694  34.0215203  96.8970742  93.3508727  34.1187673
  97.8354606  94.0548773  33.1618510 101.9811710  88.1748270  39.0207038
 101.2434466  87.6625656  39.3517280 102.2338483  87.7348651  38.2090315
 102.0823337  80.9524522  39.6148807 102.3882214  80.0921885  39.3274722
 102.8075942  81.5442142  39.4147801  88.3747693  91.3555208  38.0030405
  88.1772093  90.7624569  37.2781472  87.8194357  91.0507419  38.7206344
  96.3544417  91.2478315  40.1224998  96.4093026  90.2952151  40.0467475
  95.5435619  91.4037754  40.6066297  97.5035610  95.1758438  31.3603281
  97.0655040  94.4594297  30.9008919  98.2446051  95.4034553  30.7988373
  94.2936777  89.8655375  37.8815377  93.4804642  90.1649545  38.2880569
  94.7895771  89.4711063  38.5989859  96.4445354  99.8613131  39.8149642
  96.4021533 100.0873978  38.8858174  97.3608053  99.6276506  39.9635443
  99.8910988  90.3297199  46.7130271 100.2460376  90.5568672  47.5724737
 100.5383119  90.6615576  46.0907526 105.6208725  93.4515635  37.4179600
 105.4826624  93.6417231  36.4900789 105.2644944  94.2135018  37.8747651
  93.7850851  87.4373730  43.4976612  94.4250231  87.2962489  42.7999575
  92.9528382  87.1508243  43.1215214  94.5611155  96.7376160  39.6111604
  95.3551754  96.2426481  39.4094179  93.8502848  96.2094024  39.2479310
  90.8693919  90.8819242  35.6871357  89.9391507  90.8203698  35.9041319
  90.9651391  90.3595195  34.8907998  90.7879468  87.4074055  38.2749599
  91.0486285  88.3219388  38.1658759  91.6096640  86.9398498  38.4246212
  92.2604393  88.8211812  45.4448423  92.9327446  88.6129174  44.7961072
  91.4334180  88.6233898  45.0053656  98.1629965  85.4473753  47.4614084
  97.5157880  86.1463703  47.3678561  98.9330980  85.8809897  47.8290332
 101.5708763  95.7122605  50.5364637 101.4194269  95.4833157  49.6194721
 101.5613442  96.6693207  50.5495982  98.3394099  93.2854518  45.5210904
  99.2686159  93.4365678  45.3479871  97.9185129  93.3738539  44.6659550
  97.1382431  97.3105182  43.2909442  96.9993517  96.9423967  44.1635380
  96.3497027  97.8252822  43.1193399  98.6887646  96.6886785  40.6798279
  98.3537479  96.6487555  41.5755929  98.1891592  96.0231501  40.2068690
  92.6631890  92.0954415  46.2050860  92.5251688  91.3634654  46.8062399
  93.5736814  92.0063315  45.9235048  95.2914191  91.8074375  45.6934540
  96.0013809  91.1667567  45.6521159  95.2483499  92.0587269  46.6160721
  94.0043125  88.7939592  47.5130180  93.4680482  88.3430331  48.1651776
  93.4159833  88.9285501  46.7700644  93.4145384  88.2528244  30.0756643
  92.5374850  88.1317045  29.7118890  93.8903137  87.4614322  29.8235532
  84.9347524  93.0405404  40.1698150  85.6218564  92.7267134  39.5819166
  84.7795653  93.9446768  39.8965402  89.7382246  87.9295600  44.5983174
  89.6540435  87.3221270  43.8633584  88.9164953  88.4204618  44.5992670
  99.9105960  86.4149164  39.9653369 100.4074660  85.6619126  39.6454439
  99.1392942  86.4513480  39.3996578 100.9935741  95.1720851  37.5391793
 100.0592019  95.2922313  37.3696497 101.1712409  94.2693318  37.2751802
  96.4940929  88.5566547  39.6925054  96.1238716  88.0037587  40.3805959
  96.9900021  87.9524680  39.1400054 104.3808292  91.0138170  38.0741827
 104.8468744  91.8466162  38.0002129 104.8315793  90.5483152  38.7787085
  94.3230127  99.0164042  46.7880072  95.0239587  99.6500525  46.9409466
  93.8525242  99.3578773  46.0275711 102.3524955  83.3818757  42.1132728
 101.4388035  83.6122984  42.2814935 102.7818056  83.4657201  42.9646760
 102.1231413  91.5708649  44.6132622 101.4702864  91.8184557  43.9585075
 102.5011793  90.7572787  44.2795099  98.1718986  92.3128460  51.0998659
  97.4959623  92.2122589  51.7701034  98.9946620  92.1567674  51.5634656
  89.9197845  98.5500397  43.7211174  90.5051282  97.8044085  43.8539079
  89.7222684  98.8604353  44.6047838  92.7736501 101.5851644  38.7373617
  92.1046876 102.0697772  38.2537657  92.6349370 101.8320865  39.6516995
  84.5115500  91.1205997  42.4415618  84.5499600  90.5869588  43.2352736
  84.0055793  90.5941202  41.8226595  91.8906262  85.9670537  45.9378160
  91.9547589  86.8285368  45.5255557  91.8273383  85.3544539  45.2050518
  91.3658535  88.0393670  49.5851194  91.9930574  87.6570747  50.1988718
  90.5086454  87.8207872  49.9506887  88.1424078  89.8470099  35.5169549
  88.4377519  88.9380777  35.4636603  87.2412113  89.8257839  35.1950551
  91.6718325  87.9226096  41.4997097  90.9504910  88.5362063  41.3604571
  92.4611580  88.4583860  41.4213743  94.4744638  85.2580522  47.7737749
  94.9979040  85.5042819  48.5364059  94.2556972  86.0900557  47.3540887
  89.8711919  87.5284197  35.6408874  89.5424625  86.6481576  35.4583980
  90.2251290  87.4731865  36.5285263  92.9853742  87.8157167  36.0084352
  93.3249815  88.3443088  35.2862960  93.4325863  88.1537573  36.7842918
  95.6797183  86.1994217  45.4587420  95.3394004  85.4002030  45.8608100
  94.9736190  86.4995928  44.8864253  96.3313655  83.2843530  43.9114743
  97.1539724  82.8104008  43.7893633  96.5751719  84.0634013  44.4113429
  94.9721890  86.3131788  34.2077644  95.6930252  86.6913041  33.7041361
  94.3487194  87.0320665  34.3112622  99.1153012  87.0176937  35.1435977
  99.3316627  87.9001575  34.8424805  98.6347080  86.6263150  34.4141619
  93.8552234  89.9762650  41.7206721  93.7096815  90.2902953  42.6131003
  93.3777438  90.5947551  41.1677620  95.7148617  86.9665198  41.7687611
  95.7010186  86.0706292  41.4319909  96.4321045  86.9735862  42.4025897
  97.5674747  87.4002539  43.8140738  97.3092525  88.3219609  43.8125069
  97.0359788  87.0032973  44.5041203  88.3297896  92.5167995  44.6594383
  87.7851364  93.2927803  44.7914657  89.2077246  92.8638799  44.5013504
  95.1185513  85.8479579  37.0375181  95.2401424  84.9196225  37.2366069
  94.8287555  85.8618265  36.1253497  97.9876703  83.5334489  40.1741901
  98.0098400  83.5973822  39.2193880  98.4044762  82.6938998  40.3682407
  89.1163918  91.6437891  47.5524539  88.3745654  91.7920526  48.1389170
  88.7956662  91.9046157  46.6891289  89.5620532  99.5303320  39.5834934
  90.3878551  99.2307092  39.2033578  89.2114584  98.7610942  40.0324723
  94.5302065  98.8829788  41.6532608  93.9082074  98.2200493  41.3534836
  95.2006932  98.9090920  40.9706255  87.7629137  97.4489646  40.5423868
  86.9261045  97.0211821  40.3607869  87.7352782  97.6422090  41.4794659
  94.6026592  87.3611576  51.2465114  94.6514748  88.2373699  50.8642883
  95.1449106  86.8188969  50.6736757  94.0915572  97.4333711  35.1291068
  94.2403692  98.1169176  34.4757741  94.8982015  97.4138801  35.6440524
 102.4983075  90.7376094  49.1558286 103.3992938  90.5982558  48.8642284
 102.5731050  90.9030548  50.0956463  96.8325881  88.1142948  48.0011472
  95.9629190  88.4076514  47.7294061  97.0685361  88.6983393  48.7218736
 104.9584698  92.2974722  46.5521059 105.4338820  92.4902368  45.7439910
 104.0350263  92.3533908  46.3064443  91.8468205  93.4598889  36.1352137
  91.6014247  92.5561219  36.3332347  92.0164119  93.4616039  35.1931615
  99.5364915  84.3322565  45.5176893 100.0546858  85.0683592  45.1923381
  99.1820047  84.6386559  46.3523652  91.1163852  89.1927246  33.6338299
  90.4233097  89.2671601  32.9778335  90.8715604  88.4287590  34.1559816
  99.7877509  80.7522848  41.0377789 100.0679262  80.0846037  41.6638216
 100.5728116  80.9451943  40.5252453 103.6586367  89.1740482  44.7849364
 104.6103790  89.2738579  44.8061588 103.4889817  88.3818750  45.2947449
 101.6800746  86.2596065  44.9708765 101.0850679  86.5401078  44.2755254
 101.3950443  86.7489966  45.7425506 106.1374445  92.3946602  43.8991664
 106.1050765  91.4562602  44.0851348 106.7475068  92.4730638  43.1657489
  97.9757776  91.2642654  29.9418868  98.9216880  91.1348863  30.0107286
  97.5972021  90.5257316  30.4188296 106.2868933  89.1857645  43.9449947
 105.7707982  88.4016102  43.7579876 107.1708882  88.8576362  44.1096467
 103.9479660  82.9298661  39.9045760 103.7504481  82.6213749  40.7889092
 104.5579366  83.6560299  40.0343690  97.8596468  95.3160401  51.4019525
  98.7799478  95.4939000  51.5959572  97.8246051  94.3716446  51.2499224
  96.1600693  89.1892631  29.8773753  95.2532148  88.8925744  29.9536467
  96.4376674  88.8922449  29.0108040  87.0778633  90.5098994  40.3272800
  86.7581418  89.6564302  40.0347174  86.5312061  90.7247572  41.0830767
  90.8558541  93.2261435  44.0442306  91.0744551  94.1578543  44.0630340
  91.2684315  92.8669410  44.8297110  97.7762759  83.7329521  36.0317995
  96.9663487  83.3876606  36.4073241  98.4647175  83.4237064  36.6205606
  99.7053307  82.8107567  37.6542291 100.2584345  83.2303021  38.3132314
  99.9423393  81.8843315  37.6965247  95.7286406  88.7994641  53.4345055
  95.6283133  89.7488998  53.3657146  95.5107948  88.4712880  52.5621125
  94.9299477  86.0479566  30.0185733  95.7918641  86.3734464  30.2781550
  95.1149822  85.2611062  29.5058798  86.9466893  94.1301906  42.2965921
  86.2530365  93.7155859  41.7835876  87.6939884  94.1722442  41.6999340
 103.0832114  84.9208093  37.1620956 102.5030783  85.5792897  36.7799008
 102.8168047  84.0985437  36.7508373 101.5335680  84.3213150  39.3642276
 102.0335459  84.4329685  38.5556595 102.1771288  84.0174203  40.0043084
  95.5917676  92.2291780  52.2510117  95.1084758  93.0292140  52.4574006
  95.6778615  92.2399725  51.2977561  88.8603636  94.0620160  40.1731936
  88.8374324  94.1607847  39.2213819  89.1704272  94.9085310  40.4949102
  91.5191014  96.1196315  44.2878551  92.4734267  96.0880257  44.2208482
  91.3203537  95.6586938  45.1028777  92.1090396  94.6897431  46.8549348
  92.9283285  95.1841509  46.8784186  92.3827203  93.7729399  46.8266916
 101.8656992  87.0808183  36.2177304 100.9782847  87.3657834  35.9997499
 102.2810981  86.9201946  35.3704581 105.2171528  87.1054704  39.9331643
 105.9931918  87.5951156  40.2056260 104.4919662  87.5312758  40.3903513
 107.6544087  87.8182323  40.9905584 108.2488578  87.5778059  40.2798892
 107.7270670  87.0989454  41.6179120  89.8741242 101.6615934  41.3048749
  89.7395710 100.9016335  40.7386747  89.4573305 102.3856834  40.8377537
 101.8398016  92.5962719  36.4327594 101.7833217  93.0531270  35.5935226
 102.3926358  91.8353403  36.2550437 105.6502822  88.3852451  37.2577713
 105.3939756  87.9849086  38.0885921 105.0255690  89.0996245  37.1327853
 102.5732795  93.7867500  33.7280123 102.5181599  93.6211772  32.7868567
 101.9478850  94.4943533  33.8842313  87.3625310  89.0235564  47.5541545
  88.0084174  88.5134518  48.0428771  87.1542461  89.7604246  48.1284971
  99.8878702  96.0916412  53.0533686 100.7569862  96.2657064  52.6920321
  99.4085454  96.9110829  52.9309415  95.8828920  83.2875609  33.3065442
  95.8707590  84.2317449  33.4633712  96.7752342  83.1045755  33.0124903
  99.6981040  79.8818386  37.5611378  98.9313436  79.3276872  37.7068061
 100.1091745  79.9540255  38.4225530  91.7022801  86.1703182  51.6516560
  92.5654263  85.8139986  51.8619884  91.1288212  85.8317076  52.3391964
  40.5225403  -3.2784954  34.0251181  40.2315269  -2.3739323  33.9097848
  41.1582387  -3.2368426  34.7395251  41.4481609  -5.9008105  30.6152541
  42.0445182  -6.1252083  29.9009504  41.5056581  -6.6423360  31.2177989
  45.4815288  -3.5923538  31.0200975  45.1816011  -2.6898500  30.9116782
  45.1366347  -3.8591355  31.8722128  40.4636068   3.1720782  23.9871943
  40.3860097   4.1228607  24.0660423  39.8597711   2.8266654  24.6446869
  41.2099670  -6.8465899  36.2051277  41.9514354  -6.3080855  35.9286100
  40.5036655  -6.2199611  36.3622829  46.6855009  -4.7036759  34.8023438
  47.0938365  -5.1454348  34.0578071  45.9632271  -5.2784131  35.0557631
  47.0083824  -4.1435568  28.5575727  46.3792686  -3.9789854  27.8551795
  46.6209486  -3.7293959  29.3286691  50.8873056  -3.2081130  25.9120091
  50.2024094  -2.8282229  25.3617124  50.9716905  -2.5985804  26.6452039
  39.4535867  -4.8589679  28.7605575  40.0237224  -4.4302410  28.1223060
  40.0443979  -5.1407094  29.4589761  49.2569815  -2.6849216  30.6837792
  50.0787259  -3.0869029  30.4020473  49.2532218  -2.7880982  31.6353908
  43.0226419  -3.1365173  32.8398502  43.0870851  -2.6744765  33.6756674
  42.3137343  -3.7667808  32.9680812  44.3642913  -0.8473499  36.8377825
  43.9206767  -1.6337120  36.5198729  45.0260126  -0.6594348  36.1721715
  39.1230034   0.6822303  31.3638503  39.6737459   0.5539366  30.5915497
  38.2841510   0.9817192  31.0133396  46.4624151  -0.5670699  34.8659226
  46.4442626   0.2538182  34.3739495  47.3844071  -0.6916623  35.0909367
  42.9197205  -3.0526569  35.7082734  43.4525542  -3.8138281  35.4782042
  42.3911286  -3.3452917  36.4506889  48.8410019  -2.3941182  24.5151677
  48.3872346  -3.2350272  24.5716867  48.2103985  -1.7579784  24.8526457
  47.2842958  -0.5564685  25.4501495  47.5765932   0.0040372  24.7313861
  47.7941579  -0.2636124  26.2054654  42.2476583   0.2215666  26.5394948
  42.2052762   0.4476512  25.6103480  43.1639282  -0.0120960  26.6880749
  45.1837228  -0.5203210  30.6869279  45.2374251   0.0487727  31.4546995
  44.3152010  -0.3501325  30.3223316  47.3739992  -3.9274860  37.2609944
  47.2225498  -4.1564309  36.3440028  47.3644671  -2.9704259  37.2741289
  44.1425328  -6.3542948  32.2456211  45.0717388  -6.2031788  32.0725178
  43.7216358  -6.2658927  31.3904857  42.9413660  -2.3292283  30.0154748
  42.8024746  -2.6973499  30.8880686  42.1528256  -1.8144644  29.8438706
  44.4918875  -2.9510681  27.4043586  44.1568708  -2.9909911  28.3001236
  43.9922821  -3.6165965  26.9313996  38.4663119  -7.5443051  32.9296167
  38.3282917  -8.2762812  33.5307706  39.3768043  -7.6334150  32.6480355
  49.0832198  -0.8955738  35.3386426  49.0244745  -1.5796518  34.6717009
  49.4851717  -0.1536748  34.8867052  38.1022897   5.9206176  28.1320145
  38.3419495   6.5524700  28.8099163  37.2592094   5.5694216  28.4185504
  49.0849606  -2.9316154  33.5700406  48.1976384  -3.2690232  33.6926804
  49.6548157  -3.6633123  33.8069171  42.6150759   1.7285298  30.5361649
  42.5420931   2.5340270  31.0480953  42.1728152   1.9277264  29.7109670
  42.4040539   0.9657068  24.0464470  41.6208061   1.5078749  24.1402695
  43.1033284   1.4831048  24.4458712  45.0749443   1.6272132  32.6919807
  45.7877415   2.2619597  32.6195709  44.5839471   1.7235998  31.8759809
  40.1261356  -0.6233424  33.5125378  40.8270816   0.0103059  33.6654773
  39.6556471  -0.2818693  32.7521018  44.8869816   1.9670877  25.4406099
  45.0692211   1.1492532  25.9033851  45.7102802   2.1838569  25.0030989
  35.7229074  -1.0897069  30.4456481  36.3082511  -1.8353381  30.5784385
  35.5253913  -0.7793112  31.3293145  38.5767729   1.9454178  25.4618923
  37.9078105   2.4300306  24.9782963  38.4380599   2.1923399  26.3762302
  42.7172998   3.9797922  32.0601582  43.2691306   4.1429543  32.8250667
  43.0579191   4.5702360  31.3881607  47.5683872  -1.1940821  37.9150236
  48.1123776  -0.5810862  37.4205191  46.9870717  -0.6361242  38.4317249
  45.8541385   1.9279897  29.0465264  45.7292525   1.1269637  28.5376209
  46.5120476   2.4226091  28.5579234  47.9176294  -0.2711083  30.6744814
  46.9706629  -0.3905731  30.6023141  48.2659067  -1.1588585  30.7571075
  44.9222727  -0.4758366  26.8749166  44.7747689  -1.4041659  27.0556736
  45.7476220  -0.4538276  26.3906241  48.5256849   0.3470192  27.9614039
  49.4503396   0.1413054  27.8238490  48.3572152   0.0986594  28.8703380
  48.3152165   0.8655860  23.3176130  48.4889043   0.3002282  22.5649983
  48.8081056   1.6656755  23.1355620  42.8638809   1.5456403  34.0750236
  43.1725936   1.3005550  34.9472936  43.6614291   1.7503042  33.5869106
  42.8859421   3.6994313  26.3055613  42.4464412   3.2070692  26.9988469
  43.6367538   3.1567281  26.0647688  40.3333294  -0.7567678  28.3777914
  39.7113303  -1.4196973  28.0780142  41.0038160  -0.7306546  27.6951562
  50.8912667  -1.7344767  37.2511557  50.1008210  -1.7520628  36.7116057
  50.6546021  -1.1956473  38.0060594  52.5128739  -2.4655359  34.8086307
  52.2213547  -2.1025378  35.6449768  51.9000870  -3.1788350  34.6299640
  43.6627697  -4.3237065  38.1264832  44.5830706  -4.1458466  38.3204878
  43.6277280  -5.2681020  37.9744531  36.6589770  -6.4136031  30.7687613
  36.8775779  -5.4818923  30.7875647  37.0715543  -6.7728056  31.5542417
  41.3948905  -7.4105686  38.9755423  40.9115987  -6.6105326  39.1819313
  41.4809844  -7.3997741  38.0222867  37.3222242  -3.5201151  31.0123857
  38.2765496  -3.5517209  30.9453789  37.1234766  -3.9810527  31.8274083
  37.9121625  -4.9500035  33.5794655  38.7314514  -4.4555957  33.6029492
  38.1858432  -5.8668067  33.5512222  35.6772471   2.0218468  28.0294055
  35.5426939   1.2618869  27.4632053  35.2604533   2.7459368  27.5622844
  38.8341597   2.9187785  28.2412498  38.7173981   3.8633218  28.1391188
  38.0134043   2.6161347  28.6298297  45.6909931  -3.5481054  39.7778993
  46.5601091  -3.3740402  39.4165627  45.2116682  -2.7286637  39.6554722
  39.8596111   3.5716047  31.4568426  40.7623358   3.6039657  31.7734921
  39.6333481   2.6416498  31.4714762  41.6149713   2.3247034  28.1178505
  40.6645344   2.3248895  28.0042877  41.9182199   1.5779768  27.6014539
  57.3502407   8.1607572  29.1824267  57.9880817   8.0414319  28.4787607
  57.2323250   9.1088416  29.2412219  54.1592113   8.1135000  29.1185792
  53.8210625   7.9976065  28.2306327  55.0281881   7.7126165  29.0986798
  50.0178929   9.9670477  25.1082683  49.4543794   9.8760414  24.3398971
  49.9031324   9.1470381  25.5885175  54.6411896   9.2669852  35.0771997
  54.6300537   8.8722650  34.2052501  54.8032535   8.5335925  35.6705769
  47.5643361  11.4621668  27.9466903  48.3564653  11.1212493  27.5313203
  47.8040011  11.5716643  28.8669057  55.5978487  13.6341444  20.4197148
  54.9466467  14.2195525  20.0331162  56.3922850  14.1647639  20.4792185
  49.5234115  10.7230581  20.8184282  50.2964991  10.1759569  20.6797158
  49.8759513  11.5874831  21.0298744  51.3619157  12.0506964  34.0251181
  51.0709023  12.9552595  33.9097848  51.9976141  12.0923491  34.7395251
  52.2875364   9.4283812  30.6152541  52.8838936   9.2039835  29.9009504
  52.3450336   8.6868558  31.2177989  51.8600392   6.8823248  18.4502732
  52.1125913   6.3604769  17.6886195  50.9224951   6.7189393  18.5529416
  56.9043675   5.8859026  26.2577475  57.6906764   5.4678449  25.9067892
  57.1682380   6.7905118  26.4259124  57.0753753  11.3231876  20.9566132
  56.4399586  11.3966503  21.6687037  56.7451159  11.9125475  20.2785211
  62.3052102   5.8234259  27.1610454  63.0377274   5.2533476  27.3948283
  61.5491458   5.4355860  27.6016959  51.5796681   8.7851354  20.6527107
  51.4632939   8.1096257  21.3208191  51.6898941   8.2983727  19.8359260
  53.9228222   8.2461501  24.3573796  53.5586429   7.7192122  25.0686718
  54.7795338   7.8559970  24.1840282  59.8277523  -0.4644167  31.6205062
  59.4960847   0.4051244  31.3966277  59.2323136  -0.7807883  32.2999093
  53.5633709   3.2751400  19.3535145  53.7308111   4.1431637  19.7205616
  53.3730878   3.4378682  18.4296434  56.3209042  11.7368379  31.0200975
  56.0209765  12.6393418  30.9116782  55.9760102  11.4700562  31.8722128
  49.7721524   8.1882176  27.0537680  48.8472020   8.0558390  27.2615371
  50.0205937   8.9676395  27.5507622  59.7206186   4.2550919  28.6998412
  58.8123063   4.1866328  28.4057173  59.6693782   4.7322864  29.5280238
  53.5422930   5.7309058  20.3381812  53.4222555   6.1766109  21.1767292
  52.8475518   6.0794376  19.7795350  47.1330335   7.8315450  27.8881469
  47.2622716   8.0849929  28.8020880  46.4527786   8.4243158  27.5686124
  51.3029822  18.5012700  23.9871943  51.2253852  19.4520525  24.0660423
  50.6991466  18.1558572  24.6446869  53.7947052   5.6740565  36.6433310
  53.0180386   6.2334485  36.6336174  54.4337615   6.1597348  37.1648180
  61.5867832   2.4567358  30.4776286  60.9442213   2.7499891  29.8316081
  61.0822761   2.3420278  31.2829483  59.2407996   6.2030531  21.1662146
  60.1525852   6.4357918  20.9909843  58.7317643   6.7867575  20.6037224
  52.0493424   8.4826018  36.2051277  52.7908108   9.0211062  35.9286100
  51.3430410   9.1092307  36.3622829  57.5248764  10.6255159  34.8023438
  57.9332120  10.1837569  34.0578071  56.8026025  10.0507786  35.0557631
  53.8779834   5.5627766  32.1756995  54.7241029   5.9867179  32.3191644
  53.8178471   4.9061390  32.8695558  57.8477578  11.1856349  28.5575727
  57.2186441  11.3502064  27.8551795  57.4603240  11.5997959  29.3286691
  61.7266810  12.1210787  25.9120091  61.0417848  12.5009689  25.3617124
  61.8110660  12.7306114  26.6452039  57.0279279   3.2232134  33.8338169
  56.7840211   3.9774195  33.2972444  57.3039210   3.6017482  34.6685416
  58.9817742   9.7670746  32.5115434  59.1934637  10.4102506  31.8349815
  58.9347490   8.9333063  32.0437364  56.5843971   2.3788567  29.4152007
  55.7228450   2.6769821  29.7068744  56.6106405   2.5958966  28.4833039
  53.4005540  10.9230758  25.8225812  53.8643886  11.2018461  25.0330435
  53.1362338  10.0214202  25.6398903  50.2929621  10.4702239  28.7605575
  50.8630978  10.8989507  28.1223060  50.8837733  10.1884824  29.4589761
  52.3374426   7.0453910  22.6315377  53.0398470   7.4974954  23.0989304
  52.0055055   6.4037729  23.2595270  50.7854788   5.6365667  37.0066587
  50.1553448   6.3181947  37.2401984  50.6790876   5.5248748  36.0619725
  46.0799760   5.3037463  27.9332511  45.2898814   5.5594991  27.4572622
  46.5711008   6.1185800  28.0384551  60.0963570  12.6442702  30.6837792
  60.9181014  12.2422889  30.4020473  60.0925973  12.5410936  31.6353908
  48.0314506   5.6682042  24.8915988  47.2345669   5.7800736  25.4099483
  47.8040098   6.0068694  24.0256878  53.8620173  12.1926745  32.8398502
  53.9264606  12.6547152  33.6756674  53.1531097  11.5624110  32.9680812
  44.3637463   5.5567953  30.3647502  44.6145502   6.4414963  30.6305078
  44.8997012   5.3772555  29.5922594  68.1869563   8.9881450  27.0322763
  67.4333271   8.4188848  26.8766768  68.3217104   8.9544115  27.9793398
  53.5768191  13.8594853  22.7077483  53.4413866  14.7046388  23.1362330
  54.1178003  14.0614130  21.9443416  50.0635531  -0.0613568  39.3691838
  49.6702476  -0.6147369  40.0439482  50.8801671   0.2497011  39.7598355
  47.0297588  11.3770291  23.2805408  47.5422109  12.1713541  23.4310972
  47.6820301  10.6796581  23.2139009  48.8392473  14.4936047  25.3628161
  49.0159101  15.4154012  25.1749145  49.6349307  14.1794466  25.7922541
  52.9803492   1.3544312  36.9612094  53.7213205   1.9551465  36.8816557
  53.2121414   0.6121949  36.4030137  48.1244830   6.5400679  35.2390324
  48.0098345   5.6385936  35.5397423  47.2689347   6.7864376  34.8875141
  55.2036667  14.4818419  36.8377825  54.7600521  13.6954798  36.5198729
  55.8653881  14.6697570  36.1721715  49.9623788  16.0114221  31.3638503
  50.5131214  15.8831284  30.5915497  49.1235264  16.3109110  31.0133396
  57.3017905  14.7621219  34.8659226  57.2836381  15.5830100  34.3739495
  58.2237825  14.6375294  35.0909367  53.7590960  12.2765348  35.7082734
  54.2919296  11.5153637  35.4782042  53.2305041  11.9839000  36.4506889
  44.9946505   9.7058945  24.0564978  45.8321727  10.1155953  23.8398686
  45.1724773   8.7658387  24.0265172  56.8910937   7.3734026  19.7448811
  56.3757561   8.1438630  19.9837199  56.6188246   6.6999162  20.3681873
  54.4758048   2.2183726  24.8034050  53.6199645   1.8290577  24.6239688
  54.8885000   2.2975687  23.9433835  56.0057195  -0.2469930  29.2025609
  55.5021990  -0.2839795  28.3893415  56.2987802   0.6622812  29.2622266
  52.2500081  -0.1631201  28.2091791  53.1153078  -0.3588392  27.8497680
  52.3177590  -0.3920849  29.1361148  61.8645211  10.1266380  21.6801985
  61.0874654   9.7877540  21.2357147  62.5436692  10.1319003  21.0056950
  56.6797240   5.2461118  21.5708592  56.3747376   5.5607267  22.4218736
  57.6327683   5.3242538  21.6135925  55.1243672  11.4051341  23.2201546
  54.5965034  10.6704101  22.9074784  54.6231175  12.1826017  22.9741515
  60.1036518   9.6000361  28.3368593  59.4460193  10.2899623  28.4248721
  60.9076917   9.9896793  28.6802579  49.8562400   2.0671007  25.5808158
  50.4306152   1.8446189  24.8481351  50.4433382   2.1359702  26.3336759
  58.9141977   7.9544734  26.3872534  59.4273859   8.5874726  26.8894244
  59.5643201   7.3545930  26.0215894  52.1585068  -1.0587744  24.3083227
  51.5049480  -1.3738727  23.6839842  52.1165542  -1.6812003  25.0343050
  53.2696272   9.2231551  16.2236519  52.3623334   8.9920805  16.4227668
  53.7667304   8.4269170  16.4110501  56.1764351  17.9329058  19.1433205
  55.5026050  18.2360755  19.7518163  56.5630173  18.7358139  18.7938663
  55.3922808   5.4294190  28.6330875  54.4745369   5.6509137  28.4752563
  55.8082952   5.5040500  27.7742582  56.1757856   6.8285605  23.7633555
  56.9229675   7.3407003  23.4540677  56.4449445   6.5069658  24.6237949
  54.4484506   9.3244146  20.7460509  53.5395725   9.0403179  20.8432979
  54.4779590   9.7443225  19.8863816  59.6803773  12.9350736  24.5151677
  59.2266100  12.0941645  24.5716867  59.0497740  13.5712134  24.8526457
  58.6236693   3.8642722  25.7452344  57.8859450   3.3520108  26.0762587
  58.8763466   3.4243103  24.9335621  58.1236713  14.7727232  25.4501495
  58.4159687  15.3332289  24.7313861  58.6335333  15.0655793  26.2054654
  45.0172676   7.0449660  24.7275712  44.8197076   6.4519021  24.0026778
  44.4619340   6.7401870  25.4451650  52.9969400   6.9372767  26.8470305
  53.0518010   5.9846603  26.7712781  52.1860602   7.0932206  27.3311603
  54.1460594  10.8652890  18.0848588  53.7080024  10.1488749  17.6254225
  54.8871035  11.0929005  17.5233679  50.9361760   5.5549826  24.6060684
  50.1229625   5.8543997  25.0125876  51.4320754   5.1605515  25.3235166
  53.0870338  15.5507583  26.5394948  53.0446516  15.7768430  25.6103480
  54.0033037  15.3170958  26.6880749  56.5335972   6.0191651  33.4375578
  56.8885359   6.2463124  34.2970043  57.1808103   6.3510028  32.8152833
  62.2633708   9.1410087  24.1424907  62.1251607   9.3311683  23.2146096
  61.9069927   9.9029470  24.5992958  50.4275835   3.1268182  30.2221919
  51.0675214   2.9856941  29.5244882  49.5953365   2.8402695  29.8460521
  62.2903088  11.2086614  29.1536178  62.7239595  11.1161903  30.0019232
  63.0034669  11.1844114  28.5156194  51.2036138  12.4270612  26.3356911
  51.9976737  11.9320933  26.1339486  50.4927831  11.8988476  25.9724617
  56.0230983  14.8088708  30.6869279  56.0768005  15.3779644  31.4546995
  55.1545764  14.9790593  30.3223316  47.5118902   6.5713694  22.4116664
  46.5816490   6.5098150  22.6286626  47.6076374   6.0489647  21.6153305
  47.4304451   3.0968507  24.9994905  47.6911268   4.0113840  24.8904066
  48.2521623   2.6292950  25.1491518  48.9029376   4.5106264  32.1693730
  49.5752430   4.3023626  31.5206379  48.0759163   4.3128350  31.7298962
  63.1518638  11.2510314  31.6869063  63.3454528  12.1556125  31.9328338
  63.0519256  10.7917734  32.5207648  54.8054948   1.1368205  34.1859391
  54.1582863   1.8358155  34.0923867  55.5755964   1.5704349  34.5535639
  58.2133746  11.4017057  37.2609944  58.0619253  11.1727609  36.3440028
  58.2038426  12.3587659  37.2741289  54.9819083   8.9748970  32.2456211
  55.9111143   9.1260130  32.0725178  54.5610113   9.0632991  31.3904857
  53.7807414  12.9999634  30.0154748  53.6418500  12.6318419  30.8880686
  52.9922011  13.5147274  29.8438706  54.3755566  18.1008731  21.3580285
  54.5507322  17.6296774  22.1725907  53.6888354  18.7274497  21.5861545
  55.3312630  12.3781237  27.4043586  54.9962462  12.3382007  28.3001236
  54.8316575  11.7125953  26.9313996  49.3056874   7.7848867  32.9296167
  49.1676672   7.0529106  33.5307706  50.2161797   7.6957767  32.6480355
  58.2671821   9.7237271  17.6780646  57.6500992   8.9984100  17.5813698
  57.7988310  10.4846632  17.3347720  51.9339174   7.4968826  32.4179847
  52.6438793   6.8562019  32.3766465  51.8908482   7.7481721  33.3406028
  59.9225953  14.4336180  35.3386426  59.8638499  13.7495400  34.6717009
  60.3245471  15.1755170  34.8867052  50.6468108   4.4834044  34.2375486
  50.1105465   4.0324783  34.8897083  50.0584817   4.6179953  33.4945951
  48.9416652  21.2498094  28.1320145  49.1813250  21.8816618  28.8099163
  48.0985848  20.8986134  28.4185504  59.9243360  12.3975764  33.5700406
  59.0370139  12.0601685  33.6926804  60.4941911  11.6658795  33.8069171
  41.5772507   8.7299855  26.8943457  42.2643547   8.4161585  26.3064472
  41.4220636   9.6341220  26.6210708  46.3807229   3.6190052  31.3228481
  46.2965418   3.0115722  30.5878891  45.5589936   4.1099070  31.3237977
  53.4544514  17.0577216  30.5361649  53.3814685  17.8632188  31.0480953
  53.0121907  17.2569182  29.7109670  53.2434293  16.2948986  24.0464470
  52.4601815  16.8370666  24.1402695  53.9427038  16.8122966  24.4458712
  56.5530943   2.1043616  26.6898676  57.0499643   1.3513578  26.3699746
  55.7817925   2.1407932  26.1241885  64.4060701   7.8083981  28.3316967
  64.3950577   8.6908697  27.9610900  63.5378080   7.4555532  28.1371504
  55.9143197  16.9564050  32.6919807  56.6271169  17.5911515  32.6195709
  55.4233226  17.0527916  31.8759809  57.6360724  10.8615303  24.2637099
  56.7017003  10.9816765  24.0941803  57.8137392   9.9587770  23.9997109
  53.1365912   4.2460999  26.4170360  52.7663700   3.6932039  27.1051266
  53.6325005   3.6419132  25.8645360  61.0233275   6.7032622  24.7987133
  61.4893728   7.5360614  24.7247436  61.4740776   6.2377604  25.5032392
  50.9655111  14.7058494  33.5125378  51.6664570  15.3394977  33.6654773
  50.4950226  15.0473225  32.7521018  59.0909506  13.0476443  21.7973285
  59.3669350  12.9333038  22.7067159  58.2214005  12.6493928  21.7585458
  58.9949938  -0.9286791  28.8378035  58.0813018  -0.6982564  29.0060242
  59.4243040  -0.8448347  29.6892067  58.7656397   7.2603101  31.3377929
  58.1127847   7.5079008  30.6830381  59.1436777   6.4467239  31.0040406
  55.7263570  17.2962794  25.4406099  55.9085965  16.4784450  25.9033851
  56.5496557  17.5130486  25.0030989  56.0605736  16.2230979  22.7021147
  56.5893502  15.7123434  22.0891310  56.3233956  15.9073510  23.5666680
  54.8143970   8.0022912  37.8243966  54.1384607   7.9017041  38.4946341
  55.6371604   7.8462126  38.2879963  46.5622829  14.2394849  30.4456481
  47.1476266  13.4938537  30.5784385  46.3647667  14.5498805  31.3293145
  49.4161484  17.2746096  25.4618923  48.7471859  17.7592224  24.9782963
  49.2774354  17.5215316  26.3762302  41.1540483   6.8100449  29.1660924
  41.1924583   6.2764039  29.9598042  40.6480776   6.2835654  28.5471901
  53.5566753  19.3089840  32.0601582  54.1085061  19.4721461  32.8250667
  53.8972946  19.8994277  31.3881607  48.5331246   1.6564989  32.6623466
  48.5972572   2.5179820  32.2500864  48.4698366   1.0438991  31.9295825
  48.0083518   3.7288122  36.3096501  48.6355557   3.3465199  36.9234025
  47.1511437   3.5102324  36.6752193  58.4077627  14.1351097  37.9150236
  58.9517531  14.7481055  37.4205191  57.8264472  14.6930675  38.4317249
  44.7849061   5.5364551  22.2414856  45.0802502   4.6275229  22.1881909
  43.8837097   5.5152290  21.9195858  56.6935140  17.2571815  29.0465264
  56.5686279  16.4561555  28.5376209  57.3514231  17.7518008  28.5579234
  48.3143308   3.6120548  28.2242404  47.5929894   4.2256515  28.0849877
  49.1036564   4.1478312  28.1459050  58.7570048  15.0580835  30.6744814
  57.8100384  14.9386186  30.6023141  59.1052821  14.1703333  30.7571075
  51.1169622   0.9474974  34.4983056  51.6404023   1.1937271  35.2609365
  50.8981955   1.7795009  34.0786193  46.5136903   3.2178649  22.3654181
  46.1849609   2.3376028  22.1829287  46.8676273   3.1626317  23.2530570
  55.7616481  14.8533551  26.8749166  55.6141444  13.9250259  27.0556736
  56.5869975  14.8753642  26.3906241  49.6278726   3.5051618  22.7329658
  49.9674798   4.0337540  22.0108267  50.0750846   3.8432025  23.5088225
  59.3650603  15.6762110  27.9614039  60.2897151  15.4704971  27.8238490
  59.1965907  15.4278511  28.8703380  52.3222167   1.8888669  32.1832726
  51.9818987   1.0896482  32.5853406  51.6161173   2.1890380  31.6109560
  52.9738638  -1.0262018  30.6360049  53.7964708  -1.5001540  30.5138940
  53.2176702  -0.2471535  31.1358736  51.6146873   2.0026240  20.9322951
  52.3355235   2.3807493  20.4286668  50.9912177   2.7215117  21.0357929
  55.7577996   2.7071389  21.8681283  55.9741610   3.5896027  21.5670112
  55.2772063   2.3157602  21.1386925  50.4977217   5.6657102  28.4452028
  50.3521798   5.9797405  29.3376310  50.0202421   6.2842003  27.8922927
  52.3573600   2.6559650  28.4932918  52.3435169   1.7600744  28.1565216
  53.0746028   2.6630314  29.1271204  54.2099731   3.0896990  30.5386045
  53.9517509   4.0114061  30.5370375  53.6784771   2.6927425  31.2286509
  59.1545920  16.1947778  23.3176130  59.3282797  15.6294200  22.5649983
  59.6474811  16.9948672  23.1355620  44.9722879   8.2062447  31.3839689
  44.4276347   8.9822255  31.5159964  45.8502229   8.5533251  31.2258811
  51.7610496   1.5374030  23.7620488  51.8826407   0.6090677  23.9611375
  51.4712538   1.5512716  22.8498803  54.6301686  -0.7771059  26.8987208
  54.6523383  -0.7131726  25.9439187  55.0469745  -1.6166550  27.0927714
  65.0085311   8.9584200  24.9366430  65.4516457   8.2091526  24.5385553
  64.1311821   8.9494337  24.5540162  60.1421092  15.5114542  20.4173029
  60.8371997  16.1321235  20.6360343  60.4844242  14.6609893  20.6925407
  45.7588901   7.3332343  34.2769846  45.0170637   7.4814978  34.8634477
  45.4381645   7.5940608  33.4136595  62.0412515  12.9614247  21.9460359
  62.5663839  13.3001520  21.2209679  61.9534868  12.0261263  21.7623494
  53.7032564  16.8748321  34.0750236  54.0119690  16.6297468  34.9472936
  54.5008046  17.0794960  33.5869106  53.7253176  19.0286231  26.3055613
  53.2858166  18.5362609  26.9988469  54.4761293  18.4859198  26.0647688
  46.2045515  15.2197772  26.3080241  47.0303535  14.9201543  25.9278884
  45.8539567  14.4505394  26.7570029  51.1727048  14.5724240  28.3777914
  50.5507057  13.9094945  28.0780142  51.8431915  14.5985372  27.6951562
  44.4054120  13.1384098  27.2669174  43.5686028  12.7106272  27.0853176
  44.3777765  13.3316541  28.2039966  51.2451576   3.0506028  37.9710420
  51.2939731   3.9268151  37.5888190  51.7874090   2.5083421  37.3982064
  61.7306421  13.5947151  37.2511557  60.9401965  13.5771290  36.7116057
  61.4939776  14.1335445  38.0060594  61.8504296  10.4439617  34.5644286
  61.9002301  10.2789625  35.5059809  61.7418220   9.5766876  34.1742167
  50.7340555  13.1228163  21.8536375  50.8828675  13.8063628  21.2003048
  51.5406998  13.1033253  22.3685831  59.1408059   6.4270545  35.8803593
  60.0417921   6.2877010  35.5887590  59.2156033   6.5925000  36.8201770
  53.4750864   3.8037400  34.7256779  52.6054173   4.0970966  34.4539368
  53.7110344   4.3877845  35.4464043  63.3522493  12.8636559  34.8086307
  63.0607301  13.2266540  35.6449768  62.7394624  12.1503567  34.6299640
  64.5518175  10.4289439  27.3288878  65.3865067  10.8679243  27.4926438
  64.6877304   9.9528092  26.5097123  61.6009681   7.9869174  33.2766365
  62.0763803   8.1796820  32.4685217  60.6775247   8.0428359  33.0309749
  48.4893188   9.1493341  22.8597444  48.2439230   8.2455671  23.0577654
  48.6589102   9.1510491  21.9176922  56.1789898   0.0217017  32.2422199
  56.6971842   0.7578044  31.9168688  55.8245031   0.3281010  33.0768958
  54.2335960  15.6176294  19.3248122  53.6609928  16.2366481  18.8718594
  54.8068754  16.1675655  19.8588044  60.3011350   4.8634934  31.5094671
  61.2528773   4.9633031  31.5306895  60.1314801   4.0713202  32.0192755
  58.3225730   1.9490517  31.6954072  57.7275662   2.2295530  31.0000561
  58.0375426   2.4384418  32.4670813  57.4533220  15.9013444  20.4556705
  58.3863893  15.8359005  20.6589580  57.3656433  16.7369711  19.9971237
  60.0821237  15.2179314  17.4160652  60.0034868  14.8839178  18.3096410
  60.9030904  15.7101082  17.4152124  62.7799428   8.0841053  30.6236971
  62.7475748   7.1457054  30.8096655  63.3900052   8.1625090  29.8902796
  54.6182759   6.9537106  16.6664175  55.5641864   6.8243314  16.7352593
  54.2397004   6.2151768  17.1433603  62.9293917   4.8752097  30.6695254
  62.4132965   4.0910553  30.4825183  63.8133865   4.5470813  30.8341773
  68.5975978   9.1457060  29.7643008  69.3279366   8.8842348  30.3250711
  67.9882923   8.4085782  29.8045076  66.6791275   7.2864923  30.3617459
  65.9524439   7.1520888  29.7533950  66.2638562   7.5941751  31.1674177
  54.5021452  11.0054852  38.1264832  55.4224461  11.1833451  38.3204878
  54.4671035  10.0610898  37.9744531  43.7203617   6.1993446  27.0518106
  43.4006401   5.3458754  26.7592480  43.1737045   6.4142024  27.8076074
  47.4983524   8.9155887  30.7687613  47.7169534   9.8472995  30.7875647
  47.9109298   8.5563862  31.5542417  54.4187742  -0.5776028  22.7563301
  53.6088470  -0.9228943  23.1318547  55.1072159  -0.8868484  23.3450913
  52.3711389   4.4889093  40.1590362  52.2708116   5.4383450  40.0902453
  52.1532931   4.1607332  39.2866432  43.5891877   9.8196358  29.0211228
  42.8955348   9.4050310  28.5081182  44.3364868   9.8616894  28.4244647
  59.7257097   0.6102544  23.8866262  59.1455766   1.2687348  23.5044315
  59.4593030  -0.2120111  23.4753680  58.1760664   0.0107602  26.0887583
  58.6760442   0.1224137  25.2801901  58.8196272  -0.2931345  26.7288391
  52.2342659   7.9186232  38.9755423  51.7509741   8.7186592  39.1819313
  52.3203598   7.9294177  38.0222867  45.5028619   9.7514611  26.8977243
  45.4799307   9.8502299  25.9459126  45.8129256  10.5979762  27.2194409
  48.1615997  11.8090766  31.0123857  49.1159250  11.7774709  30.9453789
  47.9628520  11.3481390  31.8274083  48.7515379  10.3791882  33.5794655
  49.5708268  10.8735961  33.6029492  49.0252187   9.4623851  33.5512222
  58.5081975   2.7702635  22.9422610  57.6207830   3.0552285  22.7242805
  58.9235964   2.6096398  22.0949887  61.8596511   2.7949156  26.6576950
  62.6356901   3.2845608  26.9301567  61.1344646   3.2207210  27.1148819
  64.2969070   3.5076775  27.7150890  64.8913561   3.2672511  27.0044199
  64.3695654   2.7883906  28.3424427  46.5166226  17.3510386  28.0294055
  46.3820694  16.5910787  27.4632053  46.0998288  18.0751286  27.5622844
  57.6525189  12.5347309  17.0370630  58.3561039  12.7397312  17.6528286
  56.9287837  13.1024071  17.3019714  58.4822999   8.2857171  23.1572901
  58.4258200   8.7425722  22.3180533  59.0351341   7.5247855  22.9795743
  62.2927805   4.0746903  23.9823020  62.0364739   3.6743538  24.8131228
  61.6680673   4.7890697  23.8573159  66.6040143   6.8142976  26.4894312
  66.0439701   6.8836165  27.2625874  65.9983646   6.6383960  25.7693808
  49.6735352  18.2479703  28.2412498  49.5567736  19.1925135  28.1391188
  48.8527798  17.9453265  28.6298297  59.5611886  12.9729839  19.0869090
  60.3957490  12.5411037  18.9046565  59.3996229  12.8011852  20.0145985
  59.2157778   9.4761952  20.4525430  59.1606582   9.3106223  19.5113874
  58.5903834  10.1837985  20.6087620  44.0050293   4.7130016  34.2786852
  44.6509157   4.2028970  34.7674077  43.7967444   5.4498698  34.8530277
  56.5303685  11.7810864  39.7778993  57.3994845  11.9551516  39.4165627
  56.0510437  12.6005281  39.6554722  50.6989866  18.9007965  31.4568426
  51.6017112  18.9331575  31.7734921  50.4727236  17.9708416  31.4714762
  52.4543468  17.6538951  28.1178505  51.5039099  17.6540813  28.0042877
  52.7575954  16.9071686  27.6014539  48.3447784   1.8597633  38.3761866
  49.2079246   1.5034438  38.5865191  47.7713195   1.5211528  39.0637271
  68.1896161  23.4899490  29.1824267  68.8274571  23.3706237  28.4787607
  68.0717004  24.4380334  29.2412219  64.9985867  23.4426918  29.1185792
  64.6604379  23.3267983  28.2306327  65.8675636  23.0418083  29.0986798
  60.8572683  25.2962394  25.1082683  60.2937548  25.2052331  24.3398971
  60.7425078  24.4762299  25.5885175  65.4805650  24.5961770  35.0771997
  65.4694291  24.2014568  34.2052501  65.6426290  23.8627842  35.6705769
  58.4037115  26.7913586  27.9466903  59.1958407  26.4504411  27.5313203
  58.6433765  26.9008561  28.8669057  66.4372242  28.9633362  20.4197148
  65.7860222  29.5487442  20.0331162  67.2316605  29.4939557  20.4792185
  60.3627869  26.0522499  20.8184282  61.1358745  25.5051486  20.6797158
  60.7153268  26.9166748  21.0298744  62.2012912  27.3798881  34.0251181
  61.9102778  28.2844512  33.9097848  62.8369896  27.4215409  34.7395251
  63.1269118  24.7575730  30.6152541  63.7232691  24.5331752  29.9009504
  63.1844090  24.0160475  31.2177989  62.6994147  22.2115165  18.4502732
  62.9519668  21.6896687  17.6886195  61.7618706  22.0481311  18.5529416
  67.7437430  21.2150944  26.2577475  68.5300519  20.7970367  25.9067892
  68.0076134  22.1197036  26.4259124  67.9147507  26.6523794  20.9566132
  67.2793340  26.7258420  21.6687037  67.5844913  27.2417393  20.2785211
  73.1445857  21.1526177  27.1610454  73.8771029  20.5825394  27.3948283
  72.3885213  20.7647777  27.6016959  62.4190436  24.1143271  20.6527107
  62.3026694  23.4388175  21.3208191  62.5292696  23.6275645  19.8359260
  64.7621977  23.5753418  24.3573796  64.3980184  23.0484039  25.0686718
  65.6189092  23.1851887  24.1840282  70.6671277  14.8647751  31.6205062
  70.3354602  15.7343162  31.3966277  70.0716891  14.5484035  32.2999093
  64.4027464  18.6043318  19.3535145  64.5701866  19.4723554  19.7205616
  64.2124633  18.7670600  18.4296434  67.1602797  27.0660297  31.0200975
  66.8603520  27.9685336  30.9116782  66.8153856  26.7992480  31.8722128
  60.6115278  23.5174094  27.0537680  59.6865775  23.3850308  27.2615371
  60.8599691  24.2968313  27.5507622  70.5599941  19.5842837  28.6998412
  69.6516818  19.5158246  28.4057173  70.5087536  20.0614782  29.5280238
  64.3816684  21.0600976  20.3381812  64.2616310  21.5058026  21.1767292
  63.6869273  21.4086293  19.7795350  57.9724089  23.1607367  27.8881469
  58.1016470  23.4141846  28.8020880  57.2921541  23.7535075  27.5686124
  64.6340806  21.0032483  36.6433310  63.8574140  21.5626403  36.6336174
  65.2731369  21.4889266  37.1648180  72.4261587  17.7859276  30.4776286
  71.7835967  18.0791809  29.8316081  71.9216515  17.6712196  31.2829483
  70.0801751  21.5322449  21.1662146  70.9919607  21.7649835  20.9909843
  69.5711398  22.1159493  20.6037224  62.8887179  23.8117936  36.2051277
  63.6301863  24.3502980  35.9286100  62.1824164  24.4384225  36.3622829
  68.3642518  25.9547077  34.8023438  68.7725874  25.5129487  34.0578071
  67.6419780  25.3799704  35.0557631  64.7173588  20.8919683  32.1756995
  65.5634783  21.3159097  32.3191644  64.6572226  20.2353308  32.8695558
  68.6871333  26.5148267  28.5575727  68.0580195  26.6793981  27.8551795
  68.2996995  26.9289877  29.3286691  72.5660565  27.4502705  25.9120091
  71.8811603  27.8301606  25.3617124  72.6504414  28.0598032  26.6452039
  67.8673034  18.5524052  33.8338169  67.6233965  19.3066112  33.2972444
  68.1432964  18.9309399  34.6685416  69.8211496  25.0962664  32.5115434
  70.0328392  25.7394424  31.8349815  69.7741245  24.2624981  32.0437364
  67.4237725  17.7080485  29.4152007  66.5622204  18.0061738  29.7068744
  67.4500160  17.9250884  28.4833039  64.2399295  26.2522675  25.8225812
  64.7037640  26.5310378  25.0330435  63.9756093  25.3506120  25.6398903
  61.1323376  25.7994157  28.7605575  61.7024733  26.2281425  28.1223060
  61.7231488  25.5176741  29.4589761  63.1768181  22.3745828  22.6315377
  63.8792224  22.8266871  23.0989304  62.8448809  21.7329646  23.2595270
  61.6248542  20.9657584  37.0066587  60.9947203  21.6473865  37.2401984
  61.5184630  20.8540666  36.0619725  56.9193515  20.6329380  27.9332511
  56.1292569  20.8886909  27.4572622  57.4104762  21.4477718  28.0384551
  70.9357324  27.9734619  30.6837792  71.7574768  27.5714807  30.4020473
  70.9319727  27.8702854  31.6353908  58.8708260  20.9973960  24.8915988
  58.0739423  21.1092654  25.4099483  58.6433852  21.3360612  24.0256878
  64.7013928  27.5218663  32.8398502  64.7658360  27.9839070  33.6756674
  63.9924852  26.8916028  32.9680812  55.2031218  20.8859871  30.3647502
  55.4539256  21.7706881  30.6305078  55.7390766  20.7064472  29.5922594
  79.0263317  24.3173368  27.0322763  78.2727026  23.7480766  26.8766768
  79.1610859  24.2836032  27.9793398  64.4161945  29.1886770  22.7077483
  64.2807620  30.0338306  23.1362330  64.9571758  29.3906048  21.9443416
  60.9029285  15.2678350  39.3691838  60.5096231  14.7144549  40.0439482
  61.7195425  15.5788929  39.7598355  57.8691343  26.7062208  23.2805408
  58.3815863  27.5005459  23.4310972  58.5214056  26.0088499  23.2139009
  59.6786228  29.8227965  25.3628161  59.8552856  30.7445929  25.1749145
  60.4743061  29.5086384  25.7922541  63.8197246  16.6836229  36.9612094
  64.5606959  17.2843382  36.8816557  64.0515169  15.9413867  36.4030137
  58.9638584  21.8692596  35.2390324  58.8492099  20.9677854  35.5397423
  58.1083102  22.1156293  34.8875141  66.0430422  29.8110337  36.8377825
  65.5994276  29.0246715  36.5198729  66.7047635  29.9989487  36.1721715
  60.8017543  31.3406138  31.3638503  61.3524968  31.2123202  30.5915497
  59.9629019  31.6401027  31.0133396  68.1411660  30.0913137  34.8659226
  68.1230135  30.9122018  34.3739495  69.0631580  29.9667212  35.0909367
  64.5984714  27.6057266  35.7082734  65.1313051  26.8445554  35.4782042
  64.0698795  27.3130918  36.4506889  67.7654409  12.7117332  31.2376376
  67.4218678  13.6018974  31.1615487  68.1333372  12.5218990  30.3745961
  55.8340260  25.0350863  24.0564978  56.6715482  25.4447871  23.8398686
  56.0118527  24.0950305  24.0265172  67.7304692  22.7025943  19.7448811
  67.2151315  23.4730548  19.9837199  67.4582000  22.0291079  20.3681873
  65.3151803  17.5475644  24.8034050  64.4593399  17.1582494  24.6239688
  65.7278755  17.6267605  23.9433835  66.8450949  15.0821987  29.2025609
  66.3415745  15.0452122  28.3893415  67.1381556  15.9914730  29.2622266
  63.0893835  15.1660717  28.2091791  63.9546832  14.9703526  27.8497680
  63.1571344  14.9371069  29.1361148  72.7038966  25.4558298  21.6801985
  71.9268409  25.1169457  21.2357147  73.3830447  25.4610921  21.0056950
  67.5190995  20.5753035  21.5708592  67.2141130  20.8899185  22.4218736
  68.4721437  20.6534455  21.6135925  65.9637427  26.7343259  23.2201546
  65.4358788  25.9996018  22.9074784  65.4624929  27.5117935  22.9741515
  70.9430273  24.9292279  28.3368593  70.2853947  25.6191541  28.4248721
  71.7470672  25.3188711  28.6802579  60.6956154  17.3962925  25.5808158
  61.2699906  17.1738106  24.8481351  61.2827137  17.4651619  26.3336759
  69.7535732  23.2836652  26.3872534  70.2667613  23.9166644  26.8894244
  70.4036955  22.6837847  26.0215894  61.0225741  19.4267386  19.6004043
  60.1863054  19.7642072  19.9213318  60.8830511  19.2916366  18.6631180
  62.9978822  14.2704174  24.3083227  62.3443234  13.9553191  23.6839842
  62.9559296  13.6479914  25.0343050  64.1090027  24.5523469  16.2236519
  63.2017089  24.3212722  16.4227668  64.6061059  23.7561088  16.4110501
  67.0158106  33.2620976  19.1433205  66.3419805  33.5652673  19.7518163
  67.4023928  34.0650056  18.7938663  66.2316562  20.7586107  28.6330875
  65.3139124  20.9801054  28.4752563  66.6476706  20.8332418  27.7742582
  67.0151610  22.1577523  23.7633555  67.7623429  22.6698920  23.4540677
  67.2843200  21.8361576  24.6237949  65.2878260  24.6536064  20.7460509
  64.3789480  24.3695097  20.8432979  65.3173344  25.0735142  19.8863816
  70.5197528  28.2642653  24.5151677  70.0659855  27.4233563  24.5716867
  69.8891494  28.9004052  24.8526457  69.4630447  19.1934639  25.7452344
  68.7253204  18.6812026  26.0762587  69.7157221  18.7535021  24.9335621
  68.9630467  30.1019150  25.4501495  69.2553441  30.6624207  24.7313861
  69.4729088  30.3947711  26.2054654  69.5642075  11.9710891  26.3394114
  69.8700951  11.1108255  26.0520029  70.2894679  12.5628512  26.1393108
  55.8566431  22.3741578  24.7275712  55.6590831  21.7810939  24.0026778
  55.3013095  22.0693788  25.4451650  63.8363154  22.2664684  26.8470305
  63.8911764  21.3138521  26.7712781  63.0254356  22.4224123  27.3311603
  64.9854348  26.1944807  18.0848588  64.5473778  25.4780666  17.6254225
  65.7264789  26.4220922  17.5233679  61.7755514  20.8841744  24.6060684
  60.9623380  21.1835915  25.0125876  62.2714508  20.4897433  25.3235166
  63.9264092  30.8799501  26.5394948  63.8840271  31.1060347  25.6103480
  64.8426791  30.6462876  26.6880749  67.3729726  21.3483569  33.4375578
  67.7279114  21.5755042  34.2970043  68.0201857  21.6801945  32.8152833
  73.1027463  24.4702004  24.1424907  72.9645362  24.6603600  23.2146096
  72.7463682  25.2321387  24.5992958  61.2669589  18.4560100  30.2221919
  61.9068968  18.3148859  29.5244882  60.4347120  18.1694613  29.8460521
  73.1296843  26.5378531  29.1536178  73.5633349  26.4453821  30.0019232
  73.8428423  26.5136032  28.5156194  62.0429893  27.7562530  26.3356911
  62.8370491  27.2612850  26.1339486  61.3321585  27.2280393  25.9724617
  66.8624737  30.1380626  30.6869279  66.9161760  30.7071562  31.4546995
  65.9939519  30.3082511  30.3223316  58.3512656  21.9005612  22.4116664
  57.4210245  21.8390067  22.6286626  58.4470128  21.3781565  21.6153305
  58.2698205  18.4260425  24.9994905  58.5305023  19.3405758  24.8904066
  59.0915378  17.9584867  25.1491518  59.7423131  19.8398182  32.1693730
  60.4146184  19.6315544  31.5206379  58.9152917  19.6420268  31.7298962
  73.9912392  26.5802232  31.6869063  74.1848282  27.4848043  31.9328338
  73.8913010  26.1209651  32.5207648  65.6448703  16.4660123  34.1859391
  64.9976618  17.1650072  34.0923867  66.4149718  16.8996267  34.5535639
  69.0527501  26.7308975  37.2609944  68.9013007  26.5019527  36.3440028
  69.0432180  27.6879576  37.2741289  65.8212837  24.3040888  32.2456211
  66.7504897  24.4552047  32.0725178  65.4003867  24.3924908  31.3904857
  64.6201169  28.3291552  30.0154748  64.4812255  27.9610336  30.8880686
  63.8315765  28.8439191  29.8438706  66.1706384  27.7073155  27.4043586
  65.8356217  27.6673925  28.3001236  65.6710330  27.0417871  26.9313996
  60.1450628  23.1140785  32.9296167  60.0070426  22.3821024  33.5307706
  61.0555552  23.0249685  32.6480355  69.1065576  25.0529189  17.6780646
  68.4894746  24.3276017  17.5813698  68.6382064  25.8138549  17.3347720
  62.7732929  22.8260744  32.4179847  63.4832547  22.1853936  32.3766465
  62.7302237  23.0773639  33.3406028  70.7619707  29.7628097  35.3386426
  70.7032254  29.0787318  34.6717009  71.1639226  30.5047087  34.8867052
  61.4861863  19.8125962  34.2375486  60.9499220  19.3616700  34.8897083
  60.8978571  19.9471871  33.4945951  60.8964122  19.2714613  16.8001950
  60.0193588  19.1503414  16.4364197  61.3721875  18.4800692  16.5480839
  70.7637115  27.7267681  33.5700406  69.8763893  27.3893603  33.6926804
  71.3335666  26.9950713  33.8069171  52.4166262  24.0591773  26.8943457
  53.1037302  23.7453503  26.3064472  52.2614390  24.9633138  26.6210708
  57.2200984  18.9481970  31.3228481  57.1359173  18.3407639  30.5878891
  56.3983690  19.4390988  31.3237977  64.0828048  31.6240904  24.0464470
  63.2995570  32.1662584  24.1402695  64.7820793  32.1414883  24.4458712
  67.3924698  17.4335533  26.6898676  67.8893397  16.6805496  26.3699746
  66.6211679  17.4699850  26.1241885  75.2454455  23.1375899  28.3316967
  75.2344331  24.0200614  27.9610900  74.3771835  22.7847450  28.1371504
  68.4754479  26.1907220  24.2637099  67.5410757  26.3108683  24.0941803
  68.6531147  25.2879687  23.9997109  63.9759667  19.5752916  26.4170360
  63.6057454  19.0223957  27.1051266  64.4718759  18.9711050  25.8645360
  71.8627030  22.0324540  24.7987133  72.3287482  22.8652531  24.7247436
  72.3134530  21.5669521  25.5032392  61.8048865  30.0350411  33.5125378
  62.5058325  30.6686894  33.6654773  61.3343980  30.3765143  32.7521018
  69.9303261  28.3768361  21.7973285  70.2063105  28.2624956  22.7067159
  69.0607760  27.9785846  21.7585458  69.8343693  14.4005127  28.8378035
  68.9206772  14.6309354  29.0060242  70.2636794  14.4843571  29.6892067
  69.6050151  22.5895019  31.3377929  68.9521601  22.8370926  30.6830381
  69.9830531  21.7759157  31.0040406  66.8999490  31.5522897  22.7021147
  67.4287257  31.0415352  22.0891310  67.1627710  31.2365427  23.5666680
  65.6537724  23.3314830  37.8243966  64.9778361  23.2308959  38.4946341
  66.4765358  23.1754043  38.2879963  57.4016583  29.5686766  30.4456481
  57.9870020  28.8230454  30.5784385  57.2041422  29.8790723  31.3293145
  60.2555238  32.6038014  25.4618923  59.5865614  33.0884141  24.9782963
  60.1168108  32.8507234  26.3762302  51.9934238  22.1392366  29.1660924
  52.0318337  21.6055957  29.9598042  51.4874531  21.6127572  28.5471901
  59.3725000  16.9856907  32.6623466  59.4366327  17.8471738  32.2500864
  59.3092120  16.3730909  31.9295825  58.8477273  19.0580040  36.3096501
  59.4749312  18.6757117  36.9234025  57.9905192  18.8394241  36.6752193
  55.6242816  20.8656469  22.2414856  55.9196257  19.9567147  22.1881909
  54.7230851  20.8444208  21.9195858  59.1537063  18.9412465  28.2242404
  58.4323648  19.5548433  28.0849877  59.9430318  19.4770230  28.1459050
  69.5963803  30.3872753  30.6744814  68.6494138  30.2678104  30.6023141
  69.9446576  29.4995251  30.7571075  61.9563376  16.2766892  34.4983056
  62.4797778  16.5229188  35.2609365  61.7375709  17.1086927  34.0786193
  57.3530657  18.5470566  22.3654181  57.0243363  17.6667945  22.1829287
  57.7070028  18.4918235  23.2530570  66.6010236  30.1825469  26.8749166
  66.4535198  29.2542176  27.0556736  67.4263729  30.2045560  26.3906241
  60.4672480  18.8343536  22.7329658  60.8068553  19.3629457  22.0108267
  60.9144601  19.1723942  23.5088225  63.1615921  17.2180587  32.1832726
  62.8212741  16.4188400  32.5853406  62.4554927  17.5182298  31.6109560
  63.8132393  14.3029899  30.6360049  64.6358462  13.8290377  30.5138940
  64.0570456  15.0820383  31.1358736  62.4540627  17.3318158  20.9322951
  63.1748990  17.7099410  20.4286668  61.8305932  18.0507034  21.0357929
  66.5971750  18.0363307  21.8681283  66.8135365  18.9187945  21.5670112
  66.1165817  17.6449520  21.1386925  61.3370972  20.9949020  28.4452028
  61.1915552  21.3089323  29.3376310  60.8596175  21.6133920  27.8922927
  63.1967355  17.9851568  28.4932918  63.1828923  17.0892661  28.1565216
  63.9139783  17.9922232  29.1271204  65.0493485  18.4188908  30.5386045
  64.7911263  19.3405979  30.5370375  64.5178526  18.0219343  31.2286509
  55.8116634  23.5354364  31.3839689  55.2670102  24.3114172  31.5159964
  56.6895984  23.8825169  31.2258811  62.6004250  16.8665948  23.7620488
  62.7220162  15.9382594  23.9611375  62.3106293  16.8804634  22.8498803
  65.4695441  14.5520859  26.8987208  65.4917138  14.6160192  25.9439187
  65.8863500  13.7125367  27.0927714  75.8479065  24.2876118  24.9366430
  76.2910211  23.5383443  24.5385553  74.9705575  24.2786254  24.5540162
  70.9814847  30.8406460  20.4173029  71.6765751  31.4613152  20.6360343
  71.3237997  29.9901811  20.6925407  56.5982656  22.6624261  34.2769846
  55.8564392  22.8106896  34.8634477  56.2775400  22.9232526  33.4136595
  72.8806270  28.2906165  21.9460359  73.4057594  28.6293438  21.2209679
  72.7928622  27.3553180  21.7623494  57.0439269  30.5489689  26.3080241
  57.8697289  30.2493461  25.9278884  56.6933321  29.7797312  26.7570029
  62.0120803  29.9016157  28.3777914  61.3900812  29.2386863  28.0780142
  62.6825669  29.9277289  27.6951562  55.2447874  28.4676016  27.2669174
  54.4079783  28.0398190  27.0853176  55.2171520  28.6608459  28.2039966
  62.0845330  18.3797946  37.9710420  62.1333485  19.2560068  37.5888190
  62.6267844  17.8375339  37.3982064  72.5700176  28.9239069  37.2511557
  71.7795719  28.9063208  36.7116057  72.3333530  29.4627362  38.0060594
  72.6898051  25.7731535  34.5644286  72.7396056  25.6081543  35.5059809
  72.5811974  24.9058794  34.1742167  61.5734309  28.4520081  21.8536375
  61.7222430  29.1355545  21.2003048  62.3800753  28.4325171  22.3685831
  69.9801813  21.7562463  35.8803593  70.8811676  21.6168928  35.5887590
  70.0549788  21.9216918  36.8201770  64.3144618  19.1329318  34.7256779
  63.4447928  19.4262884  34.4539368  64.5504099  19.7169763  35.4464043
  74.1916248  28.1928477  34.8086307  73.9001056  28.5558457  35.6449768
  73.5788379  27.4795485  34.6299640  75.3911930  25.7581356  27.3288878
  76.2258821  26.1971161  27.4926438  75.5271059  25.2820010  26.5097123
  72.4403436  23.3161091  33.2766365  72.9157557  23.5088738  32.4685217
  71.5169001  23.3720277  33.0309749  59.3286942  24.4785258  22.8597444
  59.0832984  23.5747588  23.0577654  59.4982857  24.4802409  21.9176922
  67.0183652  15.3508935  32.2422199  67.5365596  16.0869962  31.9168688
  66.6638785  15.6572928  33.0768958  58.5982590  20.2113616  20.3583605
  57.9051835  20.2857971  19.7023641  58.3534342  19.4473960  20.8805122
  67.2696246  11.7709217  27.7623096  67.5498000  11.1032406  28.3883523
  68.0546853  11.9638313  27.2497760  65.0729715  30.9468211  19.3248122
  64.5003682  31.5658398  18.8718594  65.6462509  31.4967573  19.8588044
  71.1405105  20.1926851  31.5094671  72.0922528  20.2924949  31.5306895
  70.9708555  19.4005120  32.0192755  69.1619484  17.2782435  31.6954072
  68.5669416  17.5587447  31.0000561  68.8769181  17.7676336  32.4670813
  68.2926975  31.2305361  20.4556705  69.2257648  31.1650923  20.6589580
  68.2050188  32.0661628  19.9971237  70.9214991  30.5471232  17.4160652
  70.8428623  30.2131095  18.3096410  71.7424658  31.0393000  17.4152124
  73.6193183  23.4132971  30.6236971  73.5869503  22.4748972  30.8096655
  74.2293806  23.4917008  29.8902796  65.4576513  22.2829024  16.6664175
  66.4035618  22.1535232  16.7352593  65.0790758  21.5443686  17.1433603
  73.7687671  20.2044014  30.6695254  73.2526720  19.4202471  30.4825183
  74.6527620  19.8762731  30.8341773  71.4298398  13.9485030  26.6291067
  71.2323219  13.6400118  27.5134399  72.0398104  14.6746669  26.7588996
  79.4369732  24.4748978  29.7643008  80.1673121  24.2134266  30.3250711
  78.8276678  23.7377700  29.8045076  77.5185030  22.6156840  30.3617459
  76.7918193  22.4812805  29.7533950  77.1032316  22.9233669  31.1674177
  65.3415206  26.3346770  38.1264832  66.2618215  26.5125369  38.3204878
  65.3064789  25.3902816  37.9744531  63.6419431  20.2079000  16.6019060
  62.7350886  19.9112113  16.6781774  63.9195412  19.9108819  15.7353346
  54.5597371  21.5285364  27.0518106  54.2400155  20.6750672  26.7592480
  54.0130799  21.7433942  27.8076074  58.3377279  24.2447805  30.7687613
  58.5563288  25.1764913  30.7875647  58.7503052  23.8855779  31.5542417
  65.2581496  14.7515890  22.7563301  64.4482225  14.4062975  23.1318547
  65.9465913  14.4423434  23.3450913  67.1872045  13.8293937  24.3787598
  67.7403083  14.2489390  25.0377621  67.4242131  12.9029685  24.4210554
  63.2105144  19.8181011  40.1590362  63.1101871  20.7675368  40.0902453
  62.9926686  19.4899249  39.2866432  62.4118215  17.0665936  16.7431039
  63.2737379  17.3920834  17.0026857  62.5968559  16.2797432  16.2304105
  54.4285631  25.1488275  29.0211228  53.7349102  24.7342228  28.5081182
  55.1758622  25.1908812  28.4244647  70.5650852  15.9394462  23.8866262
  69.9849521  16.5979266  23.5044315  70.2986784  15.1171807  23.4753680
  69.0154418  15.3399520  26.0887583  69.5154196  15.4516054  25.2801901
  69.6590026  15.0360573  26.7288391  63.0736414  23.2478149  38.9755423
  62.5903496  24.0478510  39.1819313  63.1597353  23.2586094  38.0222867
  56.3422374  25.0806529  26.8977243  56.3193062  25.1794216  25.9459126
  56.6523010  25.9271680  27.2194409  59.0009751  27.1382684  31.0123857
  59.9553005  27.1066626  30.9453789  58.8022275  26.6773308  31.8274083
  59.5909134  25.7083800  33.5794655  60.4102023  26.2027879  33.6029492
  59.8645941  24.7915768  33.5512222  69.3475730  18.0994552  22.9422610
  68.4601585  18.3844203  22.7242805  69.7629719  17.9388316  22.0949887
  72.6990266  18.1241073  26.6576950  73.4750656  18.6137526  26.9301567
  71.9738400  18.5499128  27.1148819  75.1362824  18.8368693  27.7150890
  75.7307315  18.5964429  27.0044199  75.2089408  18.1175823  28.3424427
  57.3559980  32.6802304  28.0294055  57.2214448  31.9202705  27.4632053
  56.9392042  33.4043203  27.5622844  68.4918943  27.8639227  17.0370630
  69.1954793  28.0689230  17.6528286  67.7681592  28.4315989  17.3019714
  69.3216753  23.6149088  23.1572901  69.2651955  24.0717640  22.3180533
  69.8745096  22.8539773  22.9795743  73.1321559  19.4038820  23.9823020
  72.8758494  19.0035456  24.8131228  72.5074427  20.1182614  23.8573159
  77.4433897  22.1434894  26.4894312  76.8833455  22.2128083  27.2625874
  76.8377401  21.9675878  25.7693808  70.4005641  28.3021756  19.0869090
  71.2351245  27.8702955  18.9046565  70.2389984  28.1303770  20.0145985
  70.0551533  24.8053870  20.4525430  70.0000337  24.6398141  19.5113874
  69.4297588  25.5129903  20.6087620  54.8444048  20.0421934  34.2786852
  55.4902911  19.5320888  34.7674077  54.6361199  20.7790616  34.8530277
  67.3697440  27.1102782  39.7778993  68.2388600  27.2843434  39.4165627
  66.8904191  27.9297198  39.6554722  63.3647658  14.3061979  20.0310748
  63.3526328  15.2503819  20.1879019  64.2571080  14.1232124  19.7370209
  67.1799778  10.9004755  24.2856685  66.4132174  10.3463242  24.4313367
  67.5910483  10.9726624  25.1470837  59.1841539  17.1889551  38.3761866
  60.0473000  16.8326356  38.5865191  58.6106949  16.8503446  39.0637271
  79.0289916  38.8191407  29.1824267  79.6668326  38.6998155  28.4787607
  78.9110759  39.7672251  29.2412219  77.2765996  44.2925280  20.4197148
  76.6253976  44.8779360  20.0331162  78.0710359  44.8231475  20.4792185
  73.5387901  37.5407083  18.4502732  73.7913422  37.0188604  17.6886195
  72.6012460  37.3773228  18.5529416  78.5831184  36.5442861  26.2577475
  79.3694273  36.1262284  25.9067892  78.8469889  37.4488954  26.4259124
  78.7541262  41.9815712  20.9566132  78.1187095  42.0550338  21.6687037
  78.4238668  42.5709310  20.2785211  83.9839611  36.4818095  27.1610454
  84.7164783  35.9117311  27.3948283  83.2278967  36.0939695  27.6016959
  73.2584190  39.4435189  20.6527107  73.1420448  38.7680092  21.3208191
  73.3686450  38.9567563  19.8359260  81.5065032  30.1939669  31.6205062
  81.1748356  31.0635080  31.3966277  80.9110645  29.8775953  32.2999093
  75.2421218  33.9335236  19.3535145  75.4095620  34.8015472  19.7205616
  75.0518387  34.0962517  18.4296434  81.3993695  34.9134755  28.6998412
  80.4910572  34.8450163  28.4057173  81.3481291  35.3906700  29.5280238
  75.2210439  36.3892893  20.3381812  75.1010064  36.8349944  21.1767292
  74.5263027  36.7378211  19.7795350  83.2655341  33.1151193  30.4776286
  82.6229722  33.4083726  29.8316081  82.7610270  33.0004114  31.2829483
  80.9195505  36.8614366  21.1662146  81.8313361  37.0941753  20.9909843
  80.4105152  37.4451411  20.6037224  83.4054319  42.7794623  25.9120091
  82.7205357  43.1593524  25.3617124  83.4898169  43.3889949  26.6452039
  80.6605251  40.4254582  32.5115434  80.8722146  41.0686342  31.8349815
  80.6134999  39.5916898  32.0437364  78.2631480  33.0372402  29.4152007
  77.4015959  33.3353656  29.7068744  78.2893914  33.2542801  28.4833039
  74.0161935  37.7037745  22.6315377  74.7185979  38.1558789  23.0989304
  73.6842564  37.0621564  23.2595270  89.8657072  39.6465286  27.0322763
  89.1120780  39.0772684  26.8766768  90.0004613  39.6127950  27.9793398
  75.2555700  44.5178688  22.7077483  75.1201375  45.3630224  23.1362330
  75.7965512  44.7197966  21.9443416  74.6591001  32.0128147  36.9612094
  75.4000714  32.6135300  36.8816557  74.8908923  31.2705785  36.4030137
  78.6048163  28.0409250  31.2376376  78.2612433  28.9310891  31.1615487
  78.9727126  27.8510907  30.3745961  78.5698446  38.0317861  19.7448811
  78.0545070  38.8022466  19.9837199  78.2975755  37.3582997  20.3681873
  77.6844704  30.4113905  29.2025609  77.1809499  30.3744040  28.3893415
  77.9775311  31.3206648  29.2622266  83.5432720  40.7850216  21.6801985
  82.7662163  40.4461375  21.2357147  84.2224201  40.7902839  21.0056950
  78.3584749  35.9044953  21.5708592  78.0534885  36.2191102  22.4218736
  79.3115191  35.9826373  21.6135925  81.7824027  40.2584197  28.3368593
  81.1247702  40.9483458  28.4248721  82.5864426  40.6480629  28.6802579
  80.5929486  38.6128569  26.3872534  81.1061368  39.2458561  26.8894244
  81.2430710  38.0129765  26.0215894  71.8619496  34.7559304  19.6004043
  71.0256808  35.0933990  19.9213318  71.7224266  34.6208283  18.6631180
  73.8372577  29.5996092  24.3083227  73.1836989  29.2845109  23.6839842
  73.7953051  28.9771832  25.0343050  74.9483781  39.8815387  16.2236519
  74.0410843  39.6504640  16.4227668  75.4454813  39.0853006  16.4110501
  77.8551860  48.5912894  19.1433205  77.1813559  48.8944591  19.7518163
  78.2417682  49.3941974  18.7938663  77.0710317  36.0878025  28.6330875
  76.1532878  36.3092972  28.4752563  77.4870461  36.1624336  27.7742582
  77.8545365  37.4869441  23.7633555  78.6017184  37.9990838  23.4540677
  78.1236954  37.1653493  24.6237949  76.1272015  39.9827981  20.7460509
  75.2183234  39.6987014  20.8432979  76.1567099  40.4027060  19.8863816
  81.3591282  43.5934571  24.5151677  80.9053609  42.7525481  24.5716867
  80.7285249  44.2295969  24.8526457  80.3024202  34.5226557  25.7452344
  79.5646959  34.0103943  26.0762587  80.5550975  34.0826939  24.9335621
  80.4035829  27.3002809  26.3394114  80.7094706  26.4400172  26.0520029
  81.1288434  27.8920429  26.1393108  75.8248103  41.5236725  18.0848588
  75.3867533  40.8072584  17.6254225  76.5658544  41.7512840  17.5233679
  83.9421217  39.7993922  24.1424907  83.8039116  39.9895518  23.2146096
  83.5857436  40.5613305  24.5992958  83.9690597  41.8670449  29.1536178
  84.4027104  41.7745738  30.0019232  84.6822178  41.8427950  28.5156194
  84.8306147  41.9094150  31.6869063  85.0242037  42.8139960  31.9328338
  84.7306765  41.4501569  32.5207648  76.4842457  31.7952040  34.1859391
  75.8370372  32.4941990  34.0923867  77.2543473  32.2288184  34.5535639
  79.9459330  40.3821107  17.6780646  79.3288501  39.6567935  17.5813698
  79.4775819  41.1430467  17.3347720  71.7357876  34.6006531  16.8001950
  70.8587342  34.4795332  16.4364197  72.2115629  33.8092609  16.5480839
  78.2318452  32.7627451  26.6898676  78.7287152  32.0097413  26.3699746
  77.4605434  32.7991768  26.1241885  86.0848210  38.4667816  28.3316967
  86.0738086  39.3492532  27.9610900  85.2165589  38.1139367  28.1371504
  82.7020784  37.3616457  24.7987133  83.1681237  38.1944449  24.7247436
  83.1528285  36.8961439  25.5032392  80.7697015  43.7060279  21.7973285
  81.0456859  43.5916873  22.7067159  79.9001514  43.3077764  21.7585458
  80.6737447  29.7297044  28.8378035  79.7600527  29.9601271  29.0060242
  81.1030549  29.8135488  29.6892067  80.4443906  37.9186936  31.3377929
  79.7915356  38.1662844  30.6830381  80.8224285  37.1051075  31.0040406
  70.2118755  32.3148825  32.6623466  70.2760081  33.1763656  32.2500864
  70.1485875  31.7022826  31.9295825  72.7957131  31.6058809  34.4983056
  73.3191532  31.8521106  35.2609365  72.5769464  32.4378844  34.0786193
  74.0009676  32.5472505  32.1832726  73.6606496  31.7480318  32.5853406
  73.2948682  32.8474215  31.6109560  74.6526147  29.6321817  30.6360049
  75.4752217  29.1582295  30.5138940  74.8964211  30.4112301  31.1358736
  73.2934382  32.6610075  20.9322951  74.0142744  33.0391328  20.4286668
  72.6699686  33.3798952  21.0357929  77.4365505  33.3655224  21.8681283
  77.6529119  34.2479862  21.5670112  76.9559572  32.9741438  21.1386925
  75.8887240  33.7480826  30.5386045  75.6305018  34.6697896  30.5370375
  75.3572280  33.3511260  31.2286509  80.8333429  46.8531613  23.3176130
  81.0070306  46.2878035  22.5649983  81.3262320  47.6532508  23.1355620
  76.3089195  29.8812776  26.8987208  76.3310892  29.9452109  25.9439187
  76.7257254  29.0417285  27.0927714  86.6872820  39.6168036  24.9366430
  87.1303966  38.8675361  24.5385553  85.8099330  39.6078172  24.5540162
  81.8208601  46.1698377  20.4173029  82.5159506  46.7905070  20.6360343
  82.1631751  45.3193728  20.6925407  83.7200024  43.6198083  21.9460359
  84.2451348  43.9585356  21.2209679  83.6322377  42.6845098  21.7623494
  80.8195568  37.0854381  35.8803593  81.7205430  36.9460846  35.5887590
  80.8943542  37.2508836  36.8201770  85.0310002  43.5220394  34.8086307
  84.7394810  43.8850375  35.6449768  84.4182133  42.8087403  34.6299640
  86.2305684  41.0873274  27.3288878  87.0652576  41.5263078  27.4926438
  86.3664813  40.6111927  26.5097123  83.2797190  38.6453009  33.2766365
  83.7551312  38.8380655  32.4685217  82.3562756  38.7012195  33.0309749
  77.8577407  30.6800853  32.2422199  78.3759351  31.4161879  31.9168688
  77.5032540  30.9864846  33.0768958  78.1090001  27.1001135  27.7623096
  78.3891755  26.4324324  28.3883523  78.8940608  27.2930231  27.2497760
  75.9123469  46.2760129  19.3248122  75.3397437  46.8950316  18.8718594
  76.4856263  46.8259491  19.8588044  81.9798859  35.5218769  31.5094671
  82.9316282  35.6216867  31.5306895  81.8102310  34.7297038  32.0192755
  80.0013239  32.6074352  31.6954072  79.4063171  32.8879365  31.0000561
  79.7162935  33.0968253  32.4670813  79.1320729  46.5597279  20.4556705
  80.0651402  46.4942841  20.6589580  79.0443942  47.3953546  19.9971237
  81.7608746  45.8763149  17.4160652  81.6822377  45.5423013  18.3096410
  82.5818413  46.3684917  17.4152124  84.4586937  38.7424889  30.6236971
  84.4263257  37.8040889  30.8096655  85.0687561  38.8208925  29.8902796
  76.2970268  37.6120942  16.6664175  77.2429373  37.4827150  16.7352593
  75.9184513  36.8735604  17.1433603  84.6081426  35.5335932  30.6695254
  84.0920474  34.7494389  30.4825183  85.4921374  35.2054649  30.8341773
  82.2692152  29.2776948  26.6291067  82.0716974  28.9692036  27.5134399
  82.8791858  30.0038587  26.7588996  90.2763487  39.8040896  29.7643008
  91.0066875  39.5426184  30.3250711  89.6670432  39.0669618  29.8045076
  88.3578784  37.9448758  30.3617459  87.6311948  37.8104723  29.7533950
  87.9426071  38.2525587  31.1674177  74.4813185  35.5370918  16.6019060
  73.5744640  35.2404031  16.6781774  74.7589166  35.2400736  15.7353346
  76.0975251  30.0807808  22.7563301  75.2875979  29.7354893  23.1318547
  76.7859668  29.7715352  23.3450913  78.0265799  29.1585855  24.3787598
  78.5796838  29.5781308  25.0377621  78.2635885  28.2321603  24.4210554
  73.2511970  32.3957853  16.7431039  74.1131134  32.7212752  17.0026857
  73.4362314  31.6089349  16.2304105  81.4044606  31.2686380  23.8866262
  80.8243275  31.9271184  23.5044315  81.1380539  30.4463724  23.4753680
  79.8548173  30.6691437  26.0887583  80.3547951  30.7807972  25.2801901
  80.4983780  30.3652490  26.7288391  80.1869484  33.4286470  22.9422610
  79.2995339  33.7136121  22.7242805  80.6023473  33.2680234  22.0949887
  83.5384020  33.4532991  26.6576950  84.3144410  33.9429444  26.9301567
  82.8132155  33.8791045  27.1148819  85.9756579  34.1660610  27.7150890
  86.5701070  33.9256346  27.0044199  86.0483163  33.4467741  28.3424427
  79.3312698  43.1931145  17.0370630  80.0348548  43.3981147  17.6528286
  78.6075346  43.7607907  17.3019714  80.1610508  38.9441006  23.1572901
  80.1045709  39.4009558  22.3180533  80.7138850  38.1831691  22.9795743
  83.9715314  34.7330738  23.9823020  83.7152248  34.3327374  24.8131228
  83.3468182  35.4474532  23.8573159  88.2827652  37.4726811  26.4894312
  87.7227210  37.5420001  27.2625874  87.6771155  37.2967796  25.7693808
  81.2399395  43.6313674  19.0869090  82.0744999  43.1994873  18.9046565
  81.0783738  43.4595688  20.0145985  80.8945287  40.1345787  20.4525430
  80.8394091  39.9690059  19.5113874  80.2691343  40.8421820  20.6087620
  74.2041413  29.6353896  20.0310748  74.1920083  30.5795736  20.1879019
  75.0964835  29.4524042  19.7370209  78.0193532  26.2296673  24.2856685
  77.2525928  25.6755160  24.4313367  78.4304237  26.3018542  25.1470837
  89.8683670  54.1483325  29.1824267  90.5062080  54.0290073  28.4787607
  89.7504513  55.0964169  29.2412219  86.6773376  54.1010753  29.1185792
  86.3391888  53.9851818  28.2306327  87.5463145  53.7001918  29.0986798
  82.5360192  55.9546230  25.1082683  81.9725057  55.8636167  24.3398971
  82.4212587  55.1346134  25.5885175  87.1593159  55.2545605  35.0771997
  87.1481800  54.8598403  34.2052501  87.3213799  54.5211678  35.6705769
  80.0824624  57.4497421  27.9466903  80.8745916  57.1088246  27.5313203
  80.3221274  57.5592396  28.8669057  88.1159751  59.6217197  20.4197148
  87.4647731  60.2071278  20.0331162  88.9104114  60.1523392  20.4792185
  82.0415378  56.7106335  20.8184282  82.8146254  56.1635322  20.6797158
  82.3940777  57.5750584  21.0298744  83.8800421  58.0382717  34.0251181
  83.5890287  58.9428348  33.9097848  84.5157405  58.0799244  34.7395251
  84.8056627  55.4159565  30.6152541  85.4020200  55.1915588  29.9009504
  84.8631599  54.6744311  31.2177989  84.3781656  52.8699001  18.4502732
  84.6307177  52.3480522  17.6886195  83.4406215  52.7065146  18.5529416
  89.4224939  51.8734779  26.2577475  90.2088028  51.4554202  25.9067892
  89.6863643  52.7780871  26.4259124  89.5935016  57.3107629  20.9566132
  88.9580849  57.3842256  21.6687037  89.2632422  57.9001228  20.2785211
  94.8233366  51.8110012  27.1610454  95.5558538  51.2409229  27.3948283
  94.0672722  51.4231613  27.6016959  84.0977945  54.7727107  20.6527107
  83.9814203  54.0972010  21.3208191  84.2080204  54.2859481  19.8359260
  86.4409486  54.2337254  24.3573796  86.0767693  53.7067875  25.0686718
  87.2976601  53.8435723  24.1840282  92.3458786  45.5231586  31.6205062
  92.0142111  46.3926997  31.3966277  91.7504400  45.2067870  32.2999093
  86.0814973  49.2627153  19.3535145  86.2489375  50.1307390  19.7205616
  85.8912142  49.4254435  18.4296434  88.8390306  57.7244132  31.0200975
  88.5391029  58.6269171  30.9116782  88.4941365  57.4576316  31.8722128
  82.2902787  54.1757929  27.0537680  81.3653284  54.0434143  27.2615371
  82.5387200  54.9552148  27.5507622  92.2387449  50.2426672  28.6998412
  91.3304327  50.1742081  28.4057173  92.1875045  50.7198617  29.5280238
  86.0604193  51.7184811  20.3381812  85.9403819  52.1641862  21.1767292
  85.3656782  52.0670129  19.7795350  79.6511598  53.8191203  27.8881469
  79.7803979  54.0725682  28.8020880  78.9709050  54.4118911  27.5686124
  83.8211085  64.4888453  23.9871943  83.7435115  65.4396278  24.0660423
  83.2172729  64.1434325  24.6446869  86.3128315  51.6616318  36.6433310
  85.5361649  52.2210238  36.6336174  86.9518878  52.1473101  37.1648180
  94.1049096  48.4443111  30.4776286  93.4623476  48.7375644  29.8316081
  93.6004024  48.3296031  31.2829483  91.7589260  52.1906284  21.1662146
  92.6707116  52.4233671  20.9909843  91.2498907  52.7743328  20.6037224
  90.0430027  56.6130912  34.8023438  90.4513383  56.1713322  34.0578071
  89.3207289  56.0383539  35.0557631  86.3961097  51.5503519  32.1756995
  87.2422292  51.9742932  32.3191644  86.3359735  50.8937143  32.8695558
  90.3658842  57.1732103  28.5575727  89.7367704  57.3377817  27.8551795
  89.9784504  57.5873712  29.3286691  94.2448074  58.1086540  25.9120091
  93.5599112  58.4885442  25.3617124  94.3291923  58.7181867  26.6452039
  89.5460543  49.2107887  33.8338169  89.3021474  49.9649948  33.2972444
  89.8220473  49.5893235  34.6685416  91.4999005  55.7546499  32.5115434
  91.7115901  56.3978259  31.8349815  91.4528754  54.9208816  32.0437364
  89.1025234  48.3664320  29.4152007  88.2409713  48.6645574  29.7068744
  89.1287669  48.5834719  28.4833039  85.9186804  56.9106511  25.8225812
  86.3825149  57.1894214  25.0330435  85.6543602  56.0089955  25.6398903
  82.8110885  56.4577992  28.7605575  83.3812242  56.8865261  28.1223060
  83.4018997  56.1760577  29.4589761  84.8555690  53.0329663  22.6315377
  85.5579733  53.4850707  23.0989304  84.5236318  52.3913482  23.2595270
  92.6144833  58.6318455  30.6837792  93.4362277  58.2298642  30.4020473
  92.6107236  58.5286689  31.6353908  80.5495769  51.6557795  24.8915988
  79.7526932  51.7676489  25.4099483  80.3221361  51.9944447  24.0256878
  86.3801437  58.1802498  32.8398502  86.4445869  58.6422905  33.6756674
  85.6712361  57.5499863  32.9680812 100.7050826  54.9757203  27.0322763
  99.9514535  54.4064601  26.8766768 100.8398368  54.9419868  27.9793398
  86.0949454  59.8470606  22.7077483  85.9595129  60.6922141  23.1362330
  86.6359267  60.0489883  21.9443416  79.5478852  57.3646044  23.2805408
  80.0603372  58.1589294  23.4310972  80.2001565  56.6672334  23.2139009
  81.3573736  60.4811800  25.3628161  81.5340365  61.4029765  25.1749145
  82.1530570  60.1670219  25.7922541  85.4984755  47.3420065  36.9612094
  86.2394468  47.9427218  36.8816557  85.7302678  46.5997702  36.4030137
  87.7217931  60.4694172  36.8377825  87.2781785  59.6830551  36.5198729
  88.3835144  60.6573323  36.1721715  82.4805052  61.9989974  31.3638503
  83.0312477  61.8707037  30.5915497  81.6416528  62.2984863  31.0133396
  89.8199169  60.7496972  34.8659226  89.8017644  61.5705853  34.3739495
  90.7419089  60.6251047  35.0909367  86.2772223  58.2641102  35.7082734
  86.8100560  57.5029390  35.4782042  85.7486304  57.9714753  36.4506889
  89.4441918  43.3701167  31.2376376  89.1006187  44.2602809  31.1615487
  89.8120881  43.1802825  30.3745961  77.5127769  55.6934698  24.0564978
  78.3502991  56.1031706  23.8398686  77.6906036  54.7534140  24.0265172
  89.4092201  53.3609779  19.7448811  88.8938824  54.1314383  19.9837199
  89.1369509  52.6874915  20.3681873  86.9939312  48.2059479  24.8034050
  86.1380908  47.8166330  24.6239688  87.4066263  48.2851440  23.9433835
  88.5238458  45.7405823  29.2025609  88.0203254  45.7035958  28.3893415
  88.8169065  46.6498565  29.2622266  84.7681344  45.8244552  28.2091791
  85.6334341  45.6287361  27.8497680  84.8358853  45.5954904  29.1361148
  94.3826475  56.1142133  21.6801985  93.6055918  55.7753293  21.2357147
  95.0617956  56.1194756  21.0056950  89.1978504  51.2336871  21.5708592
  88.8928639  51.5483020  22.4218736  90.1508946  51.3118291  21.6135925
  87.6424936  57.3927094  23.2201546  87.1146297  56.6579854  22.9074784
  87.1412438  58.1701770  22.9741515  92.6217782  55.5876114  28.3368593
  91.9641456  56.2775376  28.4248721  93.4258181  55.9772546  28.6802579
  82.3743663  48.0546760  25.5808158  82.9487415  47.8321942  24.8481351
  82.9614646  48.1235455  26.3336759  91.4323241  53.9420487  26.3872534
  91.9455122  54.5750479  26.8894244  92.0824464  53.3421683  26.0215894
  82.7013250  50.0851221  19.6004043  81.8650563  50.4225908  19.9213318
  82.5618020  49.9500201  18.6631180  84.6766331  44.9288009  24.3083227
  84.0230743  44.6137026  23.6839842  84.6346805  44.3063750  25.0343050
  85.7877536  55.2107304  16.2236519  84.8804598  54.9796558  16.4227668
  86.2848568  54.4144924  16.4110501  88.6945615  63.9204811  19.1433205
  88.0207314  64.2236508  19.7518163  89.0811437  64.7233892  18.7938663
  87.9104071  51.4169943  28.6330875  86.9926633  51.6384890  28.4752563
  88.3264215  51.4916253  27.7742582  88.6939119  52.8161358  23.7633555
  89.4410938  53.3282756  23.4540677  88.9630709  52.4945411  24.6237949
  86.9665769  55.3119899  20.7460509  86.0576989  55.0278932  20.8432979
  86.9960853  55.7318978  19.8863816  92.1985037  58.9226489  24.5151677
  91.7447364  58.0817399  24.5716867  91.5679003  59.5587887  24.8526457
  91.1417956  49.8518475  25.7452344  90.4040713  49.3395861  26.0762587
  91.3944730  49.4118856  24.9335621  90.6417976  60.7602985  25.4501495
  90.9340950  61.3208042  24.7313861  91.1516597  61.0531546  26.2054654
  91.2429584  42.6294727  26.3394114  91.5488460  41.7692090  26.0520029
  91.9682188  43.2212347  26.1393108  77.5353940  53.0325413  24.7275712
  77.3378340  52.4394774  24.0026778  76.9800604  52.7277623  25.4451650
  85.5150663  52.9248520  26.8470305  85.5699273  51.9722356  26.7712781
  84.7041865  53.0807959  27.3311603  86.6641857  56.8528643  18.0848588
  86.2261287  56.1364502  17.6254225  87.4052298  57.0804758  17.5233679
  83.4543023  51.5425579  24.6060684  82.6410889  51.8419750  25.0125876
  83.9502017  51.1481268  25.3235166  85.6051601  61.5383336  26.5394948
  85.5627780  61.7644183  25.6103480  86.5214300  61.3046711  26.6880749
  89.0517235  52.0067404  33.4375578  89.4066623  52.2338877  34.2970043
  89.6989366  52.3385781  32.8152833  94.7814972  55.1285840  24.1424907
  94.6432871  55.3187436  23.2146096  94.4251191  55.8905223  24.5992958
  82.9457098  49.1143935  30.2221919  83.5856477  48.9732694  29.5244882
  82.1134629  48.8278448  29.8460521  94.8084352  57.1962367  29.1536178
  95.2420858  57.1037656  30.0019232  95.5215932  57.1719867  28.5156194
  83.7217402  58.4146365  26.3356911  84.5158000  57.9196686  26.1339486
  83.0109094  57.8864229  25.9724617  88.5412246  60.7964461  30.6869279
  88.5949269  61.3655397  31.4546995  87.6727028  60.9666346  30.3223316
  80.0300165  52.5589447  22.4116664  79.0997754  52.4973903  22.6286626
  80.1257637  52.0365400  21.6153305  81.4210640  50.4982017  32.1693730
  82.0933693  50.2899379  31.5206379  80.5940426  50.3004103  31.7298962
  95.6699901  57.2386067  31.6869063  95.8635791  58.1431878  31.9328338
  95.5700519  56.7793487  32.5207648  87.3236212  47.1243958  34.1859391
  86.6764127  47.8233908  34.0923867  88.0937227  47.5580102  34.5535639
  90.7315010  57.3892810  37.2609944  90.5800516  57.1603362  36.3440028
  90.7219689  58.3463412  37.2741289  87.5000346  54.9624723  32.2456211
  88.4292406  55.1135883  32.0725178  87.0791376  55.0508744  31.3904857
  86.2988678  58.9875387  30.0154748  86.1599764  58.6194172  30.8880686
  85.5103274  59.5023027  29.8438706  86.8936830  64.0884484  21.3580285
  87.0688586  63.6172527  22.1725907  86.2069618  64.7150250  21.5861545
  87.8493893  58.3656990  27.4043586  87.5143726  58.3257760  28.3001236
  87.3497839  57.7001706  26.9313996  90.7853085  55.7113024  17.6780646
  90.1682255  54.9859853  17.5813698  90.3169573  56.4722385  17.3347720
  84.4520438  53.4844579  32.4179847  85.1620056  52.8437772  32.3766465
  84.4089746  53.7357474  33.3406028  92.4407216  60.4211933  35.3386426
  92.3819763  59.7371153  34.6717009  92.8426735  61.1630923  34.8867052
  83.1649372  50.4709797  34.2375486  82.6286729  50.0200536  34.8897083
  82.5766080  50.6055706  33.4945951  81.4597915  67.2373847  28.1320145
  81.6994513  67.8692371  28.8099163  80.6167112  66.8861887  28.4185504
  82.5751631  49.9298449  16.8001950  81.6981097  49.8087250  16.4364197
  83.0509384  49.1384527  16.5480839  92.4424624  58.3851517  33.5700406
  91.5551402  58.0477439  33.6926804  93.0123175  57.6534548  33.8069171
  85.9725777  63.0452969  30.5361649  85.8995949  63.8507941  31.0480953
  85.5303170  63.2444935  29.7109670  85.7615557  62.2824739  24.0464470
  84.9783079  62.8246419  24.1402695  86.4608302  62.7998719  24.4458712
  89.0712207  48.0919369  26.6898676  89.5680906  47.3389331  26.3699746
  88.2999188  48.1283685  26.1241885  96.9241964  53.7959734  28.3316967
  96.9131840  54.6784450  27.9610900  96.0559344  53.4431285  28.1371504
  88.4324461  62.9439803  32.6919807  89.1452433  63.5787268  32.6195709
  87.9414489  63.0403669  31.8759809  90.1541987  56.8491056  24.2637099
  89.2198266  56.9692518  24.0941803  90.3318656  55.9463523  23.9997109
  85.6547176  50.2336752  26.4170360  85.2844963  49.6807792  27.1051266
  86.1506268  49.6294885  25.8645360  93.5414539  52.6908375  24.7987133
  94.0074991  53.5236367  24.7247436  93.9922039  52.2253357  25.5032392
  83.4836374  60.6934247  33.5125378  84.1845834  61.3270730  33.6654773
  83.0131489  61.0348978  32.7521018  91.6090770  59.0352196  21.7973285
  91.8850614  58.9208791  22.7067159  90.7395269  58.6369681  21.7585458
  91.5131202  45.0588962  28.8378035  90.5994281  45.2893189  29.0060242
  91.9424303  45.1427406  29.6892067  91.2837660  53.2478854  31.3377929
  90.6309110  53.4954761  30.6830381  91.6618040  52.4342992  31.0040406
  88.2444834  63.2838547  25.4406099  88.4267228  62.4660203  25.9033851
  89.0677820  63.5006239  25.0030989  88.5786999  62.2106732  22.7021147
  89.1074766  61.6999187  22.0891310  88.8415219  61.8949263  23.5666680
  87.3325233  53.9898665  37.8243966  86.6565870  53.8892794  38.4946341
  88.1552867  53.8337879  38.2879963  79.0804092  60.2270602  30.4456481
  79.6657529  59.4814290  30.5784385  78.8828931  60.5374558  31.3293145
  81.9342747  63.2621849  25.4618923  81.2653123  63.7467977  24.9782963
  81.7955617  63.5091069  26.3762302  86.0748016  65.2965593  32.0601582
  86.6266324  65.4597214  32.8250667  86.4154209  65.8870030  31.3881607
  81.0512509  47.6440742  32.6623466  81.1153836  48.5055573  32.2500864
  80.9879629  47.0314744  31.9295825  90.9258890  60.1226850  37.9150236
  91.4698794  60.7356808  37.4205191  90.3445735  60.6806428  38.4317249
  77.3030325  51.5240304  22.2414856  77.5983766  50.6150982  22.1881909
  76.4018360  51.5028043  21.9195858  89.2116403  63.2447568  29.0465264
  89.0867543  62.4437308  28.5376209  89.8695494  63.7393761  28.5579234
  80.8324572  49.5996301  28.2242404  80.1111157  50.2132268  28.0849877
  81.6217827  50.1354065  28.1459050  91.2751312  61.0456588  30.6744814
  90.3281647  60.9261939  30.6023141  91.6234085  60.1579086  30.7571075
  83.6350885  46.9350727  34.4983056  84.1585287  47.1813024  35.2609365
  83.4163218  47.7670762  34.0786193  79.0318166  49.2054402  22.3654181
  78.7030872  48.3251781  22.1829287  79.3857537  49.1502070  23.2530570
  88.2797745  60.8409304  26.8749166  88.1322707  59.9126012  27.0556736
  89.1051238  60.8629395  26.3906241  82.1459989  49.4927371  22.7329658
  82.4856062  50.0213293  22.0108267  82.5932110  49.8307778  23.5088225
  91.8831867  61.6637863  27.9614039  92.8078414  61.4580724  27.8238490
  91.7147170  61.4154264  28.8703380  84.8403430  47.8764422  32.1832726
  84.5000250  47.0772235  32.5853406  84.1342436  48.1766133  31.6109560
  85.4919902  44.9613735  30.6360049  86.3145971  44.4874213  30.5138940
  85.7357965  45.7404218  31.1358736  84.1328136  47.9901993  20.9322951
  84.8536499  48.3683246  20.4286668  83.5093441  48.7090870  21.0357929
  88.2759259  48.6947142  21.8681283  88.4922874  49.5771780  21.5670112
  87.7953326  48.3033355  21.1386925  83.0158481  51.6532855  28.4452028
  82.8703061  51.9673158  29.3376310  82.5383684  52.2717756  27.8922927
  84.8754864  48.6435403  28.4932918  84.8616432  47.7476497  28.1565216
  85.5927292  48.6506067  29.1271204  86.7280994  49.0772743  30.5386045
  86.4698772  49.9989814  30.5370375  86.1966035  48.6803178  31.2286509
  91.6727183  62.1823531  23.3176130  91.8464061  61.6169953  22.5649983
  92.1656074  62.9824425  23.1355620  84.2791759  47.5249784  23.7620488
  84.4007671  46.5966430  23.9611375  83.9893802  47.5388469  22.8498803
  87.1482950  45.2104694  26.8987208  87.1704647  45.2744027  25.9439187
  87.5651009  44.3709203  27.0927714  97.5266574  54.9459953  24.9366430
  97.9697720  54.1967279  24.5385553  96.6493084  54.9370090  24.5540162
  92.6602355  61.4990295  20.4173029  93.3553260  62.1196988  20.6360343
  93.0025506  60.6485646  20.6925407  94.5593779  58.9490000  21.9460359
  95.0845103  59.2877273  21.2209679  94.4716131  58.0137016  21.7623494
  86.2213827  62.8624074  34.0750236  86.5300954  62.6173221  34.9472936
  87.0189309  63.0670713  33.5869106  86.2434439  65.0161984  26.3055613
  85.8039430  64.5238362  26.9988469  86.9942556  64.4734951  26.0647688
  78.7226778  61.2073525  26.3080241  79.5484798  60.9077296  25.9278884
  78.3720830  60.4381147  26.7570029  83.6908312  60.5599993  28.3777914
  83.0688321  59.8970698  28.0780142  84.3613178  60.5861125  27.6951562
  76.9235383  59.1259851  27.2669174  76.0867292  58.6982025  27.0853176
  76.8959029  59.3192294  28.2039966  94.2487685  59.5822904  37.2511557
  93.4583228  59.5647043  36.7116057  94.0121039  60.1211198  38.0060594
  94.3685560  56.4315370  34.5644286  94.4183565  56.2665378  35.5059809
  94.2599483  55.5642630  34.1742167  83.2521818  59.1103916  21.8536375
  83.4009939  59.7939381  21.2003048  84.0588262  59.0909006  22.3685831
  91.6589322  52.4146299  35.8803593  92.5599185  52.2752763  35.5887590
  91.7337297  52.5800753  36.8201770  85.9932127  49.7913153  34.7256779
  85.1235437  50.0846719  34.4539368  86.2291608  50.3753598  35.4464043
  95.8703757  58.8512312  34.8086307  95.5788565  59.2142293  35.6449768
  95.2575888  58.1379320  34.6299640  97.0699439  56.4165192  27.3288878
  97.9046330  56.8554996  27.4926438  97.2058568  55.9403845  26.5097123
  94.1190945  53.9744927  33.2766365  94.5945066  54.1672573  32.4685217
  93.1956510  54.0304112  33.0309749  81.0074451  55.1369094  22.8597444
  80.7620493  54.2331424  23.0577654  81.1770366  55.1386244  21.9176922
  88.6971161  46.0092770  32.2422199  89.2153105  46.7453797  31.9168688
  88.3426294  46.3156763  33.0768958  80.2770099  50.8697451  20.3583605
  79.5839344  50.9441806  19.7023641  80.0321851  50.1057795  20.8805122
  88.9483755  42.4293053  27.7623096  89.2285509  41.7616242  28.3883523
  89.7334362  42.6222148  27.2497760  86.7517224  61.6052047  19.3248122
  86.1791191  62.2242234  18.8718594  87.3250018  62.1551408  19.8588044
  92.8192614  50.8510687  31.5094671  93.7710037  50.9508784  31.5306895
  92.6496064  50.0588955  32.0192755  90.8406993  47.9366270  31.6954072
  90.2456925  48.2171283  31.0000561  90.5556690  48.4260171  32.4670813
  89.9714484  61.8889197  20.4556705  90.9045157  61.8234758  20.6589580
  89.8837697  62.7245464  19.9971237  92.6002500  61.2055067  17.4160652
  92.5216132  60.8714931  18.3096410  93.4212167  61.6976835  17.4152124
  95.2980692  54.0716806  30.6236971  95.2657012  53.1332807  30.8096655
  95.9081315  54.1500843  29.8902796  87.1364022  52.9412859  16.6664175
  88.0823127  52.8119067  16.7352593  86.7578267  52.2027521  17.1433603
  95.4475180  50.8627850  30.6695254  94.9314229  50.0786306  30.4825183
  96.3315129  50.5346566  30.8341773  93.1085907  44.6068865  26.6291067
  92.9110728  44.2983954  27.5134399  93.7185613  45.3330504  26.7588996
 101.1157241  55.1332813  29.7643008 101.8460630  54.8718101  30.3250711
 100.5064187  54.3961535  29.8045076  99.1972539  53.2740676  30.3617459
  98.4705702  53.1396641  29.7533950  98.7819825  53.5817504  31.1674177
  87.0202715  56.9930606  38.1264832  87.9405724  57.1709205  38.3204878
  86.9852298  56.0486651  37.9744531  85.3206940  50.8662836  16.6019060
  84.4138395  50.5695948  16.6781774  85.5982921  50.5692654  15.7353346
  76.2384880  52.1869199  27.0518106  75.9187664  51.3334507  26.7592480
  75.6918308  52.4017777  27.8076074  80.0164788  54.9031640  30.7687613
  80.2350797  55.8348748  30.7875647  80.4290561  54.5439615  31.5542417
  86.9369005  45.4099725  22.7563301  86.1269734  45.0646810  23.1318547
  87.6253422  45.1007269  23.3450913  88.8659554  44.4877772  24.3787598
  89.4190592  44.9073226  25.0377621  89.1029640  43.5613520  24.4210554
  84.0905724  47.7249771  16.7431039  84.9524888  48.0504669  17.0026857
  84.2756068  46.9381267  16.2304105  92.2438361  46.5978297  23.8866262
  91.6637030  47.2563101  23.5044315  91.9774293  45.7755642  23.4753680
  90.6941927  45.9983355  26.0887583  91.1941705  46.1099890  25.2801901
  91.3377535  45.6944408  26.7288391  78.0209883  55.7390364  26.8977243
  77.9980571  55.8378052  25.9459126  78.3310519  56.5855515  27.2194409
  80.6797260  57.7966519  31.0123857  81.6340514  57.7650462  30.9453789
  80.4809784  57.3357143  31.8274083  91.0263239  48.7578388  22.9422610
  90.1389094  49.0428038  22.7242805  91.4417228  48.5972151  22.0949887
  94.3777775  48.7824909  26.6576950  95.1538165  49.2721361  26.9301567
  93.6525909  49.2082963  27.1148819  96.8150333  49.4952528  27.7150890
  97.4094824  49.2548264  27.0044199  96.8876917  48.7759659  28.3424427
  79.0347489  63.3386139  28.0294055  78.9001957  62.5786540  27.4632053
  78.6179551  64.0627039  27.5622844  90.1706452  58.5223063  17.0370630
  90.8742302  58.7273065  17.6528286  89.4469101  59.0899824  17.3019714
  91.0004262  54.2732924  23.1572901  90.9439464  54.7301475  22.3180533
  91.5532605  53.5123608  22.9795743  94.8109068  50.0622656  23.9823020
  94.5546003  49.6619291  24.8131228  94.1861936  50.7766450  23.8573159
  99.1221406  52.8018729  26.4894312  98.5620964  52.8711918  27.2625874
  98.5164910  52.6259714  25.7693808  82.1916615  64.2355456  28.2412498
  82.0748999  65.1800888  28.1391188  81.3709061  63.9329018  28.6298297
  92.0793150  58.9605592  19.0869090  92.9138754  58.5286790  18.9046565
  91.9177493  58.7887605  20.0145985  91.7339042  55.4637705  20.4525430
  91.6787846  55.2981976  19.5113874  91.1085097  56.1713738  20.6087620
  89.0484949  57.7686617  39.7778993  89.9176109  57.9427269  39.4165627
  88.5691700  58.5881034  39.6554722  85.0435167  44.9645814  20.0310748
  85.0313837  45.9087654  20.1879019  85.9358589  44.7815959  19.7370209
  83.2171129  64.8883718  31.4568426  84.1198376  64.9207328  31.7734921
  82.9908499  63.9584169  31.4714762  84.9724731  63.6414704  28.1178505
  84.0220362  63.6416566  28.0042877  85.2757217  62.8947439  27.6014539
  88.8587287  41.5588591  24.2856685  88.0919682  41.0047077  24.4313367
  89.2697992  41.6310459  25.1470837 100.7077425  69.4775243  29.1824267
 101.3455835  69.3581990  28.4787607 100.5898268  70.4256087  29.2412219
  97.5167131  69.4302671  29.1185792  97.1785642  69.3143736  28.2306327
  98.3856899  69.0293836  29.0986798  93.3753947  71.2838147  25.1082683
  92.8118812  71.1928084  24.3398971  93.2606342  70.4638052  25.5885175
  97.9986914  70.5837523  35.0771997  97.9875555  70.1890321  34.2052501
  98.1607553  69.8503595  35.6705769  90.9218379  72.7789339  27.9466903
  91.7139671  72.4380164  27.5313203  91.1615029  72.8884314  28.8669057
  98.9553505  74.9509115  20.4197148  98.3041485  75.5363195  20.0331162
  99.7497868  75.4815310  20.4792185  92.8809133  72.0398252  20.8184282
  93.6540009  71.4927239  20.6797158  93.2334531  72.9042502  21.0298744
  94.7194175  73.3674634  34.0251181  94.4284041  74.2720265  33.9097848
  95.3551159  73.4091162  34.7395251  95.6450382  70.7451483  30.6152541
  96.2413954  70.5207505  29.9009504  95.7025353  70.0036228  31.2177989
  95.2175410  68.1990918  18.4502732  95.4700931  67.6772440  17.6886195
  94.2799969  68.0357064  18.5529416 100.2618693  67.2026697  26.2577475
 101.0481782  66.7846120  25.9067892 100.5257397  68.1072789  26.4259124
 100.4328771  72.6399547  20.9566132  99.7974603  72.7134173  21.6687037
 100.1026177  73.2293146  20.2785211 105.6627120  67.1401930  27.1610454
 106.3952292  66.5701147  27.3948283 104.9066476  66.7523530  27.6016959
  94.9371699  70.1019024  20.6527107  94.8207957  69.4263928  21.3208191
  95.0473959  69.6151398  19.8359260  97.2803240  69.5629171  24.3573796
  96.9161447  69.0359792  25.0686718  98.1370356  69.1727640  24.1840282
 103.1852541  60.8523504  31.6205062 102.8535865  61.7218915  31.3966277
 102.5898154  60.5359788  32.2999093  96.9208727  64.5919071  19.3535145
  97.0883129  65.4599307  19.7205616  96.7305896  64.7546353  18.4296434
  99.6784060  73.0536050  31.0200975  99.3784783  73.9561089  30.9116782
  99.3335120  72.7868233  31.8722128  93.1296542  69.5049847  27.0537680
  92.2047038  69.3726061  27.2615371  93.3780955  70.2844066  27.5507622
 103.0781204  65.5718590  28.6998412 102.1698081  65.5033999  28.4057173
 103.0268800  66.0490535  29.5280238  96.8997948  67.0476729  20.3381812
  96.7797573  67.4933779  21.1767292  96.2050536  67.3962046  19.7795350
  90.4905353  69.1483120  27.8881469  90.6197734  69.4017599  28.8020880
  89.8102804  69.7410828  27.5686124  94.6604840  79.8180370  23.9871943
  94.5828870  80.7688195  24.0660423  94.0566484  79.4726243  24.6446869
  97.1522070  66.9908236  36.6433310  96.3755404  67.5502156  36.6336174
  97.7912633  67.4765019  37.1648180 104.9442850  63.7735029  30.4776286
 104.3017231  64.0667562  29.8316081 104.4397779  63.6587949  31.2829483
 102.5983014  67.5198202  21.1662146 103.5100870  67.7525588  20.9909843
 102.0892661  68.1035246  20.6037224  95.4068442  69.7993689  36.2051277
  96.1483126  70.3378733  35.9286100  94.7005428  70.4259978  36.3622829
 100.8823782  71.9422830  34.8023438 101.2907138  71.5005240  34.0578071
 100.1601043  71.3675457  35.0557631  97.2354852  66.8795436  32.1756995
  98.0816047  67.3034850  32.3191644  97.1753489  66.2229061  32.8695558
 101.2052596  72.5024020  28.5575727 100.5761459  72.6669734  27.8551795
 100.8178258  72.9165630  29.3286691 105.0841828  73.4378458  25.9120091
 104.3992866  73.8177359  25.3617124 105.1685678  74.0473785  26.6452039
 100.3854297  64.5399805  33.8338169 100.1415229  65.2941865  33.2972444
 100.6614228  64.9185152  34.6685416 102.3392760  71.0838417  32.5115434
 102.5509655  71.7270177  31.8349815 102.2922508  70.2500734  32.0437364
  99.9418989  63.6956238  29.4152007  99.0803468  63.9937491  29.7068744
  99.9681423  63.9126637  28.4833039  96.7580558  72.2398428  25.8225812
  97.2218904  72.5186131  25.0330435  96.4937356  71.3381873  25.6398903
  93.6504639  71.7869910  28.7605575  94.2205996  72.2157178  28.1223060
  94.2412751  71.5052495  29.4589761  95.6949444  68.3621581  22.6315377
  96.3973488  68.8142624  23.0989304  95.3630073  67.7205400  23.2595270
  94.1429806  66.9533337  37.0066587  93.5128466  67.6349618  37.2401984
  94.0365894  66.8416419  36.0619725  89.4374778  66.6205133  27.9332511
  88.6473832  66.8762662  27.4572622  89.9286026  67.4353471  28.0384551
 103.4538588  73.9610372  30.6837792 104.2756032  73.5590560  30.4020473
 103.4500991  73.8578607  31.6353908  91.3889524  66.9849713  24.8915988
  90.5920687  67.0968407  25.4099483  91.1615116  67.3236365  24.0256878
  97.2195191  73.5094416  32.8398502  97.2839624  73.9714823  33.6756674
  96.5106115  72.8791781  32.9680812  87.7212481  66.8735624  30.3647502
  87.9720520  67.7582634  30.6305078  88.2572030  66.6940225  29.5922594
  96.9343209  75.1762523  22.7077483  96.7988884  76.0214059  23.1362330
  97.4753021  75.3781801  21.9443416  93.4210549  61.2554103  39.3691838
  93.0277494  60.7020302  40.0439482  94.2376689  61.5664682  39.7598355
  90.3872606  72.6937961  23.2805408  90.8997127  73.4881212  23.4310972
  91.0395319  71.9964252  23.2139009  92.1967491  75.8103718  25.3628161
  92.3734119  76.7321682  25.1749145  92.9924325  75.4962137  25.7922541
  96.3378510  62.6711982  36.9612094  97.0788223  63.2719135  36.8816557
  96.5696432  61.9289620  36.4030137  91.4819848  67.8568349  35.2390324
  91.3673363  66.9553607  35.5397423  90.6264365  68.1032046  34.8875141
  98.5611685  75.7986090  36.8377825  98.1175539  75.0122468  36.5198729
  99.2228899  75.9865240  36.1721715  93.3198806  77.3281891  31.3638503
  93.8706232  77.1998955  30.5915497  92.4810282  77.6276780  31.0133396
 100.6592923  76.0788890  34.8659226 100.6411399  76.8997771  34.3739495
 101.5812843  75.9542965  35.0909367  97.1165978  73.5933019  35.7082734
  97.6494314  72.8321307  35.4782042  96.5880059  73.3006671  36.4506889
 100.2835672  58.6993085  31.2376376  99.9399942  59.5894727  31.1615487
 100.6514635  58.5094743  30.3745961  88.3521523  71.0226616  24.0564978
  89.1896745  71.4323624  23.8398686  88.5299791  70.0826058  24.0265172
 100.2485955  68.6901696  19.7448811  99.7332579  69.4606301  19.9837199
  99.9763264  68.0166832  20.3681873  97.8333066  63.5351397  24.8034050
  96.9774663  63.1458247  24.6239688  98.2460018  63.6143358  23.9433835
  99.3632213  61.0697740  29.2025609  98.8597008  61.0327875  28.3893415
  99.6562820  61.9790483  29.2622266  95.6075099  61.1536470  28.2091791
  96.4728096  60.9579279  27.8497680  95.6752608  60.9246822  29.1361148
 105.2220229  71.4434051  21.6801985 104.4449672  71.1045210  21.2357147
 105.9011710  71.4486674  21.0056950 100.0372258  66.5628788  21.5708592
  99.7322394  66.8774938  22.4218736 100.9902700  66.6410208  21.6135925
  98.4818690  72.7219012  23.2201546  97.9540052  71.9871771  22.9074784
  97.9806193  73.4993688  22.9741515 103.4611536  70.9168032  28.3368593
 102.8035211  71.6067294  28.4248721 104.2651935  71.3064464  28.6802579
  93.2137418  63.3838678  25.5808158  93.7881170  63.1613859  24.8481351
  93.8008400  63.4527372  26.3336759 102.2716995  69.2712405  26.3872534
 102.7848877  69.9042397  26.8894244 102.9218219  68.6713600  26.0215894
  93.5407005  65.4143139  19.6004043  92.7044317  65.7517826  19.9213318
  93.4011775  65.2792119  18.6631180  95.5160086  60.2579927  24.3083227
  94.8624498  59.9428944  23.6839842  95.4740560  59.6355667  25.0343050
  96.6271290  70.5399222  16.2236519  95.7198352  70.3088475  16.4227668
  97.1242322  69.7436841  16.4110501  98.7497826  66.7461860  28.6330875
  97.8320387  66.9676807  28.4752563  99.1657970  66.8208171  27.7742582
  99.5332874  68.1453276  23.7633555 100.2804693  68.6574673  23.4540677
  99.8024463  67.8237329  24.6237949  97.8059524  70.6411817  20.7460509
  96.8970743  70.3570850  20.8432979  97.8354608  71.0610895  19.8863816
 103.0378791  74.2518406  24.5151677 102.5841118  73.4109316  24.5716867
 102.4072758  74.8879805  24.8526457 101.9811711  65.1810392  25.7452344
 101.2434468  64.6687779  26.0762587 102.2338484  64.7410774  24.9335621
 101.4811730  76.0894903  25.4501495 101.7734705  76.6499960  24.7313861
 101.9910351  76.3823464  26.2054654 102.0823338  57.9586644  26.3394114
 102.3882215  57.0984008  26.0520029 102.8075943  58.5504265  26.1393108
  88.3747694  68.3617331  24.7275712  88.1772094  67.7686692  24.0026778
  87.8194358  68.0569541  25.4451650  96.3544418  68.2540437  26.8470305
  96.4093028  67.3014274  26.7712781  95.5435620  68.4099877  27.3311603
  97.5035612  72.1820560  18.0848588  97.0655042  71.4656419  17.6254225
  98.2446052  72.4096675  17.5233679  94.2936778  66.8717497  24.6060684
  93.4804643  67.1711668  25.0125876  94.7895772  66.4773186  25.3235166
  96.4445356  76.8675254  26.5394948  96.4021534  77.0936100  25.6103480
  97.3608055  76.6338629  26.6880749  99.8910989  67.3359322  33.4375578
 100.2460377  67.5630795  34.2970043 100.5383121  67.6677698  32.8152833
 105.6208726  70.4577758  24.1424907 105.4826625  70.6479353  23.2146096
 105.2644945  71.2197140  24.5992958  93.7850853  64.4435853  30.2221919
  94.4250232  64.3024612  29.5244882  92.9528383  64.1570366  29.8460521
 105.6478106  72.5254285  29.1536178 106.0814613  72.4329574  30.0019232
 106.3609687  72.5011785  28.5156194  94.5611156  73.7438283  26.3356911
  95.3551755  73.2488603  26.1339486  93.8502849  73.2156146  25.9724617
  99.3806001  76.1256379  30.6869279  99.4343023  76.6947315  31.4546995
  98.5120782  76.2958264  30.3223316  90.8693920  67.8881365  22.4116664
  89.9391508  67.8265820  22.6286626  90.9651392  67.3657318  21.6153305
  90.7879469  64.4136178  24.9994905  91.0486286  65.3281511  24.8904066
  91.6096641  63.9460620  25.1491518  92.2604394  65.8273935  32.1693730
  92.9327448  65.6191297  31.5206379  91.4334181  65.6296021  31.7298962
 106.5093656  72.5677985  31.6869063 106.7029546  73.4723796  31.9328338
 106.4094274  72.1085404  32.5207648  98.1629966  62.4535876  34.1859391
  97.5157881  63.1525825  34.0923867  98.9330982  62.8872020  34.5535639
 101.5708764  72.7184728  37.2609944 101.4194271  72.4895280  36.3440028
 101.5613444  73.6755329  37.2741289  98.3394101  70.2916641  32.2456211
  99.2686161  70.4427800  32.0725178  97.9185131  70.3800661  31.3904857
  97.1382432  74.3167305  30.0154748  96.9993518  73.9486089  30.8880686
  96.3497029  74.8314945  29.8438706  97.7330584  79.4176402  21.3580285
  97.9082340  78.9464445  22.1725907  97.0463372  80.0442168  21.5861545
  98.6887648  73.6948908  27.4043586  98.3537480  73.6549678  28.3001236
  98.1891593  73.0293624  26.9313996  92.6631892  69.1016538  32.9296167
  92.5251689  68.3696777  33.5307706  93.5736815  69.0125438  32.6480355
  95.2914192  68.8136497  32.4179847  96.0013811  68.1729689  32.3766465
  95.2483500  69.0649392  33.3406028 103.2800971  75.7503850  35.3386426
 103.2213517  75.0663071  34.6717009 103.6820489  76.4922840  34.8867052
  94.0043126  65.8001715  34.2375486  93.4680483  65.3492453  34.8897083
  93.4159835  65.9347624  33.4945951  92.2991670  82.5665764  28.1320145
  92.5388268  83.1984288  28.8099163  91.4560866  82.2153804  28.4185504
  93.4145385  65.2590366  16.8001950  92.5374851  65.1379167  16.4364197
  93.8903138  64.4676445  16.5480839 103.2818378  73.7143434  33.5700406
 102.3945157  73.3769356  33.6926804 103.8516929  72.9826466  33.8069171
  84.9347525  70.0467526  26.8943457  85.6218565  69.7329256  26.3064472
  84.7795654  70.9508891  26.6210708  89.7382247  64.9357723  31.3228481
  89.6540436  64.3283392  30.5878891  88.9164954  65.4266741  31.3237977
  96.8119532  78.3744887  30.5361649  96.7389703  79.1799858  31.0480953
  96.3696925  78.5736853  29.7109670  96.6009311  77.6116657  24.0464470
  95.8176833  78.1538337  24.1402695  97.3002056  78.1290636  24.4458712
  99.9105961  63.4211286  26.6898676 100.4074661  62.6681249  26.3699746
  99.1392943  63.4575603  26.1241885 107.7635719  69.1251652  28.3316967
 107.7525595  70.0076367  27.9610900 106.8953098  68.7723203  28.1371504
  99.2718215  78.2731721  32.6919807  99.9846187  78.9079186  32.6195709
  98.7808244  78.3695587  31.8759809 100.9935742  72.1782973  24.2637099
 100.0592021  72.2984436  24.0941803 101.1712410  71.2755440  23.9997109
  96.4940930  65.5628669  26.4170360  96.1238718  65.0099710  27.1051266
  96.9900023  64.9586803  25.8645360 104.3808293  68.0200293  24.7987133
 104.8468746  68.8528284  24.7247436 104.8315794  67.5545274  25.5032392
  94.3230129  76.0226164  33.5125378  95.0239588  76.6562647  33.6654773
  93.8525244  76.3640896  32.7521018 102.4484524  74.3644114  21.7973285
 102.7244368  74.2500709  22.7067159 101.5789023  73.9661599  21.7585458
 102.3524956  60.3880880  28.8378035 101.4388036  60.6185107  29.0060242
 102.7818058  60.4719324  29.6892067 102.1231415  68.5770772  31.3377929
 101.4702865  68.8246679  30.6830381 102.5011794  67.7634910  31.0040406
  99.0838588  78.6130465  25.4406099  99.2660983  77.7952121  25.9033851
  99.9071574  78.8298157  25.0030989  99.4180754  77.5398650  22.7021147
  99.9468520  77.0291105  22.0891310  99.6808974  77.2241180  23.5666680
  98.1718988  69.3190583  37.8243966  97.4959625  69.2184712  38.4946341
  98.9946621  69.1629797  38.2879963  89.9197847  75.5562519  30.4456481
  90.5051283  74.8106207  30.5784385  89.7222685  75.8666476  31.3293145
  92.7736502  78.5913767  25.4618923  92.1046877  79.0759894  24.9782963
  92.6349372  78.8382987  26.3762302  84.5115501  68.1268120  29.1660924
  84.5499601  67.5931710  29.9598042  84.0055794  67.6003325  28.5471901
  96.9141770  80.6257510  32.0601582  97.4660079  80.7889132  32.8250667
  97.2547964  81.2161948  31.3881607  91.8906264  62.9732660  32.6623466
  91.9547590  63.8347491  32.2500864  91.8273384  62.3606662  31.9295825
  91.3658536  65.0455793  36.3096501  91.9930575  64.6632870  36.9234025
  90.5086455  64.8269994  36.6752193 101.7652645  75.4518768  37.9150236
 102.3092549  76.0648726  37.4205191 101.1839490  76.0098346  38.4317249
  88.1424079  66.8532222  22.2414856  88.4377520  65.9442900  22.1881909
  87.2412115  66.8319961  21.9195858 100.0510158  78.5739486  29.0465264
  99.9261297  77.7729226  28.5376209 100.7089249  79.0685679  28.5579234
  91.6718326  64.9288218  28.2242404  90.9504912  65.5424186  28.0849877
  92.4611582  65.4645983  28.1459050 102.1145066  76.3748506  30.6744814
 101.1675402  76.2553857  30.6023141 102.4627839  75.4871004  30.7571075
  94.4744640  62.2642645  34.4983056  94.9979041  62.5104941  35.2609365
  94.2556973  63.0962680  34.0786193  89.8711921  64.5346319  22.3654181
  89.5424627  63.6543698  22.1829287  90.2251291  64.4793988  23.2530570
  99.1191499  76.1701222  26.8749166  98.9716462  75.2417929  27.0556736
  99.9444993  76.1921313  26.3906241  92.9853744  64.8219289  22.7329658
  93.3249816  65.3505210  22.0108267  93.4325864  65.1599695  23.5088225
 102.7225621  76.9929781  27.9614039 103.6472169  76.7872642  27.8238490
 102.5540925  76.7446182  28.8703380  95.6797185  63.2056340  32.1832726
  95.3394005  62.4064153  32.5853406  94.9736191  63.5058051  31.6109560
  96.3313656  60.2905652  30.6360049  97.1539726  59.8166130  30.5138940
  96.5751720  61.0696136  31.1358736  94.9721891  63.3193911  20.9322951
  95.6930253  63.6975164  20.4286668  94.3487195  64.0382788  21.0357929
  99.1153014  64.0239060  21.8681283  99.3316628  64.9063698  21.5670112
  98.6347081  63.6325273  21.1386925  93.8552235  66.9824773  28.4452028
  93.7096816  67.2965076  29.3376310  93.3777439  67.6009673  27.8922927
  95.7148618  63.9727321  28.4932918  95.7010187  63.0768414  28.1565216
  96.4321046  63.9797985  29.1271204  97.5674749  64.4064661  30.5386045
  97.3092527  65.3281732  30.5370375  97.0359789  64.0095096  31.2286509
 102.5120937  77.5115448  23.3176130 102.6857815  76.9461871  22.5649983
 103.0049829  78.3116343  23.1355620  88.3297897  69.5230117  31.3839689
  87.7851365  70.2989925  31.5159964  89.2077247  69.8700922  31.2258811
  95.1185514  62.8541701  23.7620488  95.2401425  61.9258347  23.9611375
  94.8287556  62.8680387  22.8498803  97.9876704  60.5396612  26.8987208
  98.0098401  60.6035945  25.9439187  98.4044763  59.7001120  27.0927714
  89.1163919  68.6500014  34.2769846  88.3745655  68.7982649  34.8634477
  88.7956663  68.9108279  33.4136595 105.3987533  74.2781918  21.9460359
 105.9238857  74.6169191  21.2209679 105.3109886  73.3428933  21.7623494
  97.0607582  78.1915992  34.0750236  97.3694708  77.9465139  34.9472936
  97.8583064  78.3962630  33.5869106  97.0828194  80.3453901  26.3055613
  96.6433184  79.8530280  26.9988469  97.8336311  79.8026869  26.0647688
  89.5620533  76.5365442  26.3080241  90.3878553  76.2369214  25.9278884
  89.2114585  75.7673065  26.7570029  94.5302066  75.8891911  28.3777914
  93.9082075  75.2262616  28.0780142  95.2006933  75.9153042  27.6951562
  87.7629138  74.4551769  27.2669174  86.9261046  74.0273943  27.0853176
  87.7352783  74.6484212  28.2039966  94.6026593  64.3673699  37.9710420
  94.6514749  65.2435821  37.5888190  95.1449108  63.8251092  37.3982064
 105.0881439  74.9114822  37.2511557 104.2976983  74.8938961  36.7116057
 104.8514794  75.4503115  38.0060594 105.2079314  71.7607288  34.5644286
 105.2577319  71.5957296  35.5059809 105.0993238  70.8934547  34.1742167
  94.0915573  74.4395834  21.8536375  94.2403693  75.1231298  21.2003048
  94.8982016  74.4200924  22.3685831 102.4983077  67.7438216  35.8803593
 103.3992939  67.6044681  35.5887590 102.5731051  67.9092671  36.8201770
  96.8325882  65.1205071  34.7256779  95.9629191  65.4138637  34.4539368
  97.0685362  65.7045516  35.4464043 106.7097511  74.1804230  34.8086307
 106.4182319  74.5434210  35.6449768 106.0969642  73.4671238  34.6299640
 104.9584699  69.3036844  33.2766365 105.4338821  69.4964491  32.4685217
 104.0350265  69.3596030  33.0309749  91.8468206  70.4661011  22.8597444
  91.6014248  69.5623341  23.0577654  92.0164120  70.4678162  21.9176922
  99.5364916  61.3384688  32.2422199 100.0546860  62.0745715  31.9168688
  99.1820049  61.6448681  33.0768958  91.1163853  66.1989369  20.3583605
  90.4233098  66.2733724  19.7023641  90.8715605  65.4349713  20.8805122
  99.7877510  57.7584970  27.7623096 100.0679264  57.0908159  28.3883523
 100.5728117  57.9514066  27.2497760 103.6586368  66.1802604  31.5094671
 104.6103791  66.2800702  31.5306895 103.4889819  65.3880873  32.0192755
 101.6800748  63.2658188  31.6954072 101.0850680  63.5463200  31.0000561
 101.3950444  63.7552089  32.4670813 106.1374446  69.4008724  30.6236971
 106.1050766  68.4624725  30.8096655 106.7475070  69.4792761  29.8902796
  97.9757777  68.2704777  16.6664175  98.9216882  68.1410985  16.7352593
  97.5972022  67.5319439  17.1433603 106.2868935  66.1919768  30.6695254
 105.7707983  65.4078224  30.4825183 107.1708883  65.8638484  30.8341773
 103.9479661  59.9360783  26.6291067 103.7504483  59.6275871  27.5134399
 104.5579367  60.6622422  26.7588996  97.8596469  72.3222523  38.1264832
  98.7799479  72.5001122  38.3204878  97.8246053  71.3778569  37.9744531
  96.1600694  66.1954753  16.6019060  95.2532149  65.8987866  16.6781774
  96.4376675  65.8984572  15.7353346  87.0778634  67.5161117  27.0518106
  86.7581419  66.6626425  26.7592480  86.5312063  67.7309695  27.8076074
  90.8558542  70.2323558  30.7687613  91.0744552  71.1640666  30.7875647
  91.2684316  69.8731532  31.5542417  97.7762760  60.7391643  22.7563301
  96.9663488  60.3938728  23.1318547  98.4647177  60.4299187  23.3450913
  99.7053308  59.8169690  24.3787598 100.2584347  60.2365143  25.0377621
  99.9423394  58.8905438  24.4210554  95.7286407  65.8056764  40.1590362
  95.6283134  66.7551121  40.0902453  95.5107949  65.4775003  39.2866432
  94.9299479  63.0541689  16.7431039  95.7918643  63.3796587  17.0026857
  95.1149823  62.2673185  16.2304105  86.9466894  71.1364028  29.0211228
  86.2530366  70.7217981  28.5081182  87.6939885  71.1784565  28.4244647
 103.0832115  61.9270215  23.8866262 102.5030784  62.5855019  23.5044315
 102.8168048  61.1047560  23.4753680 101.5335682  61.3275273  26.0887583
 102.0335460  61.4391807  25.2801901 102.1771289  61.0236326  26.7288391
  95.5917677  69.2353902  38.9755423  95.1084759  70.0354263  39.1819313
  95.6778616  69.2461847  38.0222867  88.8603637  71.0682282  26.8977243
  88.8374325  71.1669969  25.9459126  89.1704273  71.9147433  27.2194409
  91.5191015  73.1258437  31.0123857  92.4734268  73.0942379  30.9453789
  91.3203538  72.6649061  31.8274083  92.1090397  71.6959553  33.5794655
  92.9283286  72.1903632  33.6029492  92.3827205  70.7791521  33.5512222
 101.8656993  64.0870306  22.9422610 100.9782848  64.3719956  22.7242805
 102.2810982  63.9264069  22.0949887 105.2171529  64.1116826  26.6576950
 105.9931919  64.6013279  26.9301567 104.4919664  64.5374881  27.1148819
 107.6544088  64.8244446  27.7150890 108.2488579  64.5840182  27.0044199
 107.7270672  64.1051576  28.3424427  89.8741244  78.6678057  28.0294055
  89.7395712  77.9078458  27.4632053  89.4573306  79.3918957  27.5622844
 101.8398017  69.6024841  23.1572901 101.7833218  70.0593393  22.3180533
 102.3926359  68.8415526  22.9795743 105.6502823  65.3914573  23.9823020
 105.3939757  64.9911209  24.8131228 105.0255691  66.1058367  23.8573159
  93.0310370  79.5647374  28.2412498  92.9142754  80.5092806  28.1391188
  92.2102816  79.2620935  28.6298297 102.5732796  70.7929623  20.4525430
 102.5181600  70.6273894  19.5113874 101.9478852  71.5005656  20.6087620
  87.3625311  66.0297687  34.2786852  88.0084175  65.5196641  34.7674077
  87.1542462  66.7666369  34.8530277  99.8878703  73.0978535  39.7778993
 100.7569863  73.2719187  39.4165627  99.4085455  73.9172951  39.6554722
  95.8828922  60.2937732  20.0310748  95.8707592  61.2379572  20.1879019
  96.7752344  60.1107877  19.7370209  94.0564884  80.2175636  31.4568426
  94.9592130  80.2499246  31.7734921  93.8302254  79.2876087  31.4714762
  95.8118486  78.9706622  28.1178505  94.8614117  78.9708484  28.0042877
  96.1150972  78.2239357  27.6014539  99.6981041  56.8880508  24.2856685
  98.9313437  56.3338995  24.4313367 100.1091746  56.9602377  25.1470837
  91.7022802  63.1765304  38.3761866  92.5654264  62.8202109  38.5865191
  91.1288213  62.8379199  39.0637271 101.7612133  88.1081257  27.9466903
 102.5533425  87.7672081  27.5313203 102.0008783  88.2176232  28.8669057
 105.5587930  88.6966552  34.0251181 105.2677796  89.6012183  33.9097848
 106.1944914  88.7383080  34.7395251 106.4844136  86.0743401  30.6152541
 107.0807709  85.8499423  29.9009504 106.5419108  85.3328146  31.2177989
 103.9690296  84.8341764  27.0537680 103.0440793  84.7017979  27.2615371
 104.2174709  85.6135984  27.5507622 101.3299107  84.4775038  27.8881469
 101.4591488  84.7309517  28.8020880 100.6496558  85.0702746  27.5686124
 106.2462197  85.1285607  36.2051277 106.9876881  85.6670651  35.9286100
 105.5399182  85.7551896  36.3622829 104.9823560  82.2825255  37.0066587
 104.3522221  82.9641536  37.2401984 104.8759648  82.1708337  36.0619725
 100.2768533  81.9497051  27.9332511  99.4867587  82.2054580  27.4572622
 100.7679780  82.7645389  28.0384551 108.0588946  88.8386333  32.8398502
 108.1233378  89.3006741  33.6756674 107.3499870  88.2083698  32.9680812
  98.5606236  82.2027541  30.3647502  98.8114274  83.0874551  30.6305078
  99.0965784  82.0232143  29.5922594 104.2604303  76.5846021  39.3691838
 103.8671249  76.0312219  40.0439482 105.0770443  76.8956599  39.7598355
 107.1772264  78.0003900  36.9612094 107.9181977  78.6011053  36.8816557
 107.4090187  77.2581538  36.4030137 102.3213602  83.1860267  35.2390324
 102.2067117  82.2845524  35.5397423 101.4658120  83.4323964  34.8875141
 106.4468853  76.4828388  28.2091791 107.3121850  76.2871196  27.8497680
 106.5146362  76.2538739  29.1361148 104.0531172  78.7130596  25.5808158
 104.6274924  78.4905777  24.8481351 104.6402155  78.7819290  26.3336759
 106.3553840  75.5871845  24.3083227 105.7018252  75.2720862  23.6839842
 106.3134314  74.9647585  25.0343050  99.2141449  83.6909249  24.7275712
  99.0165849  83.0978609  24.0026778  98.6588113  83.3861459  25.4451650
 107.1938172  83.5832355  26.8470305 107.2486782  82.6306191  26.7712781
 106.3829374  83.7391794  27.3311603 104.6244607  79.7727770  30.2221919
 105.2643986  79.6316529  29.5244882 103.7922138  79.4862284  29.8460521
 101.6273223  79.7428095  24.9994905 101.8880041  80.6573429  24.8904066
 102.4490396  79.2752538  25.1491518 103.0998149  81.1565853  32.1693730
 103.7721202  80.9483215  31.5206379 102.2727935  80.9587939  31.7298962
 103.5025646  84.4308455  32.9296167 103.3645444  83.6988694  33.5307706
 104.4130570  84.3417356  32.6480355 106.1307947  84.1428415  32.4179847
 106.8407565  83.5021607  32.3766465 106.0877255  84.3941310  33.3406028
 104.8436881  81.1293633  34.2375486 104.3074238  80.6784371  34.8897083
 104.2553589  81.2639542  33.4945951  95.7741280  85.3759444  26.8943457
  96.4612320  85.0621174  26.3064472  95.6189408  86.2800808  26.6210708
 100.5776002  80.2649640  31.3228481 100.4934191  79.6575310  30.5878891
  99.7558708  80.7558659  31.3237977 107.3334685  80.8920587  26.4170360
 106.9632472  80.3391627  27.1051266 107.8293777  80.2878720  25.8645360
 105.1623883  91.3518082  33.5125378 105.8633343  91.9854565  33.6654773
 104.6918998  91.6932813  32.7521018 100.7591601  90.8854437  30.4456481
 101.3445038  90.1398125  30.5784385 100.5616440  91.1958394  31.3293145
  95.3509256  83.4560037  29.1660924  95.3893355  82.9223628  29.9598042
  94.8449549  82.9295243  28.5471901 102.7300018  78.3024578  32.6623466
 102.7941345  79.1639409  32.2500864 102.6667138  77.6898579  31.9295825
 102.2052291  80.3747710  36.3096501 102.8324330  79.9924788  36.9234025
 101.3480210  80.1561912  36.6752193 102.5112080  80.2580136  28.2242404
 101.7898666  80.8716104  28.0849877 103.3005336  80.7937901  28.1459050
 105.3138394  77.5934562  34.4983056 105.8372796  77.8396859  35.2609365
 105.0950727  78.4254597  34.0786193 100.7105675  79.8638237  22.3654181
 100.3818381  78.9835616  22.1829287 101.0645046  79.8085906  23.2530570
 106.5190939  78.5348258  32.1832726 106.1787759  77.7356071  32.5853406
 105.8129945  78.8349968  31.6109560 107.1707411  75.6197570  30.6360049
 107.9933480  75.1458048  30.5138940 107.4145474  76.3988054  31.1358736
 104.6945990  82.3116691  28.4452028 104.5490570  82.6256994  29.3376310
 104.2171193  82.9301591  27.8922927 106.5542373  79.3019239  28.4932918
 106.5403941  78.4060332  28.1565216 107.2714801  79.3089902  29.1271204
  99.1691652  84.8522035  31.3839689  98.6245120  85.6281843  31.5159964
 100.0471002  85.1992839  31.2258811  99.9557674  83.9791931  34.2769846
  99.2139410  84.1274567  34.8634477  99.6350418  84.2400197  33.4136595
  98.6022892  89.7843686  27.2669174  97.7654801  89.3565861  27.0853176
  98.5746538  89.9776130  28.2039966 105.4420348  79.6965616  37.9710420
 105.4908503  80.5727739  37.5888190 105.9842862  79.1543009  37.3982064
 107.6719636  80.4496989  34.7256779 106.8022946  80.7430555  34.4539368
 107.9079117  81.0337434  35.4464043  97.9172389  82.8453035  27.0518106
  97.5975173  81.9918343  26.7592480  97.3705817  83.0601613  27.8076074
 101.6952297  85.5615476  30.7687613 101.9138306  86.4932583  30.7875647
 102.1078070  85.2023450  31.5542417 106.5680162  81.1348681  40.1590362
 106.4676889  82.0843038  40.0902453 106.3501704  80.8066920  39.2866432
  97.7860649  86.4655946  29.0211228  97.0924120  86.0509899  28.5081182
  98.5333640  86.5076483  28.4244647 106.4311432  84.5645820  38.9755423
 105.9478514  85.3646180  39.1819313 106.5172371  84.5753765  38.0222867
  99.6997391  86.3974200  26.8977243  99.6768080  86.4961887  25.9459126
 100.0098028  87.2439351  27.2194409 102.3584769  88.4550355  31.0123857
 103.3128023  88.4234297  30.9453789 102.1597293  87.9940979  31.8274083
 102.9484151  87.0251471  33.5794655 103.7677040  87.5195550  33.6029492
 103.2220959  86.1083439  33.5512222  98.2019066  81.3589605  34.2786852
  98.8477929  80.8488559  34.7674077  97.9936217  82.0958286  34.8530277
 102.5416557  78.5057222  38.3761866 103.4048018  78.1494027  38.5865191
 101.9681967  78.1671117  39.0637271  62.2012913   4.3861004  20.7496488
  61.9102779   5.2906635  20.6343154  62.8369897   4.4277532  21.4640558
  63.1269120   1.7637853  17.3397848  63.7232692   1.5393875  16.6254811
  63.1844091   1.0222598  17.9423296  67.1602798   4.0722420  17.7446282
  66.8603521   4.9747458  17.6362089  66.8153857   3.8054603  18.5967435
  62.1423578  10.8366740  10.7117249  62.0647607  11.7874565  10.7905730
  61.5385221  10.4912612  11.3692176  62.8887180   0.8180059  22.9296583
  63.6301864   1.3565103  22.6531407  62.1824165   1.4446347  23.0868135
  68.3642519   2.9609199  21.5268745  68.7725876   2.5191610  20.7823377
  67.6419781   2.3861827  21.7802938  68.6871334   3.5210390  15.2821034
  68.0580197   3.6856104  14.5797102  68.2996996   3.9351999  16.0531998
  72.5660566   4.4564828  12.6365398  71.8811604   4.8363729  12.0862431
  72.6504415   5.0660154  13.3697345  61.1323377   2.8056279  15.4850882
  61.7024734   3.2343548  14.8468367  61.7231489   2.5238864  16.1835068
  70.9357326   4.9796742  17.4083098  71.7574769   4.5776929  17.1265780
  70.9319728   4.8764976  18.3599214  64.7013929   4.5280785  19.5643809
  64.7658362   4.9901193  20.4001981  63.9924853   3.8978150  19.6926119
  66.0430423   6.8172459  23.5623131  65.5994277   6.0308838  23.2444036
  66.7047637   7.0051610  22.8967022  60.8017544   8.3468261  18.0883810
  61.3524969   8.2185324  17.3160804  59.9629020   8.6463150  17.7378703
  68.1411661   7.0975259  21.5904533  68.1230136   7.9184140  21.0984802
  69.0631581   6.9729335  21.8154674  64.5984715   4.6119389  22.4328041
  65.1313052   3.8507677  22.2027349  64.0698796   4.3193041  23.1752195
  70.5197529   5.2704776  11.2396984  70.0659856   4.4295686  11.2962174
  69.8891496   5.9066174  11.5771764  68.9630468   7.1081273  12.1746802
  69.2553443   7.6686330  11.4559167  69.4729089   7.4009834  12.9299961
  63.9264093   7.8861624  13.2640255  63.8840272   8.1122470  12.3348787
  64.8426792   7.6524998  13.4126056  66.8624739   7.1442748  17.4114585
  66.9161761   7.7133685  18.1792301  65.9939520   7.3144633  17.0468622
  69.0527502   3.7371097  23.9855251  68.9013008   3.5081649  23.0685334
  69.0432181   4.6941699  23.9986596  65.8212838   1.3103010  18.9701517
  66.7504898   1.4614170  18.7970484  65.4003868   1.3987031  18.1150164
  64.6201170   5.3353675  16.7400055  64.4812256   4.9672459  17.6125993
  63.8315766   5.8501314  16.5684013  66.1706385   4.7135277  14.1288893
  65.8356218   4.6736047  15.0246542  65.6710331   4.0479993  13.6559303
  60.1450629   0.1202907  19.6541474  60.0070427  -0.6116854  20.2553013
  61.0555553   0.0311807  19.3725661  70.7619709   6.7690220  22.0631733
  70.7032255   6.0849440  21.3962316  71.1639227   7.5109210  21.6112359
  59.7810407  13.5852134  14.8565451  60.0207006  14.2170658  15.5344470
  58.9379604  13.2340174  15.1430811  70.7637116   4.7329804  20.2945712
  69.8763895   4.3955726  20.4172111  71.3335667   4.0012835  20.5314478
  64.2938269   9.3931256  17.2606955  64.2208441  10.1986228  17.7726260
  63.8515662   9.5923222  16.4354977  64.0828049   8.6303026  10.7709777
  63.2995571   9.1724707  10.8648002  64.7820794   9.1477006  11.1704018
  66.7536953   9.2918090  19.4165114  67.4664925   9.9265555  19.3441016
  66.2626982   9.3881956  18.6005116  61.8048866   7.0412534  20.2370685
  62.5058326   7.6749017  20.3900079  61.3343981   7.3827265  19.4766324
  66.5657326   9.6316834  12.1651406  66.7479721   8.8138490  12.6279158
  67.3890312   9.8484527  11.7276296  57.4016584   6.5748889  17.1701788
  57.9870021   5.8292577  17.3029692  57.2041423   6.8852846  18.0538452
  60.2555240   9.6100136  12.1864230  59.5865615  10.0946264  11.7028270
  60.1168109   9.8569357  13.1007609  64.3960508  11.6443880  18.7846888
  64.9478816  11.8075501  19.5495974  64.7366702  12.2348318  18.1126913
  69.2471383   6.4705137  24.6395543  69.7911287   7.0835096  24.1450498
  68.6658227   7.0284716  25.1562556  67.5328896   9.5925855  15.7710571
  67.4080035   8.7915595  15.2621516  68.1907987  10.0872049  15.2824541
  69.5963804   7.3934875  17.3990121  68.6494139   7.2740227  17.3268447
  69.9446577   6.5057373  17.4816382  66.6010237   7.1887592  13.5994473
  66.4535200   6.2604299  13.7802043  67.4263731   7.2107682  13.1151548
  70.2044359   8.0116150  14.6859346  71.1290907   7.8059012  14.5483797
  70.0359662   7.7632552  15.5948687  69.9939675   8.5301818  10.0421437
  70.1676553   7.9648240   9.2895290  70.4868567   9.3302713   9.8600927
  56.5982657  -0.3313617  21.0015153  55.8564393  -0.1830982  21.5879783
  56.2775401  -0.0705351  20.1381902  64.5426320   9.2102361  20.7995543
  64.8513446   8.9651508  21.6718242  65.3401802   9.4149000  20.3114413
  64.5646932  11.3640271  13.0300919  64.1251922  10.8716650  13.7233776
  65.3155049  10.8213239  12.7892995  62.0120804   6.9078280  15.1023221
  61.3900813   6.2448985  14.8025449  62.6825671   6.9339412  14.4196869
  72.5700177   5.9301191  23.9756864  71.7795721   5.9125330  23.4361363
  72.3333532   6.4689485  24.7305901  74.1916249   5.1990599  21.5331614
  73.9001057   5.5620580  22.3695075  73.5788380   4.4857608  21.3544946
  65.3415207   3.3408893  24.8510138  66.2618217   3.5187492  25.0450185
  65.3064790   2.3964938  24.6989838  58.3377280   1.2509927  17.4932920
  58.5563290   2.1827035  17.5120953  58.7503054   0.8917902  18.2787723
  63.0736415   0.2540272  25.7000730  62.5903497   1.0540632  25.9064619
  63.1597354   0.2648217  24.7468174  59.0009753   4.1444807  17.7369164
  59.9553006   4.1128749  17.6699095  58.8022276   3.6835430  18.5519390
  59.5909135   2.7145923  20.3039962  60.4102024   3.2090001  20.3274799
  59.8645942   1.7977891  20.2757529  57.3559981   9.6864426  14.7539362
  57.2214449   8.9264827  14.1877360  56.9392044  10.4105326  14.2868151
  60.5129107  10.5833743  14.9657804  60.3961491  11.5279176  14.8636495
  59.6921554  10.2807305  15.3543604  67.3697441   4.1164904  26.5024299
  68.2388601   4.2905556  26.1410934  66.8904193   4.9359321  26.3800029
  61.5383621  11.2362005  18.1813733  62.4410868  11.2685615  18.4980228
  61.3120992  10.3062456  18.1960069  63.2937223   9.9892992  14.8423811
  62.3432854   9.9894853  14.7288184  63.5969710   9.2425726  14.3259846
  79.0289917  15.8253530  15.9069574  79.6668327  15.7060277  15.2032914
  78.9110760  16.7734374  15.9657526  75.8379623  15.7780958  15.8431099
  75.4998135  15.6622023  14.9551633  76.7069391  15.3772123  15.8232105
  71.6966439  17.6316435  11.8327990  71.1331304  17.5406372  11.0644277
  71.5818834  16.8116339  12.3130482  76.3199406  16.9315810  21.8017304
  76.3088047  16.5368608  20.9297808  76.4820046  16.1981883  22.3951076
  69.2430871  19.1267626  14.6712210  70.0352163  18.7858451  14.2558509
  69.4827521  19.2362601  15.5914363  77.2765998  21.2987402   7.1442454
  76.6253977  21.8841483   6.7576468  78.0710360  21.8293597   7.2037492
  71.2021625  18.3876539   7.5429589  71.9752501  17.8405527   7.4042465
  71.5547024  19.2520789   7.7544050  73.0406667  19.7152922  20.7496488
  72.7496533  20.6198553  20.6343154  73.6763652  19.7569449  21.4640558
  73.9662874  17.0929770  17.3397848  74.5626446  16.8685793  16.6254811
  74.0237846  16.3514516  17.9423296  78.5831185  13.5504984  12.9822782
  79.3694275  13.1324407  12.6313199  78.8469890  14.4551076  13.1504430
  78.7541263  18.9877834   7.6811439  78.1187096  19.0612461   8.3932343
  78.4238669  19.5771433   7.0030518  73.2584191  16.4497312   7.3772414
  73.1420449  15.7742215   8.0453498  73.3686451  15.9629685   6.5604567
  75.6015732  15.9107459  11.0819103  75.2373940  15.3838080  11.7932024
  76.4582848  15.5205928  10.9085588  81.5065033   7.2001791  18.3450369
  81.1748358   8.0697202  18.1211584  80.9110646   6.8838075  19.0244399
  77.9996552  19.4014337  17.7446282  77.6997276  20.3039376  17.6362089
  77.6547612  19.1346520  18.5967435  71.4509034  15.8528134  13.7782986
  70.5259530  15.7204348  13.9860678  71.6993447  16.6322353  14.2752929
  81.3993696  11.9196877  15.4243719  80.4910574  11.8512286  15.1302480
  81.3481292  12.3968822  16.2525545  75.2210440  13.3955016   7.0627118
  75.1010065  13.8412067   7.9012599  74.5263029  13.7440333   6.5040656
  68.8117845  15.4961408  14.6126775  68.9410226  15.7495887  15.5266187
  68.1315296  16.0889116  14.2931430  72.9817332  26.1658658  10.7117249
  72.9041362  27.1166483  10.7905730  72.3778976  25.8204530  11.3692176
  75.4734562  13.3386523  23.3678616  74.6967896  13.8980443  23.3581481
  76.1125125  13.8243306  23.8893486  83.2655343  10.1213316  17.2021593
  82.6229723  10.4145849  16.5561388  82.7610271  10.0066236  18.0074790
  73.7280934  16.1471976  22.9296583  74.4695619  16.6857020  22.6531407
  73.0217920  16.7738265  23.0868135  79.2036274  18.2901117  21.5268745
  79.6119630  17.8483527  20.7823377  78.4813535  17.7153744  21.7802938
  75.5567344  13.2273724  18.9002302  76.4028539  13.6513137  19.0436951
  75.4965982  12.5707348  19.5940865  79.5265089  18.8502307  15.2821034
  78.8973951  19.0148022  14.5797102  79.1390751  19.2643917  16.0531998
  83.4054321  19.7856745  12.6365398  82.7205359  20.1655647  12.0862431
  83.4898170  20.3952072  13.3697345  78.7066789  10.8878092  20.5583475
  78.4627721  11.6420152  20.0217751  78.9826720  11.2663440  21.3930723
  80.6605252  17.4316704  19.2360741  80.8722147  18.0748464  18.5595122
  80.6135000  16.5979021  18.7682671  78.2631481  10.0434525  16.1397313
  77.4015960  10.3415779  16.4314051  78.2893916  10.2604924  15.2078346
  75.0793050  18.5876716  12.5471119  75.5431396  18.8664419  11.7575741
  74.8149849  17.6860160  12.3644210  71.9717132  18.1348197  15.4850882
  72.5418489  18.5635465  14.8468367  72.5625243  17.8530782  16.1835068
  74.0161937  14.7099868   9.3560684  74.7185980  15.1620912   9.8234610
  73.6842565  14.0683687   9.9840577  72.4642298  13.3011625  23.7311893
  71.8340959  13.9827905  23.9647290  72.3578386  13.1894706  22.7865032
  67.7587271  12.9683421  14.6577818  66.9686324  13.2240949  14.1817928
  68.2498518  13.7831758  14.7629858  81.7751080  20.3088660  17.4083098
  82.5968524  19.9068847  17.1265780  81.7713483  20.2056894  18.3599214
  69.7102016  13.3328000  11.6161294  68.9133179  13.4446694  12.1344790
  69.4827608  13.6714652  10.7502185  75.5407684  19.8572703  19.5643809
  75.6052116  20.3193110  20.4001981  74.8318607  19.2270068  19.6926119
  66.0424973  13.2213911  17.0892808  66.2933012  14.1060921  17.3550384
  66.5784522  13.0418513  16.3167900  75.2555701  21.5240811   9.4322789
  75.1201376  22.3692346   9.8607637  75.7965514  21.7260088   8.6688723
  71.7423041   7.6032390  26.0937144  71.3489986   7.0498589  26.7684789
  72.5589181   7.9142969  26.4843662  68.7085099  19.0416249  10.0050714
  69.2209619  19.8359499  10.1556279  69.3607811  18.3442539   9.9384316
  70.5179983  22.1582005  12.0873467  70.6946612  23.0799970  11.8994451
  71.3136817  21.8440424  12.5167847  74.6591002   9.0190269  23.6857401
  75.4000715   9.6197423  23.6061863  74.8908925   8.2767907  23.1275444
  69.8032340  14.2046637  21.9635631  69.6885855  13.3031894  22.2642730
  68.9476858  14.4510333  21.6120447  76.8824178  22.1464377  23.5623131
  76.4388032  21.3600756  23.2444036  77.5441391  22.3343528  22.8967022
  71.6411299  23.6760179  18.0883810  72.1918724  23.5477242  17.3160804
  70.8022775  23.9755068  17.7378703  78.9805416  22.4267177  21.5904533
  78.9623891  23.2476058  21.0984802  79.9025336  22.3021252  21.8154674
  75.4378470  19.9411306  22.4328041  75.9706807  19.1799595  22.2027349
  74.9092551  19.6484958  23.1752195  66.6734015  17.3704903  10.7810285
  67.5109237  17.7801911  10.5643993  66.8512283  16.4304345  10.7510479
  76.1545558   9.8829684  11.5279356  75.2987155   9.4936535  11.3484995
  76.5672510   9.9621645  10.6679142  77.6844705   7.4176028  15.9270916
  77.1809501   7.3806163  15.1138721  77.9775312   8.3268770  15.9867573
  73.9287591   7.5014757  14.9337098  74.7940588   7.3057566  14.5742987
  73.9965100   7.2725109  15.8606454  76.8031182  19.0697299   9.9446853
  76.2752544  18.3350058   9.6320090  76.3018685  19.8471975   9.6986821
  81.7824028  17.2646319  15.0613899  81.1247703  17.9545581  15.1494028
  82.5864428  17.6542751  15.4047886  71.5349910   9.7316965  12.3053464
  72.1093662   9.5092147  11.5726657  72.1220893   9.8005660  13.0582066
  80.5929487  15.6190692  13.1117841  81.1061369  16.2520684  13.6139551
  81.2430711  15.0191888  12.7461201  73.8372578   6.6058214  11.0328534
  73.1836990   6.2907231  10.4085149  73.7953052   5.9833955  11.7588357
  77.8551862  25.5975016   5.8678512  77.1813560  25.9006713   6.4763470
  78.2417684  26.4004097   5.5183969  77.0710318  13.0940148  15.3576182
  76.1532880  13.3155095  15.1997870  77.4870462  13.1686458  14.4987889
  77.8545366  14.4931563  10.4878862  78.6017185  15.0052961  10.1785984
  78.1236955  14.1715616  11.3483255  76.1272016  16.9890104   7.4705816
  75.2183235  16.7049137   7.5678286  76.1567100  17.4089183   6.6109123
  81.3591284  20.5996694  11.2396984  80.9053611  19.7587603  11.2962174
  80.7285250  21.2358092  11.5771764  79.8024223  22.4373190  12.1746802
  80.0947197  22.9978247  11.4559167  80.3122843  22.7301751  12.9299961
  66.6960186  14.7095618  11.4521018  66.4984586  14.1164979  10.7272085
  66.1406850  14.4047828  12.1696957  74.6756910  14.6018725  13.5715611
  74.7305520  13.6492561  13.4958088  73.8648112  14.7578164  14.0556910
  72.6149270  13.2195784  11.3305990  71.8017136  13.5189955  11.7371182
  73.1108264  12.8251473  12.0480473  74.7657848  23.2153541  13.2640255
  74.7234027  23.4414388  12.3348787  75.6820547  22.9816916  13.4126056
  78.2123482  13.6837609  20.1620884  78.5672869  13.9109082  21.0215350
  78.8595613  14.0155986  19.5398139  72.1063345  10.7914140  16.9467225
  72.7462724  10.6502899  16.2490189  71.2740875  10.5048653  16.5705827
  83.9690598  18.8732572  15.8781485  84.4027105  18.7807861  16.7264539
  84.6822179  18.8490072  15.2401501  72.8823649  20.0916570  13.0602218
  73.6764247  19.5966890  12.8584793  72.1715341  19.5634433  12.6969923
  77.7018493  22.4734666  17.4114585  77.7555515  23.0425602  18.1792301
  76.8333275  22.6436551  17.0468622  69.1906412  14.2359652   9.1361970
  68.2604000  14.1744108   9.3531933  69.2863884  13.7135605   8.3398612
  69.1091961  10.7614465  11.7240212  69.3698779  11.6759798  11.6149372
  69.9309134  10.2938907  11.8736825  70.5816887  12.1752222  18.8939037
  71.2539940  11.9669584  18.2451685  69.7546673  11.9774308  18.4544269
  84.8306148  18.9156272  18.4114370  85.0242038  19.8202083  18.6573645
  84.7306766  18.4563691  19.2452955  76.4842459   8.8014163  20.9104697
  75.8370374   9.5004113  20.8169174  77.2543474   9.2350307  21.2780946
  79.8921257  19.0663015  23.9855251  79.7406763  18.8373567  23.0685334
  79.8825936  20.0233617  23.9986596  76.6606593  16.6394928  18.9701517
  77.5898653  16.7906088  18.7970484  76.2397623  16.7278949  18.1150164
  75.4594925  20.6645592  16.7400055  75.3206010  20.2964377  17.6125993
  74.6709521  21.1793232  16.5684013  76.0543077  25.7654689   8.0825591
  76.2294832  25.2942732   8.8971214  75.3675865  26.3920455   8.3106852
  77.0100140  20.0427195  14.1288893  76.6749972  20.0027965  15.0246542
  76.5104086  19.3771911  13.6559303  70.9844384  15.4494825  19.6541474
  70.8464182  14.7175064  20.2553013  71.8949307  15.3603725  19.3725661
  73.6126684  15.1614784  19.1425153  74.3226303  14.5207977  19.1011772
  73.5695993  15.4127679  20.0651334  81.6013463  22.0982138  22.0631733
  81.5426009  21.4141358  21.3962316  82.0032982  22.8401128  21.6112359
  72.3255618  12.1480002  20.9620793  71.7892975  11.6970741  21.6142389
  71.7372327  12.2825911  20.2191257  70.6204162  28.9144052  14.8565451
  70.8600760  29.5462576  15.5344470  69.7773358  28.5632092  15.1430811
  81.6030870  20.0621722  20.2945712  80.7157649  19.7247643  20.4172111
  82.1729421  19.3304753  20.5314478  63.2560018  16.3945813  13.6188764
  63.9431057  16.0807543  13.0309779  63.1008146  17.2987178  13.3456015
  68.0594740  11.2836010  18.0473787  67.9752928  10.6761680  17.3124197
  67.2377446  11.7745028  18.0483284  75.1332024  24.7223174  17.2606955
  75.0602195  25.5278146  17.7726260  74.6909417  24.9215140  16.4354977
  74.9221803  23.9594944  10.7709777  74.1389325  24.5016624  10.8648002
  75.6214549  24.4768924  11.1704018  78.2318454   9.7689573  13.4143982
  78.7287153   9.0159536  13.0945053  77.4605435   9.8053890  12.8487192
  86.0848211  15.4729939  15.0562274  86.0738087  16.3554654  14.6856207
  85.2165590  15.1201490  14.8616811  77.5930707  24.6210008  19.4165114
  78.3058680  25.2557473  19.3441016  77.1020736  24.7173874  18.6005116
  79.3148234  18.5261261  10.9882406  78.3804513  18.6462723  10.8187110
  79.4924903  17.6233727  10.7242416  74.8153422  11.9106956  13.1415667
  74.4451210  11.3577997  13.8296573  75.3112515  11.3065090  12.5890667
  72.6442621  22.3704452  20.2370685  73.3452080  23.0040934  20.3900079
  72.1737736  22.7119183  19.4766324  80.7697017  20.7122401   8.5218592
  81.0456861  20.5978996   9.4312466  79.9001515  20.3139886   8.4830765
  80.6737448   6.7359167  15.5623341  79.7600528   6.9663394  15.7305548
  81.1030550   6.8197611  16.4137374  80.4443907  14.9249059  18.0623235
  79.7915357  15.1724966  17.4075688  80.8224287  14.1113197  17.7285713
  77.4051081  24.9608752  12.1651406  77.5873475  24.1430408  12.6279158
  78.2284067  25.1776444  11.7276296  77.7393246  23.8876937   9.4266454
  78.2681013  23.3769392   8.8136616  78.0021466  23.5719467  10.2911987
  76.4931480  15.6668870  24.5489272  75.8172117  15.5662999  25.2191648
  77.3159114  15.5108084  25.0125270  68.2410339  21.9040807  17.1701788
  68.8263776  21.1584494  17.3029692  68.0435177  22.2144763  18.0538452
  71.0948994  24.9392054  12.1864230  70.4259369  25.4238182  11.7028270
  70.9561864  25.1861274  13.1007609  62.8327994  14.4746407  15.8906231
  62.8712093  13.9409997  16.6843349  62.3268287  13.9481612  15.2717208
  75.2354263  26.9735797  18.7846888  75.7872571  27.1367419  19.5495974
  75.5760456  27.5640235  18.1126913  70.2118756   9.3210947  19.3868773
  70.2760082  10.1825778  18.9746171  70.1485876   8.7084949  18.6541132
  69.6871029  11.3934080  23.0341807  70.3143067  11.0111157  23.6479332
  68.8298947  11.1748282  23.3997500  80.0865137  21.7997055  24.6395543
  80.6305041  22.4127013  24.1450498  79.5051982  22.3576633  25.1562556
  66.4636571  13.2010509   8.9660162  66.7590012  12.2921187   8.9127216
  65.5624607  13.1798248   8.6441165  78.3722650  24.9217773  15.7710571
  78.2473789  24.1207513  15.2621516  79.0301741  25.4163966  15.2824541
  69.9930818  11.2766505  14.9487711  69.2717404  11.8902473  14.8095184
  70.7824074  11.8124270  14.8704357  80.4357558  22.7226793  17.3990121
  79.4887894  22.6032144  17.3268447  80.7840332  21.8349291  17.4816382
  72.7957132   8.6120932  21.2228363  73.3191534   8.8583229  21.9854672
  72.5769465   9.4440967  20.8031500  68.1924413  10.8824607   9.0899487
  67.8637119  10.0021985   8.9074593  68.5463784  10.8272275   9.9775877
  77.4403992  22.5179509  13.5994473  77.2928954  21.5896217  13.7802043
  78.2657485  22.5399600  13.1151548  71.3066236  11.1697576   9.4574965
  71.6462309  11.6983498   8.7353573  71.7538356  11.5077982  10.2333532
  81.0438114  23.3408068  14.6859346  81.9684661  23.1350929  14.5483797
  80.8753417  23.0924469  15.5948687  74.0009677   9.5534627  18.9078033
  73.6606497   8.7542440  19.3098713  73.2948683   9.8536338  18.3354866
  74.6526149   6.6383940  17.3605356  75.4752218   6.1644418  17.2384246
  74.8964212   7.4174423  17.8604042  72.1764727  13.3303060  15.1697335
  72.0309308  13.6443363  16.0621616  71.6989931  13.9487960  14.6168233
  74.0361110  10.3205608  15.2178224  74.0222679   9.4246701  14.8810522
  74.7533538  10.3276272  15.8516510  75.8887241  10.7542948  17.2631352
  75.6305019  11.6760019  17.2615682  75.3572281  10.3573383  17.9531816
  80.8333430  23.8593735  10.0421437  81.0070307  23.2940158   9.2895290
  81.3262321  24.6594630   9.8600927  66.6510390  15.8708405  18.1084996
  66.1063858  16.6468213  18.2405270  67.5289739  16.2179209  17.9504117
  73.4398006   9.2019988  10.4865794  73.5613917   8.2736635  10.6856682
  73.1500049   9.2158674   9.5744110  76.3089197   6.8874899  13.6232514
  76.3310893   6.9514232  12.6684494  76.7257256   6.0479407  13.8173020
  81.8208602  23.1760500   7.1418335  82.5159507  23.7967193   7.3605650
  82.1631752  22.3255851   7.4170713  67.4376411  14.9978301  21.0015153
  66.6958147  15.1460936  21.5879783  67.1169156  15.2586566  20.1381902
  75.3820074  24.5394279  20.7995543  75.6907201  24.2943426  21.6718242
  76.1795556  24.7440918  20.3114413  75.4040686  26.6932189  13.0300919
  74.9645676  26.2008567  13.7233776  76.1548803  26.1505156  12.7892995
  67.8833025  22.8843730  13.0325547  68.7091045  22.5847501  12.6524191
  67.5327077  22.1151352  13.4815336  72.8514558  22.2370198  15.1023221
  72.2294568  21.5740903  14.8025449  73.5219425  22.2631330  14.4196869
  66.0841630  20.8030056  13.9914481  65.2473538  20.3752230  13.8098482
  66.0565276  20.9962499  14.9285272  72.9239086  10.7151986  24.6955727
  72.9727241  11.5914109  24.3133497  73.4661600  10.1729379  24.1227370
  83.4093931  21.2593109  23.9756864  82.6189475  21.2417248  23.4361363
  83.1727286  21.7981403  24.7305901  83.5291806  18.1085575  21.2889593
  83.5789811  17.9435583  22.2305115  83.4205730  17.2412834  20.8987473
  72.4128065  20.7874121   8.5781682  72.5616186  21.4709585   7.9248354
  73.2194509  20.7679211   9.0931137  80.8195569  14.0916503  22.6048899
  81.7205432  13.9522968  22.3132897  80.8943543  14.2570958  23.5447077
  75.1538374  11.4683358  21.4502086  74.2841684  11.7616924  21.1784674
  75.3897855  12.0523803  22.1709349  85.0310003  20.5282517  21.5331614
  84.7394812  20.8912497  22.3695075  84.4182135  19.8149525  21.3544946
  83.2797192  15.6515132  20.0011672  83.7551313  15.8442778  19.1930524
  82.3562757  15.7074317  19.7555056  70.1680698  16.8139299   9.5842750
  69.9226740  15.9101629   9.7822961  70.3376613  16.8156449   8.6422228
  77.8577408   7.6862975  18.9667506  78.3759352   8.4224002  18.6413995
  77.5032541   7.9926968  19.8014265  75.9123471  23.2822252   6.0493429
  75.3397438  23.9012439   5.5963901  76.4856264  23.8321613   6.5833351
  81.9798861  12.5280892  18.2339978  82.9316283  12.6278989  18.2552202
  81.8102311  11.7359160  18.7438062  80.0013240   9.6136475  18.4199379
  79.4063172   9.8941488  17.7245867  79.7162937  10.1030376  19.1916120
  79.1320730  23.5659402   7.1802011  80.0651404  23.5004963   7.3834887
  79.0443943  24.4015669   6.7216544  84.4586938  15.7487011  17.3482277
  84.4263258  14.8103012  17.5341961  85.0687562  15.8271048  16.6148102
  84.6081427  12.5398055  17.3940561  84.0920475  11.7556511  17.2070489
  85.4921375  12.2116771  17.5587080  88.3578785  14.9510881  17.0862765
  87.6311949  14.8166846  16.4779257  87.9426072  15.2587709  17.8919483
  76.1808962  18.6700810  24.8510138  77.1011971  18.8479409  25.0450185
  76.1458545  17.7256856  24.6989838  65.3991127  13.8639404  13.7763413
  65.0793911  13.0104712  13.4837787  64.8524555  14.0787982  14.5321380
  69.1771034  16.5801845  17.4932920  69.3957044  17.5118953  17.5120953
  69.5896808  16.2209820  18.2787723  74.0498900  12.1535051  26.8835668
  73.9495627  13.1029408  26.8147760  73.8320442  11.8253290  26.0111739
  65.2679387  17.4842316  15.7456535  64.5742858  17.0696268  15.2326489
  66.0152378  17.5262852  15.1489954  73.9130170  15.5832190  25.7000730
  73.4297251  16.3832550  25.9064619  73.9991109  15.5940135  24.7468174
  67.1816129  17.4160569  13.6222550  67.1586817  17.5148257  12.6704433
  67.4916766  18.2625720  13.9439716  69.8403507  19.4736724  17.7369164
  70.7946761  19.4420667  17.6699095  69.6416031  19.0127348  18.5519390
  70.4302889  18.0437840  20.3039962  71.2495778  18.5381919  20.3274799
  70.7039697  17.1269809  20.2757529  68.1953736  25.0156344  14.7539362
  68.0608204  24.2556745  14.1877360  67.7785798  25.7397244  14.2868151
  71.3522862  25.9125661  14.9657804  71.2355246  26.8571093  14.8636495
  70.5315308  25.6099222  15.3543604  65.6837804  12.3775974  21.0032159
  66.3296667  11.8674928  21.4919384  65.4754955  13.1144656  21.5775584
  78.2091196  19.4456822  26.5024299  79.0782355  19.6197474  26.1410934
  77.7297947  20.2651239  26.3800029  72.3777376  26.5653923  18.1813733
  73.2804623  26.5977533  18.4980228  72.1514746  25.6354374  18.1960069
  74.1330978  25.3184909  14.8423811  73.1826609  25.3186771  14.7288184
  74.4363464  24.5717644  14.3259846  70.0235295   9.5243591  25.1007173
  70.8866756   9.1680396  25.3110497  69.4500705   9.1857486  25.7882577
  89.8683671  31.1545448  15.9069574  90.5062081  31.0352195  15.2032914
  89.7504514  32.1026292  15.9657526  86.6773378  31.1072876  15.8431099
  86.3391889  30.9913941  14.9551633  87.5463146  30.7064041  15.8232105
  82.5360193  32.9608352  11.8327990  81.9725059  32.8698289  11.0644277
  82.4212588  32.1408257  12.3130482  87.1593161  32.2607728  21.8017304
  87.1481801  31.8660526  20.9297808  87.3213800  31.5273800  22.3951076
  80.0824625  34.4559544  14.6712210  80.8745917  34.1150369  14.2558509
  80.3221276  34.5654519  15.5914363  88.1159752  36.6279320   7.1442454
  87.4647732  37.2133400   6.7576468  88.9104115  37.1585515   7.2037492
  82.0415379  33.7168457   7.5429589  82.8146255  33.1697444   7.4042465
  82.3940778  34.5812706   7.7544050  83.8800422  35.0444839  20.7496488
  83.5890288  35.9490470  20.6343154  84.5157406  35.0861367  21.4640558
  84.8056629  32.4221688  17.3397848  85.4020201  32.1977710  16.6254811
  84.8631600  31.6806433  17.9423296  89.4224940  28.8796902  12.9822782
  90.2088029  28.4616325  12.6313199  89.6863644  29.7842994  13.1504430
  89.5935017  34.3169752   7.6811439  88.9580850  34.3904378   8.3932343
  89.2632424  34.9063351   7.0030518  84.0977946  31.7789229   7.3772414
  83.9814204  31.1034133   8.0453498  84.2080206  31.2921603   6.5604567
  86.4409487  31.2399376  11.0819103  86.0767694  30.7129997  11.7932024
  87.2976603  30.8497845  10.9085588  92.3458787  22.5293709  18.3450369
  92.0142112  23.3989120  18.1211584  91.7504401  22.2129993  19.0244399
  88.8390307  34.7306255  17.7446282  88.5391030  35.6331294  17.6362089
  88.4941366  34.4638438  18.5967435  82.2902788  31.1820052  13.7782986
  81.3653285  31.0496266  13.9860678  82.5387202  31.9614271  14.2752929
  92.2387451  27.2488795  15.4243719  91.3304328  27.1804204  15.1302480
  92.1875047  27.7260740  16.2525545  86.0604195  28.7246933   7.0627118
  85.9403820  29.1703984   7.9012599  85.3656783  29.0732251   6.5040656
  79.6511599  30.8253325  14.6126775  79.7803981  31.0787804  15.5266187
  78.9709051  31.4181033  14.2931430  83.8211087  41.4950575  10.7117249
  83.7435116  42.4458400  10.7905730  83.2172730  41.1496448  11.3692176
  86.3128317  28.6678441  23.3678616  85.5361651  29.2272361  23.3581481
  86.9518880  29.1535224  23.8893486  94.1049097  25.4505233  17.2021593
  93.4623477  25.7437767  16.5561388  93.6004026  25.3358154  18.0074790
  84.5674689  31.4763894  22.9296583  85.3089373  32.0148938  22.6531407
  83.8611674  32.1030183  23.0868135  90.0430028  33.6193034  21.5268745
  90.4513384  33.1775445  20.7823377  89.3207290  33.0445662  21.7802938
  86.3961099  28.5565641  18.9002302  87.2422294  28.9805055  19.0436951
  86.3359736  27.8999266  19.5940865  90.3658843  34.1794225  15.2821034
  89.7367706  34.3439939  14.5797102  89.9784505  34.5935835  16.0531998
  94.2448075  35.1148663  12.6365398  93.5599113  35.4947564  12.0862431
  94.3291924  35.7243990  13.3697345  89.5460544  26.2170010  20.5583475
  89.3021476  26.9712070  20.0217751  89.8220474  26.5955357  21.3930723
  91.4999007  32.7608622  19.2360741  91.7115902  33.4040382  18.5595122
  91.4528755  31.9270939  18.7682671  89.1025236  25.3726443  16.1397313
  88.2409715  25.6707696  16.4314051  89.1287670  25.5896842  15.2078346
  85.9186805  33.9168633  12.5471119  86.3825151  34.1956336  11.7575741
  85.6543603  33.0152078  12.3644210  82.8110886  33.4640115  15.4850882
  83.3812243  33.8927383  14.8468367  83.4018998  33.1822699  16.1835068
  84.8555691  30.0391786   9.3560684  85.5579734  30.4912829   9.8234610
  84.5236320  29.3975604   9.9840577  83.3036053  28.6303542  23.7311893
  82.6734713  29.3119823  23.9647290  83.1972140  28.5186624  22.7865032
  78.5981025  28.2975338  14.6577818  77.8080079  28.5532867  14.1817928
  79.0892272  29.1123676  14.7629858  92.6144835  35.6380577  17.4083098
  93.4362278  35.2360765  17.1265780  92.6107237  35.5348812  18.3599214
  80.5495770  28.6619917  11.6161294  79.7526934  28.7738612  12.1344790
  80.3221363  29.0006570  10.7502185  86.3801438  35.1864621  19.5643809
  86.4445871  35.6485028  20.4001981  85.6712362  34.5561986  19.6926119
  76.8818728  28.5505829  17.0892808  77.1326766  29.4352839  17.3550384
  77.4178276  28.3710430  16.3167900  86.0949456  36.8532728   9.4322789
  85.9595130  37.6984264   9.8607637  86.6359268  37.0552006   8.6688723
  82.5816795  22.9324308  26.0937144  82.1883741  22.3790507  26.7684789
  83.3982936  23.2434887  26.4843662  79.5478853  34.3708166  10.0050714
  80.0603374  35.1651416  10.1556279  80.2001566  33.6734457   9.9384316
  81.3573738  37.4873923  12.0873467  81.5340366  38.4091887  11.8994451
  82.1530571  37.1732342  12.5167847  85.4984756  24.3482187  23.6857401
  86.2394470  24.9489340  23.6061863  85.7302679  23.6059825  23.1275444
  80.6426094  29.5338554  21.9635631  80.5279609  28.6323812  22.2642730
  79.7870612  29.7802251  21.6120447  87.7217932  37.4756295  23.5623131
  87.2781786  36.6892673  23.2444036  88.3835146  37.6635445  22.8967022
  82.4805053  39.0052096  18.0883810  83.0312478  38.8769160  17.3160804
  81.6416529  39.3046985  17.7378703  89.8199170  37.7559095  21.5904533
  89.8017645  38.5767976  21.0984802  90.7419090  37.6313170  21.8154674
  86.2772224  35.2703224  22.4328041  86.8100561  34.5091512  22.2027349
  85.7486305  34.9776876  23.1752195  89.4441919  20.3763290  17.9621683
  89.1006189  21.2664932  17.8860793  89.8120882  20.1864948  17.0991268
  77.5127770  32.6996821  10.7810285  78.3502992  33.1093829  10.5643993
  77.6906038  31.7596263  10.7510479  86.9939313  25.2121602  11.5279356
  86.1380909  24.8228452  11.3484995  87.4066265  25.2913563  10.6679142
  88.5238460  22.7467945  15.9270916  88.0203255  22.7098080  15.1138721
  88.8169066  23.6560688  15.9867573  84.7681345  22.8306675  14.9337098
  85.6334342  22.6349484  14.5742987  84.8358854  22.6017027  15.8606454
  87.6424937  34.3989217   9.9446853  87.1146299  33.6641976   9.6320090
  87.1412440  35.1763893   9.6986821  92.6217783  32.5938237  15.0613899
  91.9641457  33.2837498  15.1494028  93.4258182  32.9834669  15.4047886
  82.3743665  25.0608883  12.3053464  82.9487416  24.8384064  11.5726657
  82.9614647  25.1297577  13.0582066  91.4323242  30.9482610  13.1117841
  91.9455124  31.5812602  13.6139551  92.0824466  30.3483805  12.7461201
  82.7013252  27.0913344   6.3249350  81.8650564  27.4288030   6.6458624
  82.5618021  26.9562324   5.3876487  84.6766332  21.9350132  11.0328534
  84.0230745  21.6199149  10.4085149  84.6346806  21.3125872  11.7588357
  88.6945616  40.9266934   5.8678512  88.0207315  41.2298631   6.4763470
  89.0811438  41.7296014   5.5183969  87.9104073  28.4232065  15.3576182
  86.9926634  28.6447012  15.1997870  88.3264216  28.4978376  14.4987889
  88.6939120  29.8223481  10.4878862  89.4410939  30.3344878  10.1785984
  88.9630710  29.5007534  11.3483255  86.9665771  32.3182022   7.4705816
  86.0576990  32.0341055   7.5678286  86.9960854  32.7381100   6.6109123
  92.1985038  35.9288611  11.2396984  91.7447365  35.0879521  11.2962174
  91.5679005  36.5650010  11.5771764  90.6417977  37.7665108  12.1746802
  90.9340952  38.3270165  11.4559167  91.1516598  38.0593669  12.9299961
  77.5353941  30.0387536  11.4521018  77.3378341  29.4456897  10.7272085
  76.9800605  29.7339746  12.1696957  85.5150665  29.9310642  13.5715611
  85.5699274  28.9784479  13.4958088  84.7041867  30.0870081  14.0556910
  83.4543025  28.5487702  11.3305990  82.6410890  28.8481873  11.7371182
  83.9502019  28.1543391  12.0480473  85.6051602  38.5445459  13.2640255
  85.5627781  38.7706305  12.3348787  86.5214301  38.3108834  13.4126056
  89.0517236  29.0129527  20.1620884  89.4066624  29.2401000  21.0215350
  89.6989367  29.3447903  19.5398139  82.9457099  26.1206058  16.9467225
  83.5856479  25.9794817  16.2490189  82.1134630  25.8340571  16.5705827
  94.8084353  34.2024489  15.8781485  95.2420859  34.1099779  16.7264539
  95.5215933  34.1781990  15.2401501  83.7217403  35.4208488  13.0602218
  84.5158002  34.9258808  12.8584793  83.0109096  34.8926351  12.6969923
  88.5412248  37.8026584  17.4114585  88.5949270  38.3717520  18.1792301
  87.6727029  37.9728469  17.0468622  80.0300167  29.5651570   9.1361970
  79.0997755  29.5036025   9.3531933  80.1257639  29.0427523   8.3398612
  79.9485716  26.0906383  11.7240212  80.2092533  27.0051716  11.6149372
  80.7702888  25.6230825  11.8736825  81.4210641  27.5044140  18.8939037
  82.0933694  27.2961502  18.2451685  80.5940428  27.3066226  18.4544269
  95.6699902  34.2448190  18.4114370  95.8635792  35.1494001  18.6573645
  95.5700520  33.7855609  19.2452955  87.3236213  24.1306081  20.9104697
  86.6764128  24.8296030  20.8169174  88.0937228  24.5642225  21.2780946
  90.7315011  34.3954933  23.9855251  90.5800517  34.1665485  23.0685334
  90.7219690  35.3525534  23.9986596  87.5000347  31.9686846  18.9701517
  88.4292407  32.1198005  18.7970484  87.0791377  32.0570866  18.1150164
  86.2988679  35.9937510  16.7400055  86.1599765  35.6256294  17.6125993
  85.5103275  36.5085149  16.5684013  86.8936831  41.0946606   8.0825591
  87.0688587  40.6234650   8.8971214  86.2069619  41.7212373   8.3106852
  87.8493894  35.3719113  14.1288893  87.5143727  35.3319883  15.0246542
  87.3497840  34.7063829  13.6559303  81.8238138  30.7786743  19.6541474
  81.6857936  30.0466982  20.2553013  82.7343062  30.6895643  19.3725661
  84.4520439  30.4906702  19.1425153  85.1620058  29.8499894  19.1011772
  84.4089747  30.7419597  20.0651334  92.4407218  37.4274055  22.0631733
  92.3819764  36.7433276  21.3962316  92.8426736  38.1693045  21.6112359
  83.1649373  27.4771920  20.9620793  82.6286730  27.0262658  21.6142389
  82.5766081  27.6117829  20.2191257  81.4597916  44.2435969  14.8565451
  81.6994515  44.8754493  15.5344470  80.6167113  43.8924009  15.1430811
  92.4424625  35.3913639  20.2945712  91.5551404  35.0539561  20.4172111
  93.0123176  34.6596671  20.5314478  74.0953772  31.7237731  13.6188764
  74.7824812  31.4099461  13.0309779  73.9401901  32.6279096  13.3456015
  78.8988494  26.6127928  18.0473787  78.8146683  26.0053597  17.3124197
  78.0771201  27.1036946  18.0483284  85.9725778  40.0515092  17.2606955
  85.8995950  40.8570063  17.7726260  85.5303171  40.2507058  16.4354977
  85.7615558  39.2886862  10.7709777  84.9783080  39.8308542  10.8648002
  86.4608303  39.8060841  11.1704018  89.0712208  25.0981491  13.4143982
  89.5680908  24.3451453  13.0945053  88.2999190  25.1345808  12.8487192
  96.9241965  30.8021857  15.0562274  96.9131842  31.6846572  14.6856207
  96.0559345  30.4493408  14.8616811  88.4324462  39.9501926  19.4165114
  89.1452434  40.5849391  19.3441016  87.9414490  40.0465792  18.6005116
  90.1541989  33.8553178  10.9882406  89.2198267  33.9754641  10.8187110
  90.3318657  32.9525645  10.7242416  85.6547177  27.2398874  13.1415667
  85.2844964  26.6869915  13.8296573  86.1506269  26.6357008  12.5890667
  83.4836375  37.6996369  20.2370685  84.1845835  38.3332852  20.3900079
  83.0131490  38.0411101  19.4766324  91.6090771  36.0414319   8.5218592
  91.8850615  35.9270914   9.4312466  90.7395270  35.6431804   8.4830765
  91.5131203  22.0651085  15.5623341  90.5994283  22.2955312  15.7305548
  91.9424304  22.1489529  16.4137374  91.2837661  30.2540977  18.0623235
  90.6309112  30.5016884  17.4075688  91.6618041  29.4405115  17.7285713
  88.2444835  40.2900670  12.1651406  88.4267230  39.4722326  12.6279158
  89.0677821  40.5068362  11.7276296  88.5787001  39.2168855   9.4266454
  89.1074767  38.7061310   8.8136616  88.8415220  38.9011385  10.2911987
  87.3325234  30.9960788  24.5489272  86.6565871  30.8954917  25.2191648
  88.1552868  30.8400001  25.0125270  79.0804093  37.2332724  17.1701788
  79.6657530  36.4876412  17.3029692  78.8828932  37.5436681  18.0538452
  81.9342749  40.2683972  12.1864230  81.2653124  40.7530099  11.7028270
  81.7955618  40.5153192  13.1007609  73.6721748  29.8038324  15.8906231
  73.7105848  29.2701915  16.6843349  73.1662041  29.2773530  15.2717208
  86.0748017  42.3027715  18.7846888  86.6266325  42.4659337  19.5495974
  86.4154211  42.8932153  18.1126913  81.0512510  24.6502865  19.3868773
  81.1153837  25.5117696  18.9746171  80.9879631  24.0376867  18.6541132
  80.5264783  26.7225997  23.0341807  81.1536822  26.3403075  23.6479332
  79.6692702  26.5040199  23.3997500  90.9258892  37.1288973  24.6395543
  91.4698796  37.7418931  24.1450498  90.3445736  37.6868551  25.1562556
  77.3030326  28.5302427   8.9660162  77.5983767  27.6213105   8.9127216
  76.4018362  28.5090166   8.6441165  89.2116405  40.2509691  15.7710571
  89.0867544  39.4499431  15.2621516  89.8695496  40.7455884  15.2824541
  80.8324573  26.6058423  14.9487711  80.1111159  27.2194391  14.8095184
  81.6217829  27.1416188  14.8704357  91.2751313  38.0518711  17.3990121
  90.3281648  37.9324062  17.3268447  91.6234086  37.1641209  17.4816382
  83.6350886  23.9412850  21.2228363  84.1585288  24.1875146  21.9854672
  83.4163220  24.7732884  20.8031500  79.0318167  26.2116524   9.0899487
  78.7030873  25.3313903   8.9074593  79.3857538  26.1564193   9.9775877
  88.2797746  37.8471427  13.5994473  88.1322709  36.9188134  13.7802043
  89.1051240  37.8691518  13.1151548  82.1459990  26.4989494   9.4574965
  82.4856063  27.0275415   8.7353573  82.5932111  26.8369900  10.2333532
  91.8831868  38.6699986  14.6859346  92.8078416  38.4642847  14.5483797
  91.7147171  38.4216387  15.5948687  84.8403431  24.8826545  18.9078033
  84.5000252  24.0834358  19.3098713  84.1342438  25.1828256  18.3354866
  85.4919903  21.9675857  17.3605356  86.3145972  21.4936335  17.2384246
  85.7357967  22.7466341  17.8604042  83.0158482  28.6594978  15.1697335
  82.8703063  28.9735281  16.0621616  82.5383686  29.2779878  14.6168233
  84.8754865  25.6497526  15.2178224  84.8616434  24.7538619  14.8810522
  85.5927293  25.6568190  15.8516510  86.7280995  26.0834866  17.2631352
  86.4698773  27.0051937  17.2615682  86.1966036  25.6865301  17.9531816
  91.6727184  39.1885653  10.0421437  91.8464062  38.6232076   9.2895290
  92.1656075  39.9886548   9.8600927  77.4904144  31.2000322  18.1084996
  76.9457612  31.9760130  18.2405270  78.3683494  31.5471127  17.9504117
  84.2791761  24.5311906  10.4865794  84.4007672  23.6028552  10.6856682
  83.9893803  24.5450592   9.5744110  87.1482951  22.2166817  13.6232514
  87.1704648  22.2806150  12.6684494  87.5651010  21.3771325  13.8173020
  92.6602357  38.5052418   7.1418335  93.3553261  39.1259110   7.3605650
  93.0025507  37.6547769   7.4170713  78.2770166  30.3270218  21.0015153
  77.5351902  30.4752854  21.5879783  77.9562910  30.5878484  20.1381902
  86.2213829  39.8686197  20.7995543  86.5300955  39.6235343  21.6718242
  87.0189311  40.0732835  20.3114413  86.2434441  42.0224106  13.0300919
  85.8039431  41.5300485  13.7233776  86.9942558  41.4797074  12.7892995
  78.7226780  38.2135647  13.0325547  79.5484800  37.9139419  12.6524191
  78.3720832  37.4443270  13.4815336  83.6908313  37.5662115  15.1023221
  83.0688322  36.9032820  14.8025449  84.3613180  37.5923247  14.4196869
  76.9235385  36.1321974  13.9914481  76.0867293  35.7044148  13.8098482
  76.8959030  36.3254417  14.9285272  83.7632840  26.0443903  24.6955727
  83.8120996  26.9206026  24.3133497  84.3055354  25.5021297  24.1227370
  94.2487686  36.5885027  23.9756864  93.4583230  36.5709166  23.4361363
  94.0121041  37.1273320  24.7305901  94.3685561  33.4377493  21.2889593
  94.4183566  33.2727501  22.2305115  94.2599484  32.5704752  20.8987473
  83.2521820  36.1166039   8.5781682  83.4009940  36.8001503   7.9248354
  84.0588263  36.0971129   9.0931137  91.6589323  29.4208421  22.6048899
  92.5599186  29.2814886  22.3132897  91.7337298  29.5862876  23.5447077
  85.9932129  26.7975276  21.4502086  85.1235438  27.0908842  21.1784674
  86.2291609  27.3815721  22.1709349  95.8703758  35.8574435  21.5331614
  95.5788566  36.2204415  22.3695075  95.2575889  35.1441443  21.3544946
  94.1190946  30.9807049  20.0011672  94.5945068  31.1734696  19.1930524
  93.1956511  31.0366235  19.7555056  81.0074453  32.1431216   9.5842750
  80.7620495  31.2393546   9.7822961  81.1770367  32.1448367   8.6422228
  88.6971163  23.0154893  18.9667506  89.2153106  23.7515920  18.6413995
  88.3426295  23.3218886  19.8014265  80.2770100  27.8759574   7.0828912
  79.5839345  27.9503929   6.4268948  80.0321852  27.1119918   7.6050429
  86.7517225  38.6114169   6.0493429  86.1791192  39.2304356   5.5963901
  87.3250019  39.1613531   6.5833351  92.8192615  27.8572809  18.2339978
  93.7710038  27.9570907  18.2552202  92.6496065  27.0651078  18.7438062
  90.8406995  24.9428393  18.4199379  90.2456927  25.2233405  17.7245867
  90.5556691  25.4322293  19.1916120  89.9714485  38.8951319   7.1802011
  90.9045158  38.8296881   7.3834887  89.8837698  39.7307586   6.7216544
  95.2980693  31.0778929  17.3482277  95.2657013  30.1394930  17.5341961
  95.9081316  31.1562966  16.6148102  95.4475181  27.8689972  17.3940561
  94.9314230  27.0848429  17.2070489  96.3315130  27.5408689  17.5587080
  99.1972540  30.2802798  17.0862765  98.4705703  30.1458763  16.4779257
  98.7819827  30.5879627  17.8919483  87.0202716  33.9992728  24.8510138
  87.9405726  34.1771327  25.0450185  86.9852299  33.0548773  24.6989838
  76.2384881  29.1931322  13.7763413  75.9187666  28.3396630  13.4837787
  75.6918309  29.4079900  14.5321380  80.0164789  31.9093763  17.4932920
  80.2350799  32.8410871  17.5120953  80.4290563  31.5501737  18.2787723
  84.8892654  27.4826969  26.8835668  84.7889381  28.4321325  26.8147760
  84.6714196  27.1545207  26.0111739  76.1073141  32.8134233  15.7456535
  75.4136613  32.3988186  15.2326489  76.8546132  32.8554770  15.1489954
  84.7523924  30.9124107  25.7000730  84.2691006  31.7124467  25.9064619
  84.8384863  30.9232052  24.7468174  78.0209884  32.7452487  13.6222550
  77.9980572  32.8440174  12.6704433  78.3310520  33.5917638  13.9439716
  80.6797262  34.8028642  17.7369164  81.6340515  34.7712584  17.6699095
  80.4809785  34.3419266  18.5519390  81.2696644  33.3729758  20.3039962
  82.0889533  33.8673837  20.3274799  81.5433451  32.4561726  20.2757529
  79.0347490  40.3448262  14.7539362  78.9001958  39.5848662  14.1877360
  78.6179553  41.0689161  14.2868151  82.1916616  41.2417579  14.9657804
  82.0749000  42.1863011  14.8636495  81.3709063  40.9391140  15.3543604
  76.5231558  27.7067892  21.0032159  77.1690422  27.1966846  21.4919384
  76.3148709  28.4436574  21.5775584  89.0484950  34.7748739  26.5024299
  89.9176110  34.9489392  26.1410934  88.5691702  35.5943156  26.3800029
  83.2171130  41.8945840  18.1813733  84.1198377  41.9269451  18.4980228
  82.9908500  40.9646291  18.1960069  84.9724732  40.6476827  14.8423811
  84.0220363  40.6478689  14.7288184  85.2757219  39.9009562  14.3259846
  80.8629049  24.8535509  25.1007173  81.7260511  24.4972314  25.3110497
  80.2894460  24.5149404  25.7882577 100.7077426  46.4837365  15.9069574
 101.3455836  46.3644113  15.2032914 100.5898269  47.4318209  15.9657526
  97.5167132  46.4364794  15.8431099  97.1785644  46.3205858  14.9551633
  98.3856900  46.0355959  15.8232105  93.3753948  48.2900270  11.8327990
  92.8118813  48.1990207  11.0644277  93.2606343  47.4700174  12.3130482
  97.9986915  47.5899645  21.8017304  97.9875556  47.1952444  20.9297808
  98.1607555  46.8565718  22.3951076  90.9218380  49.7851462  14.6712210
  91.7139672  49.4442286  14.2558509  91.1615030  49.8946437  15.5914363
  98.9553507  51.9571238   7.1442454  98.3041486  52.5425318   6.7576468
  99.7497869  52.4877433   7.2037492  92.8809134  49.0460375   7.5429589
  93.6540010  48.4989362   7.4042465  93.2334533  49.9104624   7.7544050
  94.7194176  50.3736757  20.7496488  94.4284042  51.2782388  20.6343154
  95.3551161  50.4153285  21.4640558  95.6450383  47.7513606  17.3397848
  96.2413955  47.5269628  16.6254811  95.7025355  47.0098351  17.9423296
 100.2618694  44.2088819  12.9822782 101.0481784  43.7908242  12.6313199
 100.5257399  45.1134911  13.1504430 100.4328772  49.6461670   7.6811439
  99.7974605  49.7196296   8.3932343 100.1026178  50.2355268   7.0030518
  94.9371700  47.1081147   7.3772414  94.8207958  46.4326050   8.0453498
  95.0473960  46.6213521   6.5604567  97.2803241  46.5691294  11.0819103
  96.9161449  46.0421915  11.7932024  98.1370357  46.1789763  10.9085588
 103.1852542  37.8585627  18.3450369 102.8535867  38.7281038  18.1211584
 102.5898155  37.5421911  19.0244399  99.6784061  50.0598173  17.7446282
  99.3784785  50.9623211  17.6362089  99.3335121  49.7930356  18.5967435
  93.1296543  46.5111969  13.7782986  92.2047039  46.3788184  13.9860678
  93.3780956  47.2906189  14.2752929 103.0781205  42.5780713  15.4243719
 102.1698083  42.5096121  15.1302480 103.0268801  43.0552658  16.2525545
  96.8997949  44.0538851   7.0627118  96.7797574  44.4995902   7.9012599
  96.2050538  44.4024169   6.5040656  90.4905354  46.1545243  14.6126775
  90.6197735  46.4079722  15.5266187  89.8102805  46.7472951  14.2931430
  94.6604841  56.8242493  10.7117249  94.5828871  57.7750318  10.7905730
  94.0566485  56.4788365  11.3692176  97.1522071  43.9970358  23.3678616
  96.3755405  44.5564278  23.3581481  97.7912634  44.4827141  23.8893486
 104.9442852  40.7797151  17.2021593 104.3017232  41.0729684  16.5561388
 104.4397780  40.6650071  18.0074790  95.4068443  46.8055812  22.9296583
  96.1483128  47.3440856  22.6531407  94.7005429  47.4322100  23.0868135
 100.8823783  48.9484952  21.5268745 101.2907139  48.5067363  20.7823377
 100.1601044  48.3737580  21.7802938  97.2354853  43.8857559  18.9002302
  98.0816048  44.3096972  19.0436951  97.1753491  43.2291183  19.5940865
 101.2052598  49.5086143  15.2821034 100.5761460  49.6731857  14.5797102
 100.8178260  49.9227752  16.0531998 105.0841829  50.4440581  12.6365398
 104.3992868  50.8239482  12.0862431 105.1685679  51.0535907  13.3697345
 100.3854298  41.5461927  20.5583475 100.1415230  42.3003988  20.0217751
 100.6614229  41.9247275  21.3930723 102.3392761  48.0900540  19.2360741
 102.5509656  48.7332300  18.5595122 102.2922509  47.2562856  18.7682671
  99.9418990  40.7018360  16.1397313  99.0803469  40.9999614  16.4314051
  99.9681425  40.9188759  15.2078346  96.7580559  49.2460551  12.5471119
  97.2218905  49.5248254  11.7575741  96.4937358  48.3443995  12.3644210
  93.6504641  48.7932032  15.4850882  94.2205998  49.2219301  14.8468367
  94.2412752  48.5114617  16.1835068  95.6949446  45.3683703   9.3560684
  96.3973489  45.8204747   9.8234610  95.3630074  44.7267522   9.9840577
  94.1429807  43.9595460  23.7311893  93.5128468  44.6411741  23.9647290
  94.0365895  43.8478541  22.7865032  89.4374779  43.6267256  14.6577818
  88.6473833  43.8824784  14.1817928  89.9286027  44.4415594  14.7629858
 103.4538589  50.9672495  17.4083098 104.2756033  50.5652682  17.1265780
 103.4500992  50.8640729  18.3599214  91.3889525  43.9911835  11.6161294
  90.5920688  44.1030529  12.1344790  91.1615117  44.3298487  10.7502185
  97.2195192  50.5156538  19.5643809  97.2839625  50.9776946  20.4001981
  96.5106116  49.8853903  19.6926119  87.7212482  43.8797746  17.0892808
  87.9720521  44.7644756  17.3550384  88.2572031  43.7002348  16.3167900
  96.9343210  52.1824646   9.4322789  96.7988885  53.0276182   9.8607637
  97.4753023  52.3843924   8.6688723  93.4210550  38.2616226  26.0937144
  93.0277495  37.7082424  26.7684789  94.2376690  38.5726804  26.4843662
  90.3872608  49.7000084  10.0050714  90.8997128  50.4943334  10.1556279
  91.0395320  49.0026374   9.9384316  92.1967492  52.8165840  12.0873467
  92.3734121  53.7383805  11.8994451  92.9924326  52.5024259  12.5167847
  96.3378511  39.6774105  23.6857401  97.0788224  40.2781258  23.6061863
  96.5696434  38.9351743  23.1275444  91.4819849  44.8630472  21.9635631
  91.3673364  43.9615729  22.2642730  90.6264367  45.1094169  21.6120447
  98.5611687  52.8048212  23.5623131  98.1175541  52.0184591  23.2444036
  99.2228900  52.9927363  22.8967022  93.3198808  54.3344014  18.0883810
  93.8706233  54.2061077  17.3160804  92.4810284  54.6338903  17.7378703
 100.6592925  53.0851012  21.5904533 100.6411400  53.9059893  21.0984802
 101.5812845  52.9605088  21.8154674  97.1165979  50.5995142  22.4328041
  97.6494316  49.8383430  22.2027349  96.5880060  50.3068794  23.1752195
 100.2835674  35.7055208  17.9621683  99.9399943  36.5956849  17.8860793
 100.6514636  35.5156865  17.0991268  88.3521524  48.0288738  10.7810285
  89.1896746  48.4385747  10.5643993  88.5299792  47.0888180  10.7510479
  97.8333067  40.5413520  11.5279356  96.9774664  40.1520370  11.3484995
  98.2460019  40.6205480  10.6679142  99.3632214  38.0759863  15.9270916
  98.8597010  38.0389998  15.1138721  99.6562821  38.9852606  15.9867573
  95.6075100  38.1598593  14.9337098  96.4728097  37.9641401  14.5742987
  95.6752609  37.9308944  15.8606454  98.4818691  49.7281134   9.9446853
  97.9540053  48.9933894   9.6320090  97.9806194  50.5055811   9.6986821
 103.4611537  47.9230155  15.0613899 102.8035212  48.6129416  15.1494028
 104.2651937  48.3126587  15.4047886  93.2137419  40.3900801  12.3053464
  93.7881171  40.1675982  11.5726657  93.8008402  40.4589495  13.0582066
 102.2716996  46.2774527  13.1117841 102.7848878  46.9104519  13.6139551
 102.9218220  45.6775723  12.7461201  93.5407006  42.4205262   6.3249350
  92.7044318  42.7579948   6.6458624  93.4011776  42.2854241   5.3876487
  95.5160087  37.2642049  11.0328534  94.8624499  36.9491067  10.4085149
  95.4740561  36.6417790  11.7588357  98.7497827  43.7523983  15.3576182
  97.8320389  43.9738930  15.1997870  99.1657971  43.8270293  14.4987889
  99.5332875  45.1515399  10.4878862 100.2804694  45.6636796  10.1785984
  99.8024464  44.8299451  11.3483255  97.8059525  47.6473939   7.4705816
  96.8970744  47.3632972   7.5678286  97.8354609  48.0673018   6.6109123
 103.0378792  51.2580529  11.2396984 102.5841120  50.4171439  11.2962174
 102.4072759  51.8941927  11.5771764 101.4811732  53.0957026  12.1746802
 101.7734706  53.6562083  11.4559167 101.9910352  53.3885587  12.9299961
  88.3747695  45.3679454  11.4521018  88.1772095  44.7748814  10.7272085
  87.8194359  45.0631664  12.1696957  96.3544419  45.2602560  13.5715611
  96.4093029  44.3076396  13.4958088  95.5435621  45.4161999  14.0556910
  94.2936779  43.8779620  11.3305990  93.4804645  44.1773790  11.7371182
  94.7895773  43.4835309  12.0480473  96.4445357  53.8737377  13.2640255
  96.4021536  54.0998223  12.3348787  97.3608056  53.6400751  13.4126056
  99.8910991  44.3421444  20.1620884 100.2460378  44.5692917  21.0215350
 100.5383122  44.6739821  19.5398139  93.7850854  41.4497975  16.9467225
  94.4250233  41.3086734  16.2490189  92.9528384  41.1632489  16.5705827
 105.6478107  49.5316407  15.8781485 106.0814614  49.4391696  16.7264539
 106.3609688  49.5073908  15.2401501  94.5611158  50.7500406  13.0602218
  95.3551756  50.2550726  12.8584793  93.8502850  50.2218269  12.6969923
  99.3806002  53.1318501  17.4114585  99.4343024  53.7009438  18.1792301
  98.5120784  53.3020386  17.0468622  90.8693921  44.8943487   9.1361970
  89.9391509  44.8327943   9.3531933  90.9651393  44.3719440   8.3398612
  90.7879470  41.4198300  11.7240212  91.0486288  42.3343634  11.6149372
  91.6096643  40.9522743  11.8736825  92.2604396  42.8336057  18.8939037
  92.9327449  42.6253420  18.2451685  91.4334182  42.6358143  18.4544269
 106.5093657  49.5740108  18.4114370 106.7029547  50.4785918  18.6573645
 106.4094275  49.1147527  19.2452955  98.1629968  39.4597998  20.9104697
  97.5157883  40.1587948  20.8169174  98.9330983  39.8934142  21.2780946
 101.5708766  49.7246851  23.9855251 101.4194272  49.4957402  23.0685334
 101.5613445  50.6817452  23.9986596  98.3394102  47.2978763  18.9701517
  99.2686162  47.4489923  18.7970484  97.9185132  47.3862784  18.1150164
  97.1382434  51.3229428  16.7400055  96.9993519  50.9548212  17.6125993
  96.3497030  51.8377067  16.5684013  97.7330586  56.4238524   8.0825591
  97.9082341  55.9526567   8.8971214  97.0463374  57.0504290   8.3106852
  98.6887649  50.7011030  14.1288893  98.3537481  50.6611800  15.0246542
  98.1891595  50.0355746  13.6559303  92.6631893  46.1078660  19.6541474
  92.5251691  45.3758899  20.2553013  93.5736816  46.0187561  19.3725661
  95.2914193  45.8198620  19.1425153  96.0013812  45.1791812  19.1011772
  95.2483502  46.0711515  20.0651334 103.2800972  52.7565973  22.0631733
 103.2213518  52.0725193  21.3962316 103.6820491  53.4984963  21.6112359
  94.0043127  42.8063838  20.9620793  93.4680484  42.3554576  21.6142389
  93.4159836  42.9409746  20.2191257  92.2991671  59.5727887  14.8565451
  92.5388269  60.2046411  15.5344470  91.4560867  59.2215927  15.1430811
 103.2818379  50.7205557  20.2945712 102.3945158  50.3831479  20.4172111
 103.8516930  49.9888588  20.5314478  84.9347527  47.0529649  13.6188764
  85.6218566  46.7391379  13.0309779  84.7795655  47.9571013  13.3456015
  89.7382249  41.9419845  18.0473787  89.6540437  41.3345515  17.3124197
  88.9164955  42.4328864  18.0483284  96.8119533  55.3807009  17.2606955
  96.7389704  56.1861981  17.7726260  96.3696926  55.5798975  16.4354977
  96.6009312  54.6178779  10.7709777  95.8176834  55.1600460  10.8648002
  97.3002058  55.1352759  11.1704018  99.9105963  40.4273409  13.4143982
 100.4074662  39.6743371  13.0945053  99.1392944  40.4637726  12.8487192
 107.7635720  46.1313774  15.0562274 107.7525596  47.0138490  14.6856207
 106.8953099  45.7785325  14.8616811  99.2718216  55.2793843  19.4165114
  99.9846189  55.9141308  19.3441016  98.7808245  55.3757709  18.6005116
 100.9935743  49.1845096  10.9882406 100.0592022  49.3046559  10.8187110
 101.1712412  48.2817563  10.7242416  96.4940931  42.5690792  13.1415667
  96.1238719  42.0161832  13.8296573  96.9900024  41.9648925  12.5890667
  94.3230130  53.0288287  20.2370685  95.0239589  53.6624770  20.3900079
  93.8525245  53.3703018  19.4766324 102.4484526  51.3706237   8.5218592
 102.7244370  51.2562831   9.4312466 101.5789024  50.9723721   8.4830765
 102.3524957  37.3943002  15.5623341 101.4388037  37.6247229  15.7305548
 102.7818059  37.4781446  16.4137374 102.1231416  45.5832894  18.0623235
 101.4702866  45.8308802  17.4075688 102.5011796  44.7697032  17.7285713
  99.0838590  55.6192587  12.1651406  99.2660984  54.8014243  12.6279158
  99.9071576  55.8360280  11.7276296  99.4180755  54.5460773   9.4266454
  99.9468522  54.0353227   8.8136616  99.6808975  54.2303303  10.2911987
  98.1718989  46.3252705  24.5489272  97.4959626  46.2246835  25.2191648
  98.9946623  46.1691919  25.0125270  89.9197848  52.5624642  17.1701788
  90.5051285  51.8168330  17.3029692  89.7222686  52.8728599  18.0538452
  92.7736503  55.5975889  12.1864230  92.1046878  56.0822017  11.7028270
  92.6349373  55.8445110  13.1007609  84.5115503  45.1330242  15.8906231
  84.5499602  44.5993833  16.6843349  84.0055795  44.6065448  15.2717208
  96.9141772  57.6319633  18.7846888  97.4660080  57.7951254  19.5495974
  97.2547965  58.2224071  18.1126913  91.8906265  39.9794783  19.3868773
  91.9547591  40.8409614  18.9746171  91.8273385  39.3668784  18.6541132
  91.3658537  42.0517915  23.0341807  91.9930576  41.6694992  23.6479332
  90.5086456  41.8332117  23.3997500 101.7652646  52.4580890  24.6395543
 102.3092550  53.0710849  24.1450498 101.1839491  53.0160469  25.1562556
  88.1424080  43.8594344   8.9660162  88.4377521  42.9505023   8.9127216
  87.2412116  43.8382084   8.6441165 100.0510159  55.5801608  15.7710571
  99.9261298  54.7791348  15.2621516 100.7089250  56.0747802  15.2824541
  91.6718327  41.9350341  14.9487711  90.9504913  42.5486309  14.8095184
  92.4611583  42.4708106  14.8704357 102.1145067  53.3810628  17.3990121
 101.1675403  53.2615980  17.3268447 102.4627841  52.4933126  17.4816382
  94.4744641  39.2704767  21.2228363  94.9979043  39.5167064  21.9854672
  94.2556974  40.1024802  20.8031500  89.8711922  41.5408442   9.0899487
  89.5424628  40.6605821   8.9074593  90.2251293  41.4856111   9.9775877
  99.1191501  53.1763345  13.5994473  98.9716463  52.2480052  13.7802043
  99.9444994  53.1983435  13.1151548  92.9853745  41.8281412   9.4574965
  93.3249817  42.3567333   8.7353573  93.4325865  42.1661818  10.2333532
 102.7225623  53.9991903  14.6859346 103.6472170  53.7934765  14.5483797
 102.5540926  53.7508305  15.5948687  95.6797186  40.2118462  18.9078033
  95.3394006  39.4126276  19.3098713  94.9736192  40.5120173  18.3354866
  96.3313658  37.2967775  17.3605356  97.1539727  36.8228253  17.2384246
  96.5751721  38.0758259  17.8604042  93.8552236  43.9886896  15.1697335
  93.7096817  44.3027199  16.0621616  93.3777440  44.6071796  14.6168233
  95.7148619  40.9789443  15.2178224  95.7010188  40.0830537  14.8810522
  96.4321047  40.9860107  15.8516510  97.5674750  41.4126784  17.2631352
  97.3092528  42.3343854  17.2615682  97.0359790  41.0157218  17.9531816
 102.5120939  54.5177571  10.0421437 102.6857816  53.9523993   9.2895290
 103.0049830  55.3178466   9.8600927  88.3297899  46.5292240  18.1084996
  87.7851367  47.3052048  18.2405270  89.2077248  46.8763044  17.9504117
  95.1185515  39.8603824  10.4865794  95.2401426  38.9320470  10.6856682
  94.8287558  39.8742510   9.5744110  97.9876706  37.5458734  13.6232514
  98.0098402  37.6098067  12.6684494  98.4044765  36.7063243  13.8173020
  89.1163920  45.6562136  21.0015153  88.3745656  45.8044772  21.5879783
  88.7956665  45.9170402  20.1381902  97.0607583  55.1978114  20.7995543
  97.3694710  54.9527261  21.6718242  97.8583065  55.4024753  20.3114413
  97.0828195  57.3516024  13.0300919  96.6433185  56.8592403  13.7233776
  97.8336312  56.8088992  12.7892995  89.5620534  53.5427565  13.0325547
  90.3878554  53.2431337  12.6524191  89.2114586  52.7735187  13.4815336
  94.5302067  52.8954033  15.1023221  93.9082077  52.2324738  14.8025449
  95.2006934  52.9215165  14.4196869  87.7629139  51.4613891  13.9914481
  86.9261047  51.0336066  13.8098482  87.7352785  51.6546335  14.9285272
  94.6026595  41.3735821  24.6955727  94.6514750  42.2497944  24.3133497
  95.1449109  40.8313214  24.1227370 105.0881440  51.9176944  23.9756864
 104.2976984  51.9001083  23.4361363 104.8514795  52.4565238  24.7305901
 105.2079315  48.7669411  21.2889593 105.2577320  48.6019418  22.2305115
 105.0993239  47.8996670  20.8987473  94.0915574  51.4457956   8.5781682
  94.2403695  52.1293421   7.9248354  94.8982018  51.4263047   9.0931137
 102.4983078  44.7500339  22.6048899 103.3992941  44.6106804  22.3132897
 102.5731052  44.9154794  23.5447077  96.8325883  42.1267194  21.4502086
  95.9629193  42.4200760  21.1784674  97.0685364  42.7107639  22.1709349
 106.7097512  51.1866352  21.5331614 106.4182321  51.5496333  22.3695075
 106.0969644  50.4733361  21.3544946 104.9584701  46.3098967  20.0011672
 105.4338822  46.5026613  19.1930524 104.0350266  46.3658153  19.7555056
  91.8468207  47.4723134   9.5842750  91.6014249  46.5685464   9.7822961
  92.0164122  47.4740285   8.6422228  99.5364917  38.3446810  18.9667506
 100.0546861  39.0807837  18.6413995  99.1820050  38.6510804  19.8014265
  91.1163855  43.2051492   7.0828912  90.4233100  43.2795847   6.4268948
  90.8715607  42.4411835   7.6050429 103.6586370  43.1864727  18.2339978
 104.6103792  43.2862825  18.2552202 103.4889820  42.3942996  18.7438062
 101.6800749  40.2720310  18.4199379 101.0850681  40.5525323  17.7245867
 101.3950446  40.7614211  19.1916120 106.1374447  46.4070847  17.3482277
 106.1050767  45.4686847  17.5341961 106.7475071  46.4854883  16.6148102
 106.2868936  43.1981890  17.3940561 105.7707984  42.4140347  17.2070489
 107.1708884  42.8700607  17.5587080  97.8596471  49.3284646  24.8510138
  98.7799480  49.5063245  25.0450185  97.8246054  48.3840691  24.6989838
  87.0778636  44.5223239  13.7763413  86.7581420  43.6688548  13.4837787
  86.5312064  44.7371818  14.5321380  90.8558543  47.2385680  17.4932920
  91.0744553  48.1702788  17.5120953  91.2684317  46.8793655  18.2787723
  95.7286409  42.8118886  26.8835668  95.6283135  43.7613243  26.8147760
  95.5107951  42.4837125  26.0111739  86.9466896  48.1426151  15.7456535
  86.2530367  47.7280104  15.2326489  87.6939887  48.1846687  15.1489954
  95.5917679  46.2416025  25.7000730  95.1084760  47.0416385  25.9064619
  95.6778618  46.2523970  24.7468174  88.8603638  48.0744405  13.6222550
  88.8374326  48.1732092  12.6704433  89.1704275  48.9209556  13.9439716
  91.5191016  50.1320560  17.7369164  92.4734270  50.1004502  17.6699095
  91.3203540  49.6711183  18.5519390  92.1090398  48.7021676  20.3039962
  92.9283287  49.1965754  20.3274799  92.3827206  47.7853644  20.2757529
  89.8741245  55.6740179  14.7539362  89.7395713  54.9140580  14.1877360
  89.4573307  56.3981079  14.2868151  93.0310371  56.5709496  14.9657804
  92.9142755  57.5154929  14.8636495  92.2102817  56.2683058  15.3543604
  87.3625313  43.0359810  21.0032159  88.0084176  42.5258764  21.4919384
  87.1542464  43.7728491  21.5775584  99.8878705  50.1040657  26.5024299
 100.7569864  50.2781309  26.1410934  99.4085456  50.9235074  26.3800029
  94.0564885  57.2237758  18.1813733  94.9592132  57.2561368  18.4980228
  93.8302255  56.2938209  18.1960069  95.8118487  55.9768745  14.8423811
  94.8614118  55.9770606  14.7288184  96.1150973  55.2301479  14.3259846
  91.7022803  40.1827427  25.1007173  92.5654265  39.8264232  25.3110497
  91.1288214  39.8441322  25.7882577 101.7612134  65.1143379  14.6712210
 102.5533426  64.7734204  14.2558509 102.0008784  65.2238354  15.5914363
 105.5587931  65.7028675  20.7496488 105.2677797  66.6074306  20.6343154
 106.1944915  65.7445202  21.4640558 106.4844138  63.0805523  17.3397848
 107.0807710  62.8561546  16.6254811 106.5419109  62.3390269  17.9423296
 103.9690297  61.8403887  13.7782986 103.0440794  61.7080101  13.9860678
 104.2174711  62.6198106  14.2752929 101.3299108  61.4837161  14.6126775
 101.4591490  61.7371640  15.5266187 100.6496560  62.0764869  14.2931430
 106.2462198  62.1347729  22.9296583 106.9876882  62.6732773  22.6531407
 105.5399183  62.7614018  23.0868135 104.9823562  59.2887378  23.7311893
 104.3522222  59.9703658  23.9647290 104.8759649  59.1770459  22.7865032
 100.2768534  58.9559174  14.6577818  99.4867588  59.2116702  14.1817928
 100.7679781  59.7707511  14.7629858 108.0588947  65.8448456  19.5643809
 108.1233379  66.3068863  20.4001981 107.3499871  65.2145821  19.6926119
  98.5606237  59.2089664  17.0892808  98.8114275  60.0936674  17.3550384
  99.0965785  59.0294266  16.3167900 104.2604304  53.5908143  26.0937144
 103.8671250  53.0374342  26.7684789 105.0770445  53.9018722  26.4843662
 107.1772265  55.0066022  23.6857401 107.9181979  55.6073176  23.6061863
 107.4090188  54.2643660  23.1275444 102.3213603  60.1922390  21.9635631
 102.2067118  59.2907647  22.2642730 101.4658121  60.4386087  21.6120447
 106.4468854  53.4890510  14.9337098 107.3121851  53.2933319  14.5742987
 106.5146363  53.2600862  15.8606454 104.0531174  55.7192718  12.3053464
 104.6274925  55.4967900  11.5726657 104.6402156  55.7881413  13.0582066
 106.3553841  52.5933967  11.0328534 105.7018254  52.2782984  10.4085149
 106.3134315  51.9709708  11.7588357  99.2141450  60.6971371  11.4521018
  99.0165850  60.1040732  10.7272085  98.6588114  60.3923581  12.1696957
 107.1938174  60.5894478  13.5715611 107.2486783  59.6368314  13.4958088
 106.3829376  60.7453917  14.0556910 104.6244608  56.7789893  16.9467225
 105.2643988  56.6378652  16.2490189 103.7922139  56.4924406  16.5705827
 101.6273225  56.7490218  11.7240212 101.8880042  57.6635551  11.6149372
 102.4490397  56.2814661  11.8736825 103.0998150  58.1627975  18.8939037
 103.7721203  57.9545337  18.2451685 102.2727937  57.9650061  18.4544269
 103.5025647  61.4370578  19.6541474 103.3645445  60.7050817  20.2553013
 104.4130571  61.3479478  19.3725661 106.1307948  61.1490537  19.1425153
 106.8407566  60.5083730  19.1011772 106.0877256  61.4003432  20.0651334
 104.8436882  58.1355755  20.9620793 104.3074239  57.6846494  21.6142389
 104.2553590  58.2701664  20.2191257  95.7741281  62.3821566  13.6188764
  96.4612321  62.0683296  13.0309779  95.6189410  63.2862931  13.3456015
 100.5776003  57.2711763  18.0473787 100.4934192  56.6637433  17.3124197
  99.7558710  57.7620781  18.0483284 107.3334686  57.8982710  13.1415667
 106.9632473  57.3453750  13.8296573 107.8293778  57.2940843  12.5890667
 105.1623884  68.3580205  20.2370685 105.8633344  68.9916687  20.3900079
 104.6918999  68.6994936  19.4766324 100.7591602  67.8916560  17.1701788
 101.3445039  67.1460247  17.3029692 100.5616441  68.2020516  18.0538452
  95.3509257  60.4622160  15.8906231  95.3893357  59.9285750  16.6843349
  94.8449550  59.9357365  15.2717208 102.7300019  55.3086700  19.3868773
 102.7941346  56.1701531  18.9746171 102.6667140  54.6960702  18.6541132
 102.2052292  57.3809833  23.0341807 102.8324331  56.9986910  23.6479332
 101.3480211  57.1624035  23.3997500 102.5112082  57.2642259  14.9487711
 101.7898667  57.8778226  14.8095184 103.3005337  57.8000023  14.8704357
 105.3138395  54.5996685  21.2228363 105.8372797  54.8458982  21.9854672
 105.0950729  55.4316720  20.8031500 100.7105676  56.8700360   9.0899487
 100.3818382  55.9897739   8.9074593 101.0645047  56.8148028   9.9775877
 106.5190940  55.5410380  18.9078033 106.1787761  54.7418193  19.3098713
 105.8129947  55.8412091  18.3354866 107.1707412  52.6259693  17.3605356
 107.9933481  52.1520171  17.2384246 107.4145476  53.4050176  17.8604042
 104.6945991  59.3178813  15.1697335 104.5490572  59.6319116  16.0621616
 104.2171195  59.9363714  14.6168233 106.5542374  56.3081361  15.2178224
 106.5403943  55.4122454  14.8810522 107.2714802  56.3152025  15.8516510
  99.1691653  61.8584158  18.1084996  98.6245121  62.6343966  18.2405270
 100.0471003  62.2054962  17.9504117  99.9557675  60.9854054  21.0015153
  99.2139411  61.1336689  21.5879783  99.6350419  61.2462319  20.1381902
  98.6022894  66.7905809  13.9914481  97.7654802  66.3627983  13.8098482
  98.5746539  66.9838252  14.9285272 105.4420349  56.7027739  24.6955727
 105.4908505  57.5789862  24.3133497 105.9842863  56.1605132  24.1227370
 107.6719638  57.4559111  21.4502086 106.8022947  57.7492677  21.1784674
 107.9079118  58.0399556  22.1709349  97.9172390  59.8515157  13.7763413
  97.5975175  58.9980465  13.4837787  97.3705818  60.0663735  14.5321380
 101.6952298  62.5677598  17.4932920 101.9138308  63.4994706  17.5120953
 102.1078072  62.2085573  18.2787723 106.5680163  58.1410804  26.8835668
 106.4676890  59.0905161  26.8147760 106.3501705  57.8129043  26.0111739
  97.7860650  63.4718069  15.7456535  97.0924122  63.0572021  15.2326489
  98.5333641  63.5138605  15.1489954 106.4311433  61.5707943  25.7000730
 105.9478515  62.3708303  25.9064619 106.5172372  61.5815888  24.7468174
  99.6997393  63.4036322  13.6222550  99.6768081  63.5024010  12.6704433
 100.0098029  64.2501473  13.9439716 102.3584771  65.4612477  17.7369164
 103.3128024  65.4296420  17.6699095 102.1597294  65.0003101  18.5519390
 102.9484153  64.0313593  20.3039962 103.7677042  64.5257672  20.3274799
 103.2220960  63.1145562  20.2757529  98.2019067  58.3651727  21.0032159
  98.8477931  57.8550681  21.4919384  97.9936218  59.1020409  21.5775584
 102.5416558  55.5119344  25.1007173 103.4048020  55.1556149  25.3110497
 101.9681969  55.1733239  25.7882577   3.1507031  54.9757207  80.1341534
   2.3970739  54.4064605  79.9785538   3.2854572  54.9419871  81.0812168
   3.5613446  55.1332817  82.8661778   4.2916834  54.8718105  83.4269481
   2.9520391  54.3961539  82.9063846   1.6428743  53.2740679  83.4636229
   0.9161907  53.1396644  82.8552721   1.2276030  53.5817508  84.2692947
   1.5677611  52.8018732  79.5913082   1.0077169  52.8711922  80.3644644
   0.9621114  52.6259717  78.8712578   3.1533629  69.4775246  82.2843038
   3.7912039  69.3581994  81.5806378   3.0354472  70.4256090  82.3430990
   1.4009710  74.9509119  73.5215918   0.7497690  75.5363199  73.1349932
   2.1954073  75.4815314  73.5810956   2.7074898  67.2026700  79.3596246
   3.4937987  66.7846123  79.0086663   2.9713602  68.1072792  79.5277894
   2.8784975  72.6399551  74.0584902   2.2430808  72.7134177  74.7705807
   2.5482381  73.2293149  73.3803982   8.1083325  67.1401933  80.2629224
   8.8408497  66.5701150  80.4967054   7.3522681  66.7523534  80.7035730
   5.6308745  60.8523508  84.7223833   5.2992070  61.7218918  84.4985048
   5.0354359  60.5359792  85.4017863   2.1240265  73.0536054  84.1219746
   1.8240988  73.9561092  84.0135553   1.7791324  72.7868237  84.9740898
   5.5237409  65.5718594  81.8017183   4.6154286  65.5034002  81.5075944
   5.4725004  66.0490539  82.6299008   7.3899055  63.7735032  83.5795057
   6.7473435  64.0667565  82.9334851   6.8853983  63.6587952  84.3848253
   5.0439219  67.5198205  74.2680916   5.9557075  67.7525592  74.0928614
   4.5348866  68.1035250  73.7055995   3.3279986  71.9422833  87.9042209
   3.7363342  71.5005244  87.1596841   2.6057248  71.3675461  88.1576401
   3.6508801  72.5024024  81.6594497   3.0217663  72.6669738  80.9570565
   3.2634463  72.9165633  82.4305461   7.5298033  73.4378462  79.0138861
   6.8449071  73.8177363  78.4635895   7.6141882  74.0473788  79.7470809
   2.8310502  64.5399808  86.9356939   2.5871434  65.2941869  86.3991215
   3.1070432  64.9185156  87.7704186   4.7848964  71.0838421  85.6134205
   4.9965860  71.7270181  84.9368586   4.7378713  70.2500737  85.1456135
   2.3875193  63.6956241  82.5170777   1.5259672  63.9937495  82.8087514
   2.4137628  63.9126640  81.5851810   5.8994792  73.9610376  83.7856562
   6.7212236  73.5590563  83.5039244   5.8957195  73.8578610  84.7372678
  13.9900785  70.3049125  80.1341534  13.2364494  69.7356523  79.9785538
  14.1248327  70.2711789  81.0812168   3.1049128  76.0788893  87.9677996
   3.0867603  76.8997774  87.4758265   4.0269048  75.9542968  88.1928137
   2.7291877  58.6993089  84.3395146   2.3856146  59.5894730  84.2634257
   3.0970840  58.5094746  83.4764731   2.6942160  68.6901700  72.8467582
   2.1788783  69.4606304  73.0855969   2.4219468  68.0166836  73.4700643
   1.8088417  61.0697744  82.3044380   1.3053213  61.0327879  81.4912185
   2.1019024  61.9790487  82.3641036   7.6676434  71.4434054  74.7820755
   6.8905877  71.1045214  74.3375917   8.3467915  71.4486678  74.1075720
   2.4828463  66.5628792  74.6727363   2.1778598  66.8774941  75.5237506
   3.4358905  66.6410212  74.7154696   5.9067741  70.9168036  81.4387363
   5.2491415  71.6067297  81.5267492   6.7108140  71.3064468  81.7821349
   4.7173200  69.2712408  79.4891305   5.2305081  69.9042400  79.9913014
   5.3674423  68.6713604  79.1234665   1.9795574  79.2496733  72.2451976
   1.3057273  79.5528429  72.8536934   2.3661396  80.0525813  71.8957433
   1.9789078  68.1453280  76.8652325   2.7260897  68.6574677  76.5559448
   2.2480668  67.8237332  77.7256719   5.4834996  74.2518410  77.6170447
   5.0297323  73.4109320  77.6735638   4.8528962  74.8879808  77.9545228
   4.4267915  65.1810396  78.8471115   3.6890672  64.6687782  79.1781357
   4.6794689  64.7410778  78.0354392   3.9267935  76.0894907  78.5520265
   4.2190909  76.6499964  77.8332631   4.4366556  76.3823468  79.3073425
   4.5279543  57.9586648  79.4412884   4.8338419  57.0984011  79.1538799
   5.2532147  58.5504268  79.2411878   2.3367194  67.3359325  86.5394348
   2.6916582  67.5630798  87.3988814   2.9839325  67.6677702  85.9171603
   8.0664931  70.4577761  77.2443677   7.9282830  70.6479357  76.3164866
   7.7101150  71.2197144  77.7011728   8.0934311  72.5254288  82.2554948
   8.5270817  72.4329577  83.1038002   8.8065891  72.5011789  81.6174964
   1.8262205  76.1256382  83.7888049   1.8799228  76.6947319  84.5565765
   0.9576987  76.2958267  83.4242086   8.9549860  72.5677989  84.7887834
   9.1485750  73.4723799  85.0347109   8.8550478  72.1085408  85.6226419
   1.1343852  73.6948911  80.5062356   0.7993685  73.6549681  81.4020006
   0.6347798  73.0293627  80.0332767   4.0703044  71.0404946  70.7799416
   3.4532214  70.3151774  70.6832469   3.6019532  71.8014306  70.4366490
   5.7257175  75.7503854  88.4405196   5.6669722  75.0663074  87.7735779
   6.1276694  76.4922844  87.9885822   5.7274583  73.7143438  86.6719176
   4.8401361  73.3769360  86.7945575   6.2973134  72.9826469  86.9087941
   2.3562166  63.4211290  79.7917446   2.8530865  62.6681252  79.4718516
   1.5849147  63.4575606  79.2260655  10.2091923  69.1251655  81.4335738
  10.1981799  70.0076371  81.0629671   9.3409303  68.7723206  81.2390275
   3.4391947  72.1782977  77.3655870   2.5048225  72.2984439  77.1960574
   3.6168615  71.2755444  77.1015879   6.8264498  68.0200296  77.9005904
   7.2924950  68.8528288  77.8266206   7.2771998  67.5545278  78.6051162
   4.8940729  74.3644118  74.8992056   5.1700573  74.2500712  75.8085930
   4.0245228  73.9661602  74.8604229   4.7981161  60.3880883  81.9396805
   3.8844240  60.6185110  82.1079012   5.2274262  60.4719327  82.7910837
   4.5687619  68.5770775  84.4396699   3.9159069  68.8246683  83.7849152
   4.9467999  67.7634913  84.1059176   1.5294793  78.6130468  78.5424869
   1.7117188  77.7952124  79.0052622   2.3527779  78.8298161  78.1049759
   1.8636959  77.5398654  75.8039918   2.3924725  77.0291108  75.1910080
   2.1265178  77.2241184  76.6685451   2.4966362  78.5739489  82.1484034
   2.3717502  77.7729229  81.6394980   3.1545453  79.0685683  81.6598004
   4.5601271  76.3748509  83.7763584   3.6131606  76.2553861  83.7041911
   4.9084044  75.4871007  83.8589846   1.5647704  76.1701226  79.9767937
   1.4172666  75.2417933  80.1575507   2.3901198  76.1921316  79.4925012
   5.1681826  76.9929784  81.0632809   6.0928373  76.7872646  80.9257260
   4.9997129  76.7446185  81.9722151   1.5609218  64.0239063  74.9700054
   1.7772833  64.9063701  74.6688882   1.0803285  63.6325277  74.2405696
   4.9577142  77.5115452  76.4194901   5.1314020  76.9461874  75.6668753
   5.4506033  78.3116347  76.2374391  10.8116533  70.2751875  78.0385201
  11.2547679  69.5259200  77.6404324   9.9343044  70.2662011  77.6558933
   5.9452315  76.8282216  73.5191799   6.6403219  77.4488909  73.7379114
   6.2875465  75.9777567  73.7944177   7.8443738  74.2781922  75.0479130
   8.3695062  74.6169194  74.3228450   7.7566090  73.3428937  74.8642264
   7.5337644  74.9114825  90.3530328   6.7433187  74.8938964  89.8134827
   7.2970998  75.4503119  91.1079364   7.6535519  71.7607292  87.6663056
   7.7033524  71.5957299  88.6078579   7.5449442  70.8934551  87.2760937
   4.9439281  67.7438220  88.9822363   5.8449144  67.6044685  88.6906361
   5.0187256  67.9092675  89.9220540   9.1553716  74.1804233  87.9105078
   8.8638524  74.5434214  88.7468539   8.5425847  73.4671242  87.7318410
  10.3549398  71.7457113  80.4307648  11.1896289  72.1846917  80.5945208
  10.4908527  71.2695766  79.6115894   7.4040904  69.3036848  86.3785136
   7.8795025  69.4964494  85.5703987   6.4806469  69.3596034  86.1328520
   1.9821120  61.3384691  85.3440970   2.5003064  62.0745718  85.0187458
   1.6276253  61.6448685  86.1787729   2.2333714  57.7584974  80.8641866
   2.5135468  57.0908163  81.4902293   3.0184321  57.9514070  80.3516530
   6.1042573  66.1802608  84.6113441   7.0559996  66.2800706  84.6325665
   5.9346023  65.3880877  85.1211526   4.1256952  63.2658191  84.7972842
   3.5306884  63.5463204  84.1019331   3.8406649  63.7552092  85.5689583
   3.2564443  77.2181118  73.5575475   4.1895116  77.1526680  73.7608350
   3.1687656  78.0537385  73.0990008   5.8852459  76.5346988  70.5179422
   5.8066091  76.2006852  71.4115180   6.7062126  77.0268756  70.5170895
   8.5830651  69.4008728  83.7255741   8.5506971  68.4624728  83.9115425
   9.1931274  69.4792764  82.9921566   8.7325139  66.1919771  83.7714024
   8.2164188  65.4078228  83.5843953   9.6165088  65.8638488  83.9360544
   6.3935866  59.9360787  79.7309837   6.1960687  59.6275875  80.6153169
   7.0035572  60.6622426  79.8607767  14.4007200  70.4624734  82.8661778
  15.1310589  70.2010023  83.4269481  13.7914146  69.7253456  82.9063846
  12.4822498  68.6032597  83.4636229  11.7555661  68.4688562  82.8552721
  12.0669784  68.9109426  84.2692947   2.1509513  59.8169694  77.4806368
   2.7040551  60.2365147  78.1396391   2.3879599  58.8905442  77.5229324
   5.5288320  61.9270219  76.9885033   4.9486989  62.5855023  76.6063085
   5.2624252  61.1047563  76.5772450   3.9791886  61.3275276  79.1906353
   4.4791664  61.4391811  78.3820672   4.6227494  61.0236329  79.8307161
   4.3113198  64.0870309  76.0441381   3.4239053  64.3719960  75.8261576
   4.7267187  63.9264072  75.1968658   7.6627734  64.1116830  79.7595720
   8.4388124  64.6013282  80.0320337   6.9375868  64.5374884  80.2167590
  10.1000293  64.8244449  80.8169661  10.6944783  64.5840185  80.1062969
  10.1726876  64.1051580  81.4443197   3.4556411  73.8514984  70.1389401
   4.1592261  74.0564986  70.7547056   2.7319060  74.4191746  70.4038484
   4.2854222  69.6024845  76.2591671   4.2289423  70.0593396  75.4199303
   4.8382564  68.8415530  76.0814514   8.0959027  65.3914577  77.0841790
   7.8395962  64.9911213  77.9149998   7.4711895  66.1058371  76.9591930
  12.4071365  68.1310650  79.5913082  11.8470923  68.2003839  80.3644644
  11.8014869  67.9551635  78.8712578   5.3643109  74.2897513  72.1887861
   6.1988713  73.8578711  72.0065336   5.2027452  74.1179527  73.1164755
   5.0189001  70.7929626  73.5544200   4.9637805  70.6273898  72.6132644
   4.3935056  71.5005659  73.7106390   2.1437246  56.8880512  77.3875455
   1.3769642  56.3338999  77.5332138   2.5547951  56.9602381  78.2489607
  13.9927384  84.8067164  82.2843038  14.6305794  84.6873911  81.5806378
  13.8748227  85.7548008  82.3430990  10.8017090  84.7594592  82.2204562
  10.4635602  84.6435657  81.3325097  11.6706858  84.3585757  82.2005568
   6.6603906  86.6130069  78.2101453   6.0968771  86.5220006  77.4417741
   6.5456301  85.7929973  78.6903946  11.2836873  85.9129444  88.1790768
  11.2725514  85.5182242  87.3071271  11.4457512  85.1795517  88.7724539
   4.2068338  88.1081260  81.0485674   4.9989630  87.7672085  80.6331973
   4.4464988  88.2176235  81.9687827  12.2403464  90.2801036  73.5215918
  11.5891444  90.8655117  73.1349932  13.0347827  90.8107231  73.5810956
   6.1659092  87.3690173  73.9203053   6.9389968  86.8219161  73.7815928
   6.5184490  88.2334423  74.1317514   8.9300341  86.0743404  83.7171311
   9.5263913  85.8499427  83.0028274   8.9875313  85.3328150  84.3196759
   8.5025369  83.5282840  71.5521502   8.7550890  83.0064361  70.7904965
   7.5649928  83.3648985  71.6548186  13.5468652  82.5318618  79.3596246
  14.3331741  82.1138041  79.0086663  13.8107357  83.4364710  79.5277894
  13.7178730  87.9691468  74.0584902  13.0824563  88.0426095  74.7705807
  13.3876136  88.5585067  73.3803982  18.9477079  82.4693851  80.2629224
  19.6802251  81.8993068  80.4967054  18.1916435  82.0815452  80.7035730
   8.2221658  85.4310946  73.7545877   8.1057916  84.7555849  74.4226962
   8.3323918  84.9443319  72.9378030  10.5653199  84.8921093  77.4592567
  10.2011406  84.3651714  78.1705488  11.4220315  84.5019562  77.2859052
  16.4702500  76.1815425  84.7223833  16.1385824  77.0510836  84.4985048
  15.8748113  75.8651709  85.4017863  10.2058686  79.9210992  72.4553915
  10.3733088  80.7891229  72.8224386  10.0155855  80.0838274  71.5315204
  12.9634019  88.3827971  84.1219746  12.6634742  89.2853010  84.0135553
  12.6185079  88.1160154  84.9740898   6.4146501  84.8341768  80.1556450
   5.4896997  84.7017982  80.3634142   6.6630914  85.6135987  80.6526392
  16.3631163  80.9010511  81.8017183  15.4548040  80.8325920  81.5075944
  16.3118759  81.3782456  82.6299008  10.1847907  82.3768650  73.4400582
  10.0647532  82.8225701  74.2786062   9.4900495  82.7253967  72.8814120
   3.7755312  84.4775042  80.9900239   3.9047693  84.7309521  81.9039651
   3.0952763  85.0702750  80.6704894  18.2292809  79.1026950  83.5795057
  17.5867190  79.3959483  82.9334851  17.7247738  78.9879870  84.3848253
  15.8832973  82.8490123  74.2680916  16.7950829  83.0817510  74.0928614
  15.3742620  83.4327167  73.7055995  14.1673741  87.2714751  87.9042209
  14.5757097  86.8297161  87.1596841  13.4451002  86.6967378  88.1576401
  10.5204811  82.2087358  85.2775766  11.3666006  82.6326771  85.4210415
  10.4603448  81.5520982  85.9714329  14.4902555  87.8315941  81.6594497
  13.8611418  87.9961656  80.9570565  14.1028217  88.2457551  82.4305461
  18.3691787  88.7670379  79.0138861  17.6842825  89.1469281  78.4635895
  18.4535637  89.3765706  79.7470809  13.6704256  79.8691726  86.9356939
  13.4265188  80.6233786  86.3991215  13.9464187  80.2477074  87.7704186
  15.6242719  86.4130338  85.6134205  15.8359614  87.0562098  84.9368586
  15.5772467  85.5792655  85.1456135  13.2268948  79.0248159  82.5170777
  12.3653427  79.3229413  82.8087514  13.2531383  79.2418558  81.5851810
  10.0430517  87.5690350  78.9244583  10.5068863  87.8478053  78.1349205
   9.7787315  86.6673794  78.7417673   6.9354598  87.1161831  81.8624346
   7.5055955  87.5449099  81.2241830   7.5262710  86.8344416  82.5608531
   8.9799403  83.6913502  75.7334148   9.6823447  84.1434546  76.2008074
   8.6480032  83.0497321  76.3614041   2.7224737  81.9497055  81.0351281
   1.9323791  82.2054583  80.5591392   3.2135985  82.7645392  81.1403322
  16.7388547  89.2902294  83.7856562  17.5605991  88.8882481  83.5039244
  16.7350950  89.1870528  84.7372678   4.6739483  82.3141634  77.9934758
   3.8770646  82.4260328  78.5118254   4.4465075  82.6528286  77.1275648
  24.8294540  85.6341042  80.1341534  24.0758248  85.0648440  79.9785538
  24.9642081  85.6003707  81.0812168  10.2193168  90.5054445  75.8096253
  10.0838843  91.3505980  76.2381101  10.7602980  90.7073722  75.0462187
   3.6722565  88.0229883  76.3824178   4.1847086  88.8173133  76.5329743
   4.3245278  87.3256173  76.3157779   5.4817450  91.1395639  78.4646931
   5.6584078  92.0613604  78.2767915   6.2774284  90.8254058  78.8941311
   9.6228469  78.0003903  90.0630865  10.3638182  78.6011057  89.9835327
   9.8546391  77.2581541  89.5048907  13.9442882  91.4080811  87.9677996
  13.9261358  92.2289692  87.4758265  14.8662802  91.2834886  88.1928137
  13.5685632  74.0285006  84.3395146  13.2249901  74.9186648  84.2634257
  13.9364594  73.8386664  83.4764731   1.6371482  86.3518537  77.1583749
   2.4746704  86.7615545  76.9417456   1.8149750  85.4117979  77.1283942
  13.5335914  84.0193617  72.8467582  13.0182538  84.7898222  73.0855969
  13.2613223  83.3458754  73.4700643  11.1183025  78.8643318  77.9052820
  10.2624622  78.4750169  77.7258459  11.5309977  78.9435279  77.0452605
  12.6482172  76.3989662  82.3044380  12.1446967  76.3619797  81.4912185
  12.9412779  77.3082404  82.3641036   8.8925058  76.4828391  81.3110561
   9.7578055  76.2871200  80.9516451   8.9602567  76.2538743  82.2379918
  18.5070188  86.7725972  74.7820755  17.7299631  86.4337132  74.3375917
  19.1861669  86.7778595  74.1075720  13.3222217  81.8920710  74.6727363
  13.0172353  82.2066859  75.5237506  14.2752660  81.9702129  74.7154696
  11.7668649  88.0510933  76.3220317  11.2390011  87.3163692  76.0093554
  11.2656152  88.8285609  76.0760285  16.7461495  86.2459953  81.4387363
  16.0885170  86.9359215  81.5267492  17.5501894  86.6356385  81.7821349
   6.4987377  78.7130599  78.6826928   7.0731129  78.4905781  77.9500121
   7.0858359  78.7819294  79.4355529  15.5566954  84.6004326  79.4891305
  16.0698836  85.2334318  79.9913014  16.2068178  84.0005522  79.1234665
   6.8256964  80.7435060  72.7022813   5.9894276  81.0809747  73.0232088
   6.6861734  80.6084040  71.7649950   8.8010045  75.5871848  77.4101998
   8.1474457  75.2720865  76.7858612   8.7590519  74.9647589  78.1361821
   9.9121249  85.8691143  69.3255290   9.0048311  85.6380397  69.5246439
  10.4092281  85.0728762  69.5129271  12.8189328  94.5788650  72.2451976
  12.1451027  94.8820347  72.8536934  13.2055150  95.3817731  71.8957433
  12.0347785  82.0753782  81.7349645  11.1170346  82.2968729  81.5771333
  12.4507929  82.1500092  80.8761353  12.8182833  83.4745197  76.8652325
  13.5654652  83.9866595  76.5559448  13.0874422  83.1529250  77.7256719
  11.0909483  85.9703738  73.8479280  10.1820702  85.6862771  73.9451750
  11.1204567  86.3902817  72.9882587  16.3228750  89.5810328  77.6170447
  15.8691077  88.7401237  77.6735638  15.6922717  90.2171726  77.9545228
  15.2661670  80.5102314  78.8471115  14.5284427  79.9979700  79.1781357
  15.5188443  80.0702695  78.0354392  14.7661690  91.4186824  78.5520265
  15.0584664  91.9791881  77.8332631  15.2760310  91.7115385  79.3073425
  15.3673297  73.2878566  79.4412884  15.6732174  72.4275929  79.1538799
  16.0925902  73.8796186  79.2411878   1.6597653  83.6909252  77.8294482
   1.4622053  83.0978613  77.1045549   1.1044317  83.3861462  78.5470421
   9.6394377  83.5832359  79.9489075   9.6942987  82.6306195  79.8731552
   8.8285579  83.7391798  80.4330374  10.7885571  87.5112482  71.1867358
  10.3505001  86.7948341  70.7272996  11.5296012  87.7388597  70.6252450
   7.5786737  82.2009418  77.7079454   6.7654602  82.5003589  78.1144646
   8.0745731  81.8065107  78.4253936   9.7295315  92.1967175  79.6413719
   9.6871494  92.4228022  78.7122251  10.6458014  91.9630550  79.7899520
  13.1760949  82.6651243  86.5394348  13.5310336  82.8922716  87.3988814
  13.8233080  82.9969620  85.9171603  18.9058685  85.7869679  77.2443677
  18.7676584  85.9771275  76.3164866  18.5494904  86.5489062  77.7011728
   7.0700812  79.7727774  83.3240689   7.7100191  79.6316533  82.6263652
   6.2378342  79.4862287  82.9479291  18.9328065  87.8546206  82.2554948
  19.3664572  87.7621495  83.1038002  19.6459646  87.8303706  81.6174964
   7.8461115  89.0730204  79.4375681   8.6401714  88.5780524  79.2358256
   7.1352808  88.5448067  79.0743387  12.6655960  91.4548300  83.7888049
  12.7192982  92.0239236  84.5565765  11.7970741  91.6250185  83.4242086
   4.1543879  83.2173286  75.5135434   3.2241467  83.1557742  75.7305396
   4.2501351  82.6949239  74.7172075   4.0729428  79.7428099  78.1013676
   4.3336245  80.6573432  77.9922836   4.8946600  79.2752541  78.2510289
   5.5454353  81.1565856  85.2712500   6.2177407  80.9483218  84.6225149
   4.7184140  80.9587942  84.8317733  19.7943615  87.8969906  84.7887834
  19.9879505  88.8015717  85.0347109  19.6944233  87.4377325  85.6226419
  11.4479925  77.7827797  87.2878161  10.8007840  78.4817747  87.1942638
  12.2180941  78.2163941  87.6554409  11.6244060  85.6208562  85.3474981
  12.5536120  85.7719722  85.1743948  11.2035090  85.7092583  84.4923627
  10.4232391  89.6459226  83.1173519  10.2843477  89.2778011  83.9899457
   9.6346988  90.1606866  82.9457476  11.0180543  94.7468323  74.4599055
  11.1932299  94.2756366  75.2744678  10.3313331  95.3734089  74.6880316
  11.9737607  89.0240829  80.5062356  11.6387439  88.9841599  81.4020006
  11.4741552  88.3585545  80.0332767  14.9096798  86.3696863  70.7799416
  14.2925969  85.6443692  70.6832469  14.4413287  87.1306224  70.4366490
   8.5764151  84.1428418  85.5198617   9.2863770  83.5021611  85.4785236
   8.5333459  84.3941313  86.4424798  16.5650930  91.0795772  88.4405196
  16.5063476  90.3954992  87.7735779  16.9670448  91.8214762  87.9885822
   7.2893085  81.1293636  87.3394257   6.7530442  80.6784375  87.9915853
   6.7009794  81.2639545  86.5964721   6.6995344  80.5882288  69.9020720
   5.8224811  80.4671088  69.5382967   7.1753097  79.7968366  69.6499609
  16.5668337  89.0435356  86.6719176  15.6795116  88.7061277  86.7945575
  17.1366888  88.3118387  86.9087941   3.0232206  80.2649644  84.4247251
   2.9390395  79.6575314  83.6897661   2.2014913  80.7558662  84.4256747
   9.8859270  92.9408578  77.1483241   9.1026792  93.4830258  77.2421465
  10.5852015  93.4582558  77.5477482  13.1955920  78.7503207  79.7917446
  13.6924620  77.9973170  79.4718516  12.4242902  78.7867524  79.2260655
  21.0485678  84.4543573  81.4335738  21.0375554  85.3368288  81.0629671
  20.1803057  84.1015124  81.2390275  14.2785701  87.5074895  77.3655870
  13.3441980  87.6276357  77.1960574  14.4562369  86.6047361  77.1015879
   9.7790889  80.8920590  79.5189131   9.4088677  80.3391631  80.2070036
  10.2749982  80.2878724  78.9664131  17.6658252  83.3492214  77.9005904
  18.1318705  84.1820206  77.8266206  18.1165753  82.8837196  78.6051162
  15.7334483  89.6936035  74.8992056  16.0094327  89.5792630  75.8085930
  14.8638982  89.2953520  74.8604229  15.6374915  75.7172801  81.9396805
  14.7237995  75.9477028  82.1079012  16.0668017  75.8011245  82.7910837
  15.4081374  83.9062693  84.4396699  14.7552824  84.1538600  83.7849152
  15.7861754  83.0926831  84.1059176  12.3688548  93.9422386  78.5424869
  12.5510942  93.1244042  79.0052622  13.1921534  94.1590078  78.1049759
  12.7030713  92.8690571  75.8039918  13.2318479  92.3583026  75.1910080
  12.9658933  92.5533101  76.6685451   5.1756223  78.3024581  85.7642237
   5.2397549  79.1639412  85.3519635   5.1123343  77.6898583  85.0314595
   1.4274038  82.1824143  75.3433626   1.7227479  81.2734821  75.2900680
   0.5262074  82.1611882  75.0214628  13.3360117  93.9031407  82.1484034
  13.2111256  93.1021147  81.6394980  13.9939208  94.3977600  81.6598004
   4.9568285  80.2580139  81.3261174   4.2354871  80.8716107  81.1868648
   5.7461541  80.7937904  81.2477820  15.3995025  91.7040427  83.7763584
  14.4525361  91.5845778  83.7041911  15.7477798  90.8162925  83.8589846
   7.7594599  77.5934566  87.6001826   8.2829000  77.8396863  88.3628136
   7.5406932  78.4254601  87.1804964   3.1561880  79.8638241  75.4672951
   2.8274586  78.9835619  75.2848057   3.5101250  79.8085909  76.3549340
  12.4041458  91.4993143  79.9767937  12.2566421  90.5709851  80.1575507
  13.2294952  91.5213234  79.4925012   6.2703703  80.1511210  75.8348429
   6.6099775  80.6797132  75.1127037   6.7175823  80.4891616  76.6106995
  16.0075580  92.3221702  81.0632809  16.9322128  92.1164563  80.9257260
  15.8390884  92.0738103  81.9722151   8.9647144  78.5348261  85.2851497
   8.6243964  77.7356074  85.6872177   8.2586150  78.8349972  84.7128330
   9.6163615  75.6197573  83.7378820  10.4389685  75.1458052  83.6157710
   9.8601679  76.3988057  84.2377506   8.2571850  78.6485832  74.0341721
   8.9780212  79.0267085  73.5305438   7.6337154  79.3674709  74.1376699
  12.4002973  79.3530981  74.9700054  12.6166587  80.2355619  74.6688882
  11.9197040  78.9617194  74.2405696   7.1402194  82.3116694  81.5470798
   6.9946775  82.6256997  82.4395080   6.6627398  82.9301594  80.9941697
   8.9998577  79.3019242  81.5951688   8.9860146  78.4060335  81.2583986
   9.7171005  79.3089906  82.2289974  10.8524708  79.7356582  83.6404815
  10.5942486  80.6573653  83.6389146  10.3209748  79.3387017  84.3305280
  15.7970897  92.8407369  76.4194901  15.9707774  92.2753792  75.6668753
  16.2899788  93.6408264  76.2374391   8.4035473  78.1833622  76.8639258
   8.5251384  77.2550269  77.0630146   8.1137515  78.1972308  75.9517574
  11.2726663  75.8688533  80.0005978  11.2948360  75.9327866  79.0457957
  11.6894722  75.0293041  80.1946484  21.6510288  85.6043792  78.0385201
  22.0941434  84.8551118  77.6404324  20.7736798  85.5953929  77.6558933
  16.7846069  92.1574134  73.5191799  17.4796974  92.7780827  73.7379114
  17.1269219  91.3069485  73.7944177  18.6837492  89.6073839  75.0479130
  19.2088816  89.9461112  74.3228450  18.5959845  88.6720855  74.8642264
  10.3678153  95.6745823  79.4074383   9.9283143  95.1822201  80.1007240
  11.1186270  95.1318790  79.1666458   7.8152025  91.2183832  81.4796685
   7.1932034  90.5554537  81.1798913   8.4856892  91.2444964  80.7970332
  18.3731398  90.2406743  90.3530328  17.5826942  90.2230882  89.8134827
  18.1364753  90.7795037  91.1079364  18.4929273  87.0899209  87.6663056
  18.5427278  86.9249217  88.6078579  18.3843197  86.2226468  87.2760937
   7.3765532  89.7687755  74.9555145   7.5253652  90.4523219  74.3021818
   8.1831975  89.7492845  75.4704601  15.7833036  83.0730137  88.9822363
  16.6842898  82.9336602  88.6906361  15.8581010  83.2384592  89.9220540
  10.1175841  80.4496992  87.8275549   9.2479150  80.7430558  87.5558138
  10.3535321  81.0337437  88.5482813  19.9947470  89.5096151  87.9105078
  19.7032278  89.8726131  88.7468539  19.3819601  88.7963159  87.7318410
  21.1943152  87.0749031  80.4307648  22.0290044  87.5138835  80.5945208
  21.3302281  86.5987684  79.6115894  18.2434658  84.6328766  86.3785136
  18.7188780  84.8256412  85.5703987  17.3200224  84.6887951  86.1328520
   5.1318165  85.7952933  75.9616214   4.8864207  84.8915263  76.1596424
   5.3014079  85.7970083  75.0195692  12.8214875  76.6676609  85.3440970
  13.3396819  77.4037636  85.0187458  12.4670008  76.9740602  86.1787729
   4.4013812  81.5281290  73.4602376   3.7083057  81.6025645  72.8042412
   4.1565564  80.7641634  73.9823893  13.0727469  73.0876892  80.8641866
  13.3529223  72.4200081  81.4902293  13.8578076  73.2805987  80.3516530
  10.8760937  92.2635886  72.4266893  10.3034905  92.8826073  71.9737365
  11.4493731  92.8135247  72.9606815  16.9436327  81.5094526  84.6113441
  17.8953750  81.6092623  84.6325665  16.7739778  80.7172794  85.1211526
  14.9650707  78.5950109  84.7972842  14.3700639  78.8755122  84.1019331
  14.6800404  79.0844010  85.5689583  14.0958197  92.5473036  73.5575475
  15.0288870  92.4818597  73.7608350  14.0081410  93.3829303  73.0990008
  16.7246214  91.8638906  70.5179422  16.6459845  91.5298770  71.4115180
  17.5455881  92.3560674  70.5170895  19.4224405  84.7300645  83.7255741
  19.3900725  83.7916646  83.9115425  20.0325029  84.8084682  82.9921566
  11.2607736  83.5996698  69.7682945  12.2066841  83.4702906  69.8371363
  10.8821981  82.8611360  70.2452373  19.5718894  81.5211689  83.7714024
  19.0557942  80.7370145  83.5843953  20.4558842  81.1930405  83.9360544
  17.2329621  75.2652704  79.7309837  17.0354442  74.9567793  80.6153169
  17.8429326  75.9914343  79.8607767  25.2400955  85.7916652  82.8661778
  25.9704343  85.5301940  83.4269481  24.6307900  85.0545374  82.9063846
  23.3216252  83.9324515  83.4636229  22.5949416  83.7980480  82.8552721
  22.9063539  84.2401343  84.2692947   9.4450653  81.5246675  69.7037830
   8.5382109  81.2279787  69.7800544   9.7226634  81.2276493  68.8372117
  11.0612719  76.0683564  75.8582072  10.2513447  75.7230649  76.2337318
  11.7497136  75.7591108  76.4469683  12.9903267  75.1461611  77.4806368
  13.5434306  75.5657065  78.1396391  13.2273354  74.2197359  77.5229324
   8.2149438  78.3833610  69.8449810   9.0768602  78.7088508  70.1045627
   8.3999782  77.5965106  69.3322875  16.3682074  77.2562136  76.9885033
  15.7880743  77.9146940  76.6063085  16.1018007  76.4339481  76.5772450
  14.8185641  76.6567194  79.1906353  15.3185419  76.7683729  78.3820672
  15.4621249  76.3528247  79.8307161   2.1453596  86.3974203  79.9996013
   2.1224284  86.4961891  79.0477896   2.4554233  87.2439354  80.3213179
  15.1506952  79.4162227  76.0441381  14.2632807  79.7011877  75.8261576
  15.5660941  79.2555990  75.1968658  18.5021488  79.4408748  79.7595720
  19.2781879  79.9305200  80.0320337  17.7769623  79.8666802  80.2167590
  20.9394047  80.1536367  80.8169661  21.5338538  79.9132103  80.1062969
  21.0120631  79.4343498  81.4443197  14.2950166  89.1806901  70.1389401
  14.9986016  89.3856904  70.7547056  13.5712814  89.7483663  70.4038484
  15.1247976  84.9316763  76.2591671  15.0683177  85.3885314  75.4199303
  15.6776318  84.1707447  76.0814514  18.9352782  80.7206495  77.0841790
  18.6789716  80.3203130  77.9149998  18.3105650  81.4350288  76.9591930
  23.2465120  83.4602568  79.5913082  22.6864678  83.5295757  80.3644644
  22.6408623  83.2843552  78.8712578  16.2036863  89.6189431  72.1887861
  17.0382467  89.1870629  72.0065336  16.0421206  89.4471444  73.1164755
  15.8582755  86.1221544  73.5544200  15.8031559  85.9565815  72.6132644
  15.2328811  86.8297577  73.7106390   9.1678881  75.6229653  73.1329519
   9.1557551  76.5671493  73.2897789  10.0602303  75.4399798  72.8388980
   9.0968445  94.2998543  81.2197275   8.1464076  94.3000405  81.1061648
   9.4000931  93.5531278  80.7033310  12.9831000  72.2172430  77.3875455
  12.2163396  71.6630916  77.5332138  13.3941705  72.2894298  78.2489607
  19.3419124  98.8574757  71.5521502  19.5944645  98.3356278  70.7904965
  18.4043683  98.6940903  71.6548186  24.3862407  97.8610536  79.3596246
  25.1725496  97.4429959  79.0086663  24.6501111  98.7656628  79.5277894
  29.7870834  97.7985769  80.2629224  30.5196006  97.2284986  80.4967054
  29.0310190  97.4107369  80.7035730  27.3096254  91.5107343  84.7223833
  26.9779579  92.3802754  84.4985048  26.7141868  91.1943627  85.4017863
  21.0452441  95.2502910  72.4553915  21.2126843  96.1183146  72.8224386
  20.8549610  95.4130192  71.5315204  27.2024918  96.2302429  81.8017183
  26.2941795  96.1617837  81.5075944  27.1512513  96.7074374  82.6299008
  21.0241661  97.7060567  73.4400582  20.9041287  98.1517618  74.2786062
  20.3294250  98.0545885  72.8814120  29.0686564  94.4318867  83.5795057
  28.4260944  94.7251401  82.9334851  28.5641492  94.3171788  84.3848253
  26.7226728  98.1782041  74.2680916  27.6344584  98.4109427  74.0928614
  26.2136375  98.7619085  73.7055995  21.3598565  97.5379275  85.2775766
  22.2059760  97.9618689  85.4210415  21.2997203  96.8812900  85.9714329
  24.5098011  95.1983644  86.9356939  24.2658942  95.9525704  86.3991215
  24.7857941  95.5768991  87.7704186  24.0662702  94.3540077  82.5170777
  23.2047181  94.6521330  82.8087514  24.0925137  94.5710476  81.5851810
  19.8193158  99.0205420  75.7334148  20.5217201  99.4726463  76.2008074
  19.4873786  98.3789238  76.3614041  35.6688294 100.9632960  80.1341534
  34.9152003 100.3940358  79.9785538  35.8035836 100.9295624  81.0812168
  20.4622223  93.3295821  90.0630865  21.2031936  93.9302974  89.9835327
  20.6940146  92.5873459  89.5048907  24.4079386  89.3576924  84.3395146
  24.0643655  90.2478566  84.2634257  24.7758349  89.1678582  83.4764731
  24.3729669  99.3485535  72.8467582  23.8576292 100.1190140  73.0855969
  24.1006977  98.6750671  73.4700643  21.9576780  94.1935236  77.9052820
  21.1018376  93.8042086  77.7258459  22.3703732  94.2727197  77.0452605
  23.4875926  91.7281579  82.3044380  22.9840722  91.6911714  81.4912185
  23.7806533  92.6374322  82.3641036  19.7318812  91.8120309  81.3110561
  20.5971809  91.6163118  80.9516451  19.7996321  91.5830661  82.2379918
  29.3463943 102.1017890  74.7820755  28.5693386 101.7629049  74.3375917
  30.0255424 102.1070513  74.1075720  24.1615972  97.2212627  74.6727363
  23.8566107  97.5358776  75.5237506  25.1146414  97.2994047  74.7154696
  17.3381131  94.0422517  78.6826928  17.9124883  93.8197698  77.9500121
  17.9252114  94.1111211  79.4355529  26.3960709  99.9296244  79.4891305
  26.9092590 100.5626236  79.9913014  27.0461932  99.3297439  79.1234665
  17.6650718  96.0726978  72.7022813  16.8288031  96.4101664  73.0232088
  17.5255488  95.9375958  71.7649950  19.6403799  90.9163766  77.4101998
  18.9868211  90.6012783  76.7858612  19.5984273  90.2939506  78.1361821
  22.8741539  97.4045699  81.7349645  21.9564101  97.6260646  81.5771333
  23.2901683  97.4792010  80.8761353  23.6576587  98.8037115  76.8652325
  24.4048406  99.3158512  76.5559448  23.9268177  98.4821168  77.7256719
  26.1055424  95.8394231  78.8471115  25.3678181  95.3271617  79.1781357
  26.3582198  95.3994613  78.0354392  26.2067052  88.6170483  79.4412884
  26.5125928  87.7567847  79.1538799  26.9319656  89.2088103  79.2411878
  20.4788131  98.9124276  79.9489075  20.5336741  97.9598113  79.8731552
  19.6679333  99.0683715  80.4330374  18.4180491  97.5301336  77.7079454
  17.6048357  97.8295507  78.1144646  18.9139486  97.1357025  78.4253936
  24.0154703  97.9943161  86.5394348  24.3704091  98.2214634  87.3988814
  24.6626834  98.3261537  85.9171603  29.7452440 101.1161596  77.2443677
  29.6070339 101.3063192  76.3164866  29.3888659 101.8780979  77.7011728
  17.9094566  95.1019692  83.3240689  18.5493945  94.9608451  82.6263652
  17.0772097  94.8154205  82.9479291  14.9123182  95.0720017  78.1013676
  15.1730000  95.9865350  77.9922836  15.7340355  94.6044459  78.2510289
  16.3848108  96.4857774  85.2712500  17.0571161  96.2775136  84.6225149
  15.5577894  96.2879860  84.8317733  22.2873680  93.1119715  87.2878161
  21.6401595  93.8109664  87.1942638  23.0574695  93.5455859  87.6554409
  18.1286840  96.4585554  87.3394257  17.5924197  96.0076292  87.9915853
  17.5403548  96.5931463  86.5964721  17.5389099  95.9174205  69.9020720
  16.6618565  95.7963006  69.5382967  18.0146852  95.1260284  69.6499609
  13.8625961  95.5941562  84.4247251  13.7784150  94.9867231  83.6897661
  13.0408667  96.0850580  84.4256747  24.0349675  94.0795125  79.7917446
  24.5318374  93.3265087  79.4718516  23.2636656  94.1159442  79.2260655
  31.8879432  99.7835491  81.4335738  31.8769308 100.6660206  81.0629671
  31.0196812  99.4307042  81.2390275  20.6184644  96.2212508  79.5189131
  20.2482431  95.6683549  80.2070036  21.1143736  95.6170642  78.9664131
  28.5052007  98.6784132  77.9005904  28.9712459  99.5112123  77.8266206
  28.9559507  98.2129113  78.6051162  26.4768670  91.0464719  81.9396805
  25.5631749  91.2768945  82.1079012  26.9061771  91.1303163  82.7910837
  26.2475128  99.2354611  84.4396699  25.5946578  99.4830518  83.7849152
  26.6255508  98.4218749  84.1059176  16.0149977  93.6316499  85.7642237
  16.0791304  94.4931330  85.3519635  15.9517097  93.0190501  85.0314595
  15.7962040  95.5872057  81.3261174  15.0748625  96.2008025  81.1868648
  16.5855295  96.1229822  81.2477820  18.5988353  92.9226484  87.6001826
  19.1222755  93.1688780  88.3628136  18.3800686  93.7546518  87.1804964
  13.9955634  95.1930158  75.4672951  13.6668340  94.3127537  75.2848057
  14.3495005  95.1377827  76.3549340  17.1097457  95.4803128  75.8348429
  17.4493530  96.0089049  75.1127037  17.5569578  95.8183534  76.6106995
  19.8040898  93.8640179  85.2851497  19.4637718  93.0647992  85.6872177
  19.0979904  94.1641890  84.7128330  20.4557370  90.9489491  83.7378820
  21.2783439  90.4749969  83.6157710  20.6995433  91.7279975  84.2377506
  19.0965604  93.9777750  74.0341721  19.8173967  94.3559002  73.5305438
  18.4730909  94.6966626  74.1376699  23.2396727  94.6822899  74.9700054
  23.4560342  95.5647536  74.6688882  22.7590794  94.2909112  74.2405696
  17.9795949  97.6408612  81.5470798  17.8340529  97.9548915  82.4395080
  17.5021152  98.2593512  80.9941697  19.8392332  94.6311160  81.5951688
  19.8253900  93.7352253  81.2583986  20.5564760  94.6381824  82.2289974
  21.6918462  95.0648500  83.6404815  21.4336240  95.9865571  83.6389146
  21.1603503  94.6678935  84.3305280  19.2429227  93.5125540  76.8639258
  19.3645139  92.5842186  77.0630146  18.9531270  93.5264226  75.9517574
  22.1120418  91.1980451  80.0005978  22.1342115  91.2619784  79.0457957
  22.5288477  90.3584959  80.1946484  32.4904042 100.9335710  78.0385201
  32.9335188 100.1843035  77.6404324  31.6130552 100.9245846  77.6558933
  29.3323028 102.4191127  87.6663056  29.3821033 102.2541135  88.6078579
  29.2236951 101.5518386  87.2760937  26.6226790  98.4022055  88.9822363
  27.5236653  98.2628520  88.6906361  26.6974765  98.5676510  89.9220540
  20.9569595  95.7788910  87.8275549  20.0872905  96.0722476  87.5558138
  21.1929076  96.3629355  88.5482813  32.0336907 102.4040948  80.4307648
  32.8683798 102.8430752  80.5945208  32.1696036 101.9279602  79.6115894
  29.0828413  99.9620683  86.3785136  29.5582534 100.1548330  85.5703987
  28.1593978 100.0179869  86.1328520  23.6608629  91.9968527  85.3440970
  24.1790573  92.7329554  85.0187458  23.3063762  92.3032520  86.1787729
  15.2407567  96.8573208  73.4602376  14.5476812  96.9317563  72.8042412
  14.9959319  96.0933552  73.9823893  23.9121223  88.4168809  80.8641866
  24.1922977  87.7491998  81.4902293  24.6971830  88.6097905  80.3516530
  27.7830082  96.8386443  84.6113441  28.7347505  96.9384541  84.6325665
  27.6133532  96.0464712  85.1211526  25.8044461  93.9242027  84.7972842
  25.2094393  94.2047039  84.1019331  25.5194158  94.4135927  85.5689583
  30.2618160 100.0592563  83.7255741  30.2294480  99.1208564  83.9115425
  30.8718783 100.1376600  82.9921566  22.1001490  98.9288616  69.7682945
  23.0460595  98.7994824  69.8371363  21.7215735  98.1903278  70.2452373
  30.4112648  96.8503606  83.7714024  29.8951697  96.0662063  83.5843953
  31.2952597  96.5222323  83.9360544  28.0723375  90.5944622  79.7309837
  27.8748196  90.2859710  80.6153169  28.6823081  91.3206261  79.8607767
  36.0794709 101.1208570  82.8661778  36.8098098 100.8593858  83.4269481
  35.4701655 100.3837292  82.9063846  34.1610007  99.2616432  83.4636229
  33.4343170  99.1272397  82.8552721  33.7457293  99.5693261  84.2692947
  20.2844408  96.8538592  69.7037830  19.3775863  96.5571705  69.7800544
  20.5620389  96.5568410  68.8372117  21.9006473  91.3975482  75.8582072
  21.0907202  91.0522567  76.2337318  22.5890890  91.0883026  76.4469683
  23.8297022  90.4753529  77.4806368  24.3828060  90.8948982  78.1396391
  24.0667108  89.5489277  77.5229324  19.0543192  93.7125528  69.8449810
  19.9162356  94.0380426  70.1045627  19.2393536  92.9257023  69.3322875
  27.2075829  92.5854054  76.9885033  26.6274498  93.2438858  76.6063085
  26.9411761  91.7631399  76.5772450  25.6579395  91.9859112  79.1906353
  26.1579173  92.0975646  78.3820672  26.3015003  91.6820165  79.8307161
  25.9900707  94.7454144  76.0441381  25.1026562  95.0303795  75.8261576
  26.4054696  94.5847908  75.1968658  29.3415243  94.7700665  79.7595720
  30.1175633  95.2597118  80.0320337  28.6163377  95.1958720  80.2167590
  31.7787801  95.4828285  80.8169661  32.3732292  95.2424021  80.1062969
  31.8514385  94.7635415  81.4443197  25.9641730 100.2608680  76.2591671
  25.9076932 100.7177232  75.4199303  26.5170073  99.4999365  76.0814514
  29.7746536  96.0498412  77.0841790  29.5183471  95.6495048  77.9149998
  29.1499404  96.7642206  76.9591930  34.0858874  98.7894485  79.5913082
  33.5258432  98.8587675  80.3644644  33.4802378  98.6135470  78.8712578
  20.0072635  90.9521571  73.1329519  19.9951305  91.8963411  73.2897789
  20.8996057  90.7691716  72.8388980  23.8224755  87.5464347  77.3875455
  23.0557151  86.9922834  77.5332138  24.2335460  87.6186216  78.2489607
  37.0460806 103.9462401  79.4412884  37.3519683 103.0859764  79.1538799
  37.7713411 104.5380021  79.2411878  34.7514978 103.7460727  80.8641866
  35.0316732 103.0783916  81.4902293  35.5365585 103.9389823  80.3516530
  34.6618509 102.8756265  77.3875455  33.8950905 102.3214752  77.5332138
  35.0729214 102.9478134  78.2489607   3.1507032  31.9819329  66.8586840
   2.3970741  31.4126728  66.7030845   3.2854573  31.9481994  67.8057475
   3.5613447  32.1394939  69.5907085   4.2916836  31.8780228  70.1514788
   2.9520393  31.4023661  69.6309153   1.6428744  30.2802802  70.1881536
   0.9161908  30.1458767  69.5798027   1.2276031  30.5879631  70.9938254
   1.5677612  29.8080855  66.3158389   1.0077170  29.8774044  67.0889951
   0.9621115  29.6321840  65.5957885   3.1533630  46.4837369  69.0088344
   3.7912040  46.3644116  68.3051684   3.0354473  47.4318213  69.0676296
   1.4009711  51.9571241  60.2461225   0.7497691  52.5425322  59.8595239
   2.1954074  52.4877436  60.3056262   2.7074899  44.2088823  66.0841552
   3.4937988  43.7908246  65.7331969   2.9713603  45.1134915  66.2523201
   2.8784976  49.6461673  60.7830209   2.2430809  49.7196300  61.4951114
   2.5482383  50.2355272  60.1049288   8.1083326  44.1464056  66.9874531
   8.8408498  43.5763273  67.2212360   7.3522682  43.7585656  67.4281036
   5.6308746  37.8585630  71.4469139   5.2992071  38.7281041  71.2230354
   5.0354360  37.5421914  72.1263170   2.1240266  50.0598176  70.8465052
   1.8240989  50.9623215  70.7380859   1.7791326  49.7930359  71.6986205
   5.5237410  42.5780716  68.5262489   4.6154287  42.5096125  68.2321250
   5.4725006  43.0552661  69.3544315   7.3899056  40.7797155  70.3040363
   6.7473436  41.0729688  69.6580158   6.8853985  40.6650075  71.1093560
   5.0439220  44.5260328  60.9926223   5.9557076  44.7587715  60.8173920
   4.5348867  45.1097372  60.4301301   3.3279988  48.9484956  74.6287515
   3.7363344  48.5067366  73.8842148   2.6057249  48.3737583  74.8821708
   3.6508802  49.5086146  68.3839804   3.0217665  49.6731860  67.6815872
   3.2634464  49.9227756  69.1550768   7.5298034  50.4440584  65.7384168
   6.8449072  50.8239486  65.1881201   7.6141883  51.0535911  66.4716116
   2.8310503  41.5461931  73.6602246   2.5871435  42.3003991  73.1236521
   3.1070433  41.9247278  74.4949493   4.7848966  48.0900543  72.3379511
   4.9965861  48.7332303  71.6613892   4.7378714  47.2562860  71.8701441
   2.3875195  40.7018364  69.2416084   1.5259674  40.9999617  69.5332821
   2.4137629  40.9188763  68.3097116   5.8994794  50.9672499  70.5101869
   6.7212237  50.5652686  70.2284550   5.8957196  50.8640733  71.4617985
  13.9900787  47.3111247  66.8586840  13.2364495  46.7418645  66.7030845
  14.1248328  47.2773912  67.8057475   1.0067891  52.8048216  76.6641902
   0.5631745  52.0184594  76.3462806   1.6685105  52.9927366  75.9985792
   3.1049129  53.0851016  74.6923303   3.0867604  53.9059897  74.2003572
   4.0269049  52.9605091  74.9173444   2.7291878  35.7055211  71.0640453
   2.3856148  36.5956853  70.9879564   3.0970841  35.5156869  70.2010038
   2.6942161  45.6963822  59.5712888   2.1788784  46.4668427  59.8101276
   2.4219469  45.0228959  60.1945950   1.8088419  38.0759866  69.0289686
   1.3053214  38.0390002  68.2157492   2.1019026  38.9852609  69.0886343
   7.6676435  48.4496177  61.5066062   6.8905878  48.1107337  61.0621224
   8.3467916  48.4548800  60.8321027   2.4828464  43.5690915  61.3972669
   2.1778600  43.8837064  62.2482813   3.4358906  43.6472334  61.4400002
   5.9067742  47.9230158  68.1632670   5.2491416  48.6129420  68.2512798
   6.7108141  48.3126590  68.5066656   4.7173201  46.2774531  66.2136611
   5.2305083  46.9104523  66.7158321   5.3674425  45.6775727  65.8479971
   1.9795575  56.2558855  58.9697282   1.3057274  56.5590552  59.5782240
   2.3661397  57.0587936  58.6202740   1.9789079  45.1515402  63.5897632
   2.7260898  45.6636799  63.2804754   2.2480669  44.8299455  64.4502026
   5.4834997  51.2580532  64.3415754   5.0297324  50.4171442  64.3980944
   4.8528964  51.8941931  64.6790534   4.4267917  42.1872518  65.5716421
   3.6890673  41.6749905  65.9026664   4.6794690  41.7472900  64.7599698
   3.9267936  53.0957029  65.2765572   4.2190911  53.6562086  64.5577938
   4.4366557  53.3885590  66.0318731   4.5279544  34.9648770  66.1658191
   4.8338421  34.1046134  65.8784106   5.2532149  35.5566391  65.9657185
   2.3367195  44.3421448  73.2639655   2.6916583  44.5692921  74.1234120
   2.9839326  44.6739825  72.6416910   8.0664932  47.4639884  63.9688984
   7.9282831  47.6541480  63.0410173   7.7101151  48.2259266  64.4257035
   8.0934312  49.5316411  68.9800255   8.5270818  49.4391700  69.8283309
   8.8065893  49.5073911  68.3420271   1.8262207  53.1318505  70.5133356
   1.8799229  53.7009441  71.2811072   0.9576988  53.3020390  70.1487393
   8.9549861  49.5740111  71.5133140   9.1485751  50.4785922  71.7592415
   8.8550480  49.1147530  72.3471725   4.0164970  49.7246854  77.0874021
   3.8650476  49.4957406  76.1704105   4.0069650  50.6817455  77.1005366
   1.1343853  50.7011034  67.2307663   0.7993686  50.6611804  68.1265313
   0.6347799  50.0355750  66.7578073   4.0703045  48.0467068  57.5044723
   3.4532216  47.3213896  57.4077775   3.6019534  48.8076429  57.1611797
   5.7257177  52.7565977  75.1650503   5.6669723  52.0725197  74.4981086
   6.1276695  53.4984967  74.7131129   5.7274584  50.7205561  73.3964483
   4.8401363  50.3831482  73.5190881   6.2973135  49.9888592  73.6333248
   2.3562167  40.4273412  66.5162753   2.8530867  39.6743375  66.1963823
   1.5849149  40.4637729  65.9505962  10.2091925  46.1313778  68.1581044
  10.1981801  47.0138493  67.7874977   9.3409304  45.7785329  67.9635581
   1.7174421  55.2793847  72.5183884   2.4302393  55.9141312  72.4459786
   1.2264450  55.3757713  71.7023886   3.4391948  49.1845100  64.0901176
   2.5048227  49.3046562  63.9205880   3.6168616  48.2817566  63.8261186
   6.8264499  45.0262419  64.6251210   7.2924951  45.8590410  64.5511513
   7.2772000  44.5607400  65.3296469   4.8940730  51.3706240  61.6237362
   5.1700574  51.2562835  62.5331236   4.0245229  50.9723725  61.5849535
   4.7981162  37.3943006  68.6642112   3.8844242  37.6247233  68.8324319
   5.2274263  37.4781450  69.5156144   4.5687620  45.5832898  71.1642006
   3.9159071  45.8308805  70.5094458   4.9468000  44.7697036  70.8304483
   1.5294794  55.6192591  65.2670176   1.7117189  54.8014247  65.7297928
   2.3527780  55.8360283  64.8295066   1.8636960  54.5460776  62.5285224
   2.3924726  54.0353231  61.9155387   2.1265179  54.2303306  63.3930757
   4.2108851  52.4580894  77.7414313   4.7548755  53.0710852  77.2469268
   3.6295695  53.0160472  78.2581326   2.4966364  55.5801612  68.8729341
   2.3717503  54.7791352  68.3640286   3.1545455  56.0747805  68.3843311
   4.5601272  53.3810632  70.5008891   3.6131607  53.2615983  70.4287218
   4.9084045  52.4933130  70.5835152   1.5647705  53.1763348  66.7013243
   1.4172668  52.2480056  66.8820813   2.3901199  53.1983439  66.2170318
   5.1681827  53.9991907  67.7878116   6.0928375  53.7934768  67.6502567
   4.9997130  53.7508308  68.6967457   1.5609220  41.0301186  61.6945360
   1.7772834  41.9125824  61.3934189   1.0803287  40.6387399  60.9651002
   4.9577143  54.5177574  63.1440207   5.1314021  53.9523997  62.3914060
   5.4506035  55.3178469  62.9619697  10.8116534  47.2813997  64.7630507
  11.2547681  46.5321323  64.3649630   9.9343045  47.2724134  64.3804239
   5.9452316  53.8344339  60.2437106   6.6403220  54.4551031  60.4624420
   6.2875466  52.9839690  60.5189484   7.8443739  51.2844044  61.7724436
   8.3695063  51.6231317  61.0473756   7.7566091  50.3491060  61.5887571
   7.5337645  51.9176948  77.0775634   6.7433189  51.9001087  76.5380134
   7.2971000  52.4565242  77.8324671   7.6535520  48.7669414  74.3908363
   7.7033525  48.6019422  75.3323886   7.5449443  47.8996673  74.0006244
   4.9439282  44.7500342  75.7067670   5.8449145  44.6106807  75.4151667
   5.0187257  44.9154797  76.6465847   9.1553717  51.1866356  74.6350384
   8.8638525  51.5496336  75.4713845   8.5425848  50.4733364  74.4563717
  10.3549399  48.7519236  67.1552955  11.1896291  49.1909040  67.3190515
  10.4908528  48.2757889  66.3361200   7.4040905  46.3098970  73.1030442
   7.8795027  46.5026617  72.2949294   6.4806470  46.3658156  72.8573826
   1.9821122  38.3446814  72.0686276   2.5003065  39.0807841  71.7432765
   1.6276254  38.6510807  72.9033035   2.2333716  34.7647097  67.5887173
   2.5135470  34.0970286  68.2147600   3.0184323  34.9576192  67.0761837
   6.1042574  43.1864731  71.3358748   7.0559997  43.2862828  71.3570972
   5.9346025  42.3942999  71.8456832   4.1256954  40.2720314  71.5218149
   3.5306886  40.5525326  70.8264638   3.8406650  40.7614215  72.2934890
   3.2564444  54.2243241  60.2820782   4.1895117  54.1588802  60.4853657
   3.1687657  55.0599507  59.8235314   5.8852461  53.5409111  57.2424729
   5.8066092  53.2068975  58.1360487   6.7062127  54.0330879  57.2416201
   8.5830652  46.4070850  70.4501048   8.5506972  45.4686851  70.6360732
   9.1931276  46.4854887  69.7166873   8.7325140  43.1981894  70.4959331
   8.2164189  42.4140350  70.3089260   9.6165089  42.8700610  70.6605850
   6.3935867  36.9422909  66.4555144   6.1960688  36.6337997  67.3398476
   7.0035573  37.6684548  66.5853073  14.4007202  47.4686857  69.5907085
  15.1310590  47.2072145  70.1514788  13.7914147  46.7315579  69.6309153
  12.4822499  45.6094720  70.1881536  11.7555662  45.4750685  69.5798027
  12.0669786  45.9171548  70.9938254   2.1509514  36.8231816  64.2051675
   2.7040553  37.2427270  64.8641698   2.3879600  35.8967564  64.2474631
   5.5288321  38.9332341  63.7130339   4.9486990  39.5917145  63.3308392
   5.2624254  38.1109686  63.3017757   3.9791887  38.3337399  65.9151660
   4.4791666  38.4453934  65.1065978   4.6227495  38.0298452  66.5552468
   4.3113199  41.0932432  62.7686687   3.4239054  41.3782082  62.5506882
   4.7267188  40.9326195  61.9213964   7.6627735  41.1178953  66.4841027
   8.4388125  41.6075405  66.7565644   6.9375869  41.5437007  66.9412896
  10.1000294  41.8306572  67.5414967  10.6944785  41.5902308  66.8308276
  10.1726877  41.1113702  68.1688504   3.4556412  50.8577106  56.8634707
   4.1592263  51.0627109  57.4792363   2.7319061  51.4253868  57.1283791
   4.2854223  46.6086968  62.9836978   4.2289424  47.0655519  62.1444610
   4.8382565  45.8477652  62.8059820   8.0959029  42.3976699  63.8087097
   7.8395963  41.9973335  64.6395305   7.4711897  43.1120493  63.6837236
  12.4071367  45.1372773  66.3158389  11.8470925  45.2065962  67.0889951
  11.8014870  44.9613757  65.5957885   5.3643110  51.2959636  58.9133167
   6.1988714  50.8640834  58.7310642   5.2027453  51.1241649  59.8410062
   5.0189002  47.7991749  60.2789507   4.9637806  47.6336020  59.3377951
   4.3935057  48.5067782  60.4351697   2.3334909  50.1040661  79.6043070
   3.2026069  50.2781313  79.2429704   1.8541661  50.9235078  79.4818799
   2.1437247  33.8942634  64.1120762   1.3769643  33.3401121  64.2577444
   2.5547952  33.9664503  64.9734914  13.9927385  61.8129287  69.0088344
  14.6305795  61.6936034  68.3051684  13.8748228  62.7610131  69.0676296
  10.8017091  61.7656715  68.9449869  10.4635603  61.6497779  68.0570404
  11.6706859  61.3647880  68.9250875   6.6603907  63.6192191  64.9346760
   6.0968772  63.5282128  64.1663048   6.5456302  62.7992096  65.4149252
  11.2836874  62.9191566  74.9036074  11.2725515  62.5244365  74.0316578
  11.4457514  62.1857639  75.4969846   4.2068339  65.1143383  67.7730980
   4.9989631  64.7734207  67.3577280   4.4464989  65.2238358  68.6933134
  12.2403466  67.2863159  60.2461225  11.5891445  67.8717239  59.8595239
  13.0347828  67.8169354  60.3056262   6.1659093  64.3752296  60.6448359
   6.9389969  63.8281283  60.5061235   6.5184492  65.2396545  60.8562821
   8.0044135  65.7028678  73.8515258   7.7134001  66.6074309  73.7361925
   8.6401120  65.7445206  74.5659328   8.9300342  63.0805527  70.4416618
   9.5263914  62.8561549  69.7273581   8.9875314  62.3390272  71.0442066
   8.5025371  60.5344962  58.2766809   8.7550891  60.0126483  57.5150272
   7.5649930  60.3711108  58.3793493  13.5468653  59.5380740  66.0841552
  14.3331743  59.1200164  65.7331969  13.8107358  60.4426833  66.2523201
  13.7178731  64.9753591  60.7830209  13.0824564  65.0488217  61.4951114
  13.3876137  65.5647190  60.1049288  18.9477081  59.4755974  66.9874531
  19.6802253  58.9055191  67.2212360  18.1916436  59.0877574  67.4281036
   8.2221659  62.4373068  60.4791184   8.1057917  61.7617971  61.1472268
   8.3323919  61.9505442  59.6623337  10.5653200  61.8983215  64.1837873
  10.2011408  61.3713836  64.8950795  11.4220316  61.5081684  64.0104359
  16.4702501  53.1877548  71.4469139  16.1385826  54.0572959  71.2230354
  15.8748114  52.8713832  72.1263170  10.2058687  56.9273115  59.1799222
  10.3733090  57.7953351  59.5469693  10.0155856  57.0900397  58.2560511
  12.9634020  65.3890094  70.8465052  12.6634744  66.2915133  70.7380859
  12.6185080  65.1222277  71.6986205   6.4146502  61.8403891  66.8801757
   5.4896998  61.7080105  67.0879448   6.6630915  62.6198110  67.3771699
  16.3631164  57.9072634  68.5262489  15.4548042  57.8388042  68.2321250
  16.3118760  58.3844579  69.3544315  10.1847908  59.3830772  60.1645889
  10.0647533  59.8287823  61.0031369   9.4900497  59.7316090  59.6059427
   3.7755313  61.4837164  67.7145546   3.9047694  61.7371643  68.6284957
   3.0952764  62.0764872  67.3950201   7.9454800  72.1534414  63.8136020
   7.8678830  73.1042239  63.8924500   7.3416444  71.8080287  64.4710946
  10.4372030  59.3262280  76.4697387   9.6605364  59.8856200  76.4600251
  11.0762593  59.8119063  76.9912257  18.2292811  56.1089072  70.3040363
  17.5867191  56.4021606  69.6580158  17.7247739  55.9941993  71.1093560
  15.8832974  59.8552246  60.9926223  16.7950830  60.0879632  60.8173920
  15.3742621  60.4389290  60.4301301   8.6918402  62.1347733  76.0315354
   9.4333087  62.6732777  75.7550177   7.9855388  62.7614022  76.1886906
  14.1673742  64.2776873  74.6287515  14.5757098  63.8359284  73.8842148
  13.4451003  63.7029501  74.8821708  10.5204812  59.2149480  72.0021072
  11.3666007  59.6388894  72.1455721  10.4603450  58.5583104  72.6959635
  14.4902557  64.8378064  68.3839804  13.8611419  65.0023778  67.6815872
  14.1028219  65.2519674  69.1550768  18.3691789  65.7732502  65.7384168
  17.6842827  66.1531403  65.1881201  18.4535638  66.3827829  66.4716116
  13.6704257  56.8753849  73.6602246  13.4265189  57.6295909  73.1236521
  13.9464188  57.2539196  74.4949493  15.6242720  63.4192461  72.3379511
  15.8359615  64.0624221  71.6613892  15.5772468  62.5854777  71.8701441
  13.2268949  56.0310282  69.2416084  12.3653428  56.3291535  69.5332821
  13.2531384  56.2480680  68.3097116  10.0430519  64.5752472  65.6489889
  10.5068864  64.8540175  64.8594512   9.7787317  63.6735917  65.4662980
   6.9354600  64.1223954  68.5869652   7.5055957  64.5511222  67.9487137
   7.5262711  63.8406538  69.2853838   8.9799405  60.6975624  62.4579454
   9.6823448  61.1496668  62.9253381   8.6480033  60.0559443  63.0859347
   7.4279766  59.2887381  76.8330664   6.7978427  59.9703662  77.0666061
   7.3215854  59.1770463  75.8883802   2.7224739  58.9559177  67.7596588
   1.9323793  59.2116706  67.2836699   3.2135986  59.7707515  67.8648628
  16.7388548  66.2964416  70.5101869  17.5605992  65.8944604  70.2284550
  16.7350951  66.1932650  71.4617985   4.6739484  59.3203756  64.7180065
   3.8770647  59.4322451  65.2363560   4.4465076  59.6590409  63.8520955
  10.5045152  65.8448460  72.6662579  10.5689584  66.3068867  73.5020751
   9.7956075  65.2145825  72.7944889   1.0062442  59.2089668  70.1911579
   1.2570480  60.0936678  70.4569155   1.5421990  59.0294269  69.4186671
  24.8294541  62.6403165  66.8586840  24.0758250  62.0710563  66.7030845
  24.9642082  62.6065829  67.8057475  10.2193169  67.5116567  62.5341560
  10.0838844  68.3568103  62.9626407  10.7602982  67.7135845  61.7707493
   6.7060509  53.5908147  79.1955915   6.3127454  53.0374346  79.8703559
   7.5226649  53.9018725  79.5862432   3.6722567  65.0292005  63.1069485
   4.1847087  65.8235255  63.2575049   4.3245279  64.3318296  63.0403086
   5.4817451  68.1457761  65.1892238   5.6584080  69.0675726  65.0013222
   6.2774285  67.8316181  65.6186618   9.6228470  55.0066026  76.7876171
  10.3638183  55.6073179  76.7080634   9.8546393  54.2643664  76.2294214
   4.7669808  60.1922393  75.0654401   4.6523323  59.2907651  75.3661500
   3.9114326  60.4386090  74.7139218  11.8461646  68.1340134  76.6641902
  11.4025500  67.3476512  76.3462806  12.5078859  68.3219284  75.9985792
   6.6048767  69.6635935  71.1902580   7.1556192  69.5352999  70.4179574
   5.7660243  69.9630824  70.8397473  13.9442884  68.4142934  74.6923303
  13.9261359  69.2351815  74.2003572  14.8662804  68.2897009  74.9173444
  10.4015938  65.9287063  75.5346811  10.9344275  65.1675351  75.3046119
   9.8730019  65.6360715  76.2770966  13.5685633  51.0347129  71.0640453
  13.2249902  51.9248771  70.9879564  13.9364595  50.8448787  70.2010038
   1.6371483  63.3580659  63.8829055   2.4746705  63.7677668  63.6662763
   1.8149751  62.4180102  63.8529249  13.5335915  61.0255740  59.5712888
  13.0182539  61.7960345  59.8101276  13.2613224  60.3520876  60.1945950
  11.1183027  55.8705441  64.6298127  10.2624623  55.4812291  64.4503765
  11.5309978  55.9497402  63.7697912  12.6482173  53.4051784  69.0289686
  12.1446969  53.3681919  68.2157492  12.9412780  54.3144527  69.0886343
   8.8925059  53.4890514  68.0355868   9.7578056  53.2933323  67.6761757
   8.9602568  53.2600866  68.9625225  18.5070190  63.7788095  61.5066062
  17.7299632  63.4399254  61.0621224  19.1861671  63.7840718  60.8321027
  13.3222219  58.8982832  61.3972669  13.0172354  59.2128981  62.2482813
  14.2752661  58.9764252  61.4400002  11.7668651  65.0573056  63.0465623
  11.2390012  64.3225815  62.7338861  11.2656153  65.8347732  62.8005592
  16.7461497  63.2522076  68.1632670  16.0885171  63.9421337  68.2512798
  17.5501896  63.6418508  68.5066656   6.4987378  55.7192722  65.4072235
   7.0731130  55.4967903  64.6745428   7.0858361  55.7881416  66.1600836
  15.5566955  61.6066449  66.2136611  16.0698837  62.2396441  66.7158321
  16.2068179  61.0067644  65.8479971   6.8256965  57.7497183  59.4268120
   5.9894277  58.0871869  59.7477395   6.6861735  57.6146163  58.4895257
   8.8010046  52.5933971  64.1347304   8.1474458  52.2782988  63.5103919
   8.7590520  51.9709711  64.8607127   9.9121251  62.8753266  56.0500596
   9.0048312  62.6442519  56.2491745  10.4092283  62.0790885  56.2374578
  12.8189330  71.5850773  58.9697282  12.1451028  71.8882470  59.5782240
  13.2055152  72.3879853  58.6202740  12.0347786  59.0815904  68.4594952
  11.1170348  59.3030851  68.3016640  12.4507930  59.1562215  67.6006659
  12.8182834  60.4807320  63.5897632  13.5654653  60.9928717  63.2804754
  13.0874423  60.1591373  64.4502026  11.0909484  62.9765861  60.5724586
  10.1820703  62.6924893  60.6697056  11.1204568  63.3964939  59.7127893
  16.3228752  66.5872450  64.3415754  15.8691079  65.7463360  64.3980944
  15.6922718  67.2233849  64.6790534  15.2661671  57.5164436  65.5716421
  14.5284428  57.0041822  65.9026664  15.5188445  57.0764818  64.7599698
  14.7661691  68.4248947  65.2765572  15.0584665  68.9854004  64.5577938
  15.2760311  68.7177508  66.0318731  15.3673298  50.2940688  66.1658191
  15.6732175  49.4338052  65.8784106  16.0925903  50.8858308  65.9657185
   1.6597655  60.6971375  64.5539789   1.4622054  60.1040735  63.8290855
   1.1044318  60.3923585  65.2715727   9.6394378  60.5894481  66.6734382
   9.6942988  59.6368318  66.5976858   8.8285580  60.7453920  67.1575680
  10.7885572  64.5174604  57.9112665  10.3505002  63.8010463  57.4518302
  11.5296013  64.7450719  57.3497756   7.5786738  59.2071541  64.4324761
   6.7654604  59.5065712  64.8389953   8.0745732  58.8127230  65.1499243
   9.7295316  69.2029298  66.3659025   9.6871495  69.4290144  65.4367557
  10.6458015  68.9692673  66.5144826  13.1760950  59.6713365  73.2639655
  13.5310337  59.8984839  74.1234120  13.8233081  60.0031742  72.6416910
  18.9058687  62.7931801  63.9688984  18.7676585  62.9833397  63.0410173
  18.5494906  63.5551184  64.4257035   7.0700813  56.7789897  70.0485996
   7.7100192  56.6378656  69.3508959   6.2378343  56.4924410  69.6724598
  18.9328066  64.8608328  68.9800255  19.3664573  64.7683617  69.8283309
  19.6459647  64.8365829  68.3420271   7.8461117  66.0792327  66.1620988
   8.6401715  65.5842647  65.9603563   7.1352809  65.5510190  65.7988694
  12.6655961  68.4610422  70.5133356  12.7192983  69.0301359  71.2811072
  11.7970743  68.6312307  70.1487393   4.1543880  60.2235409  62.2380741
   3.2241468  60.1619864  62.4550703   4.2501352  59.7011361  61.4417382
   4.0729429  56.7490221  64.8258982   4.3336247  57.6635555  64.7168143
   4.8946602  56.2814664  64.9755595   5.5454355  58.1627979  71.9957807
   6.2177408  57.9545341  71.3470456   4.7184141  57.9650065  71.5563039
  19.7943616  64.9032029  71.5133140  19.9879506  65.8077840  71.7592415
  19.6944234  64.4439448  72.3471725  11.4479927  54.7889920  74.0123468
  10.8007842  55.4879869  73.9187944  12.2180942  55.2226064  74.3799716
  14.8558725  65.0538772  77.0874021  14.7044231  64.8249323  76.1704105
  14.8463404  66.0109373  77.1005366  11.6244061  62.6270684  72.0720288
  12.5536121  62.7781844  71.8989255  11.2035091  62.7154705  71.2168934
  10.4232393  66.6521349  69.8418825  10.2843478  66.2840133  70.7144763
   9.6346989  67.1668988  69.6702783  11.0180545  71.7530445  61.1844362
  11.1932300  71.2818489  61.9989984  10.3313333  72.3796212  61.4125622
  11.9737608  66.0302952  67.2307663  11.6387440  65.9903722  68.1265313
  11.4741554  65.3647668  66.7578073   5.9481852  61.4370582  72.7560244
   5.8101650  60.7050820  73.3571783   6.8586775  61.3479482  72.4744432
  14.9096800  63.3758986  57.5044723  14.2925970  62.6505814  57.4077775
  14.4413288  64.1368346  57.1611797   8.5764153  61.1490541  72.2443924
   9.2863771  60.5083733  72.2030542   8.5333461  61.4003436  73.1670105
  16.5650931  68.0857894  75.1650503  16.5063477  67.4017114  74.4981086
  16.9670450  68.8276884  74.7131129   7.2893086  58.1355759  74.0639563
   6.7530444  57.6846497  74.7161160   6.7009795  58.2701668  73.3210028
   5.5841630  74.9019808  67.9584222   5.8238228  75.5338332  68.6363240
   4.7410826  74.5507848  68.2449581   6.6995345  57.5944410  56.6266027
   5.8224812  57.4733211  56.2628274   7.1753099  56.8030489  56.3744916
  16.5668338  66.0497478  73.3964483  15.6795117  65.7123400  73.5190881
  17.1366890  65.3180509  73.6333248   3.0232208  57.2711767  71.1492558
   2.9390396  56.6637436  70.4142968   2.2014914  57.7620785  71.1502054
  10.0969492  70.7098931  70.3625726  10.0239663  71.5153902  70.8745030
   9.6546885  70.9090896  69.5373747   9.8859271  69.9470701  63.8728547
   9.1026793  70.4892381  63.9666772  10.5852017  70.4644680  64.2722789
  13.1955922  55.7565330  66.5162753  13.6924621  55.0035292  66.1963823
  12.4242903  55.7929647  65.9505962  21.0485679  61.4605696  68.1581044
  21.0375555  62.3430411  67.7874977  20.1803058  61.1077246  67.9635581
  12.5568175  70.6085765  72.5183884  13.2696148  71.2433229  72.4459786
  12.0658204  70.7049631  71.7023886  14.2785702  64.5137017  64.0901176
  13.3441981  64.6338480  63.9205880  14.4562371  63.6109484  63.8261186
   9.7790890  57.8982713  66.2434437   9.4088678  57.3453753  66.9315343
  10.2749983  57.2940847  65.6909437  17.6658254  60.3554337  64.6251210
  18.1318706  61.1882328  64.5511513  18.1165754  59.8899318  65.3296469
   7.6080089  68.3580208  73.3389455   8.3089548  68.9916691  73.4918850
   7.1375204  68.6994940  72.5785095  15.7334485  66.6998158  61.6237362
  16.0094329  66.5854752  62.5331236  14.8638983  66.3015643  61.5849535
  15.6374916  52.7234924  68.6642112  14.7237996  52.9539150  68.8324319
  16.0668018  52.8073368  69.5156144  15.4081375  60.9124816  71.1642006
  14.7552825  61.1600723  70.5094458  15.7861755  60.0988954  70.8304483
  12.3688549  70.9484509  65.2670176  12.5510943  70.1306165  65.7297928
  13.1921535  71.1652201  64.8295066  12.7030714  69.8752694  62.5285224
  13.2318481  69.3645148  61.9155387  12.9658934  69.5595224  63.3930757
  11.4568948  61.6544627  77.6508043  10.7809585  61.5538756  78.3210418
  12.2796582  61.4983840  78.1144040   3.2047807  67.8916563  70.2720558
   3.7901244  67.1460251  70.4048462   3.0072645  68.2020520  71.1557222
   6.0586462  70.9267811  65.2883000   5.3896837  71.4113938  64.8047040
   5.9199332  71.1737031  66.2026379  10.1991731  72.9611554  71.8865659
  10.7510039  73.1243176  72.6514744  10.5397924  73.5515992  71.2145684
   5.1756224  55.3086704  72.4887543   5.2397550  56.1701535  72.0764941
   5.1123344  54.6960705  71.7559902   4.6508497  57.3809836  76.1360578
   5.2780535  56.9986914  76.7498102   3.7936415  57.1624038  76.5016270
  15.0502605  67.7872812  77.7414313  15.5942509  68.4002770  77.2469268
  14.4689450  68.3452390  78.2581326   1.4274039  59.1886265  62.0678933
   1.7227480  58.2796944  62.0145986   0.5262075  59.1674005  61.7459935
  13.3360118  70.9093530  68.8729341  13.2111258  70.1083269  68.3640286
  13.9939209  71.4039723  68.3843311   4.9568286  57.2642262  68.0506481
   4.2354872  57.8778230  67.9113954   5.7461542  57.8000027  67.9723127
  15.3995026  68.7102550  70.5008891  14.4525362  68.5907901  70.4287218
  15.7477800  67.8225048  70.5835152   7.7594600  54.5996689  74.3247133
   8.2829002  54.8458985  75.0873442   7.5406933  55.4316723  73.9050270
   3.1561881  56.8700363  62.1918258   2.8274587  55.9897742  62.0093364
   3.5101252  56.8148032  63.0794647  12.4041460  68.5055266  66.7013243
  12.2566422  67.5771973  66.8820813  13.2294953  68.5275357  66.2170318
   6.2703704  57.1573333  62.5593735   6.6099777  57.6859254  61.8372344
   6.7175825  57.4953739  63.3352302  16.0075582  69.3283825  67.7878116
  16.9322129  69.1226686  67.6502567  15.8390885  69.0800226  68.6967457
   8.9647145  55.5410384  72.0096803   8.6243965  54.7418197  72.4117483
   8.2586151  55.8412095  71.4373637   9.6163617  52.6259696  70.4624126
  10.4389686  52.1520174  70.3403017   9.8601680  53.4050180  70.9622813
   8.2571851  55.6547955  60.7587028   8.9780214  56.0329207  60.2550745
   7.6337155  56.3736831  60.8622006  12.4002974  56.3593104  61.6945360
  12.6166588  57.2417741  61.3934189  11.9197041  55.9679317  60.9651002
   7.1402195  59.3178817  68.2716105   6.9946776  59.6319120  69.1640387
   6.6627399  59.9363717  67.7187004   8.9998578  56.3081365  68.3196995
   8.9860147  55.4122458  67.9829293   9.7171006  56.3152028  68.9535281
  10.8524709  56.7418705  70.3650122  10.5942487  57.6635776  70.3634452
  10.3209749  56.3449139  71.0550586  15.7970898  69.8469492  63.1440207
  15.9707775  69.2815915  62.3914060  16.2899789  70.6470387  62.9619697
   1.6147858  61.8584161  71.2103766   1.0701326  62.6343969  71.3424041
   2.4927207  62.2054966  71.0522888   8.4035474  55.1895745  63.5884565
   8.5251385  54.2612391  63.7875452   8.1137517  55.2034431  62.6762880
  11.2726665  52.8750655  66.7251285  11.2948361  52.9389989  65.7703264
  11.6894724  52.0355164  66.9191791  21.6510289  62.6105915  64.7630507
  22.0941435  61.8613240  64.3649630  20.7736799  62.6016051  64.3804239
  16.7846070  69.1636256  60.2437106  17.4796975  69.7842949  60.4624420
  17.1269220  68.3131608  60.5189484   2.4013879  60.9854057  74.1033923
   1.6595615  61.1336693  74.6898554   2.0806624  61.2462323  73.2400672
  18.6837493  66.6135962  61.7724436  19.2088817  66.9523235  61.0473756
  18.5959846  65.6782977  61.5887571  10.3457542  70.5270036  73.9014313
  10.6544669  70.2819182  74.7737013  11.1433024  70.7316674  73.4133183
  10.3678154  72.6807945  66.1319690   9.9283144  72.1884324  66.8252546
  11.1186271  72.1380913  65.8911765   2.8470493  68.8719486  66.1344318
   3.6728513  68.5723258  65.7542961   2.4964545  68.1027109  66.5834106
   7.8152026  68.2245954  68.2041991   7.1932036  67.5616659  67.9044219
   8.4856893  68.2507086  67.5215639   7.8876554  56.7027742  77.7974497
   7.9364709  57.5789865  77.4152267   8.4299068  56.1605135  77.2246141
  18.3731399  67.2468866  77.0775634  17.5826943  67.2293004  76.5380134
  18.1364754  67.7857159  77.8324671  18.4929275  64.0961332  74.3908363
  18.5427279  63.9311339  75.3323886  18.3843198  63.2288591  74.0006244
   7.3765533  66.7749878  61.6800452   7.5253654  67.4585342  61.0267125
   8.1831977  66.7554968  62.1949908  15.7833037  60.0792260  75.7067670
  16.6842900  59.9398725  75.4151667  15.8581011  60.2446715  76.6465847
  10.1175842  57.4559115  74.5520856   9.2479152  57.7492681  74.2803445
  10.3535323  58.0399560  75.2728120  19.9947471  66.5158274  74.6350384
  19.7032280  66.8788254  75.4713845  19.3819603  65.8025282  74.4563717
  21.1943154  64.0811153  67.1552955  22.0290045  64.5200957  67.3190515
  21.3302282  63.6049807  66.3361200  18.2434660  61.6390888  73.1030442
  18.7188781  61.8318534  72.2949294  17.3200225  61.6950074  72.8573826
   5.1318166  62.8015055  62.6861521   4.8864208  61.8977385  62.8841731
   5.3014081  62.8032206  61.7440999  12.8214876  53.6738732  72.0686276
  13.3396820  54.4099759  71.7432765  12.4670009  53.9802725  72.9033035
   4.4013814  58.5343413  60.1847682   3.7083059  58.6087768  59.5287718
   4.1565566  57.7703757  60.7069199  13.0727470  50.0939014  67.5887173
  13.3529224  49.4262203  68.2147600  13.8578077  50.2868110  67.0761837
  10.8760939  69.2698008  59.1512199  10.3034906  69.8888195  58.6982671
  11.4493732  69.8197370  59.6852121  16.9436329  58.5156648  71.3358748
  17.8953751  58.6154746  71.3570972  16.7739779  57.7234917  71.8456832
  14.9650708  55.6012231  71.5218149  14.3700640  55.8817244  70.8264638
  14.6800405  56.0906132  72.2934890  14.0958199  69.5535158  60.2820782
  15.0288872  69.4880720  60.4853657  14.0081411  70.3891425  59.8235314
  16.7246215  68.8701029  57.2424729  16.6459847  68.5360892  58.1360487
  17.5455882  69.3622797  57.2416201  19.4224406  61.7362768  70.4501048
  19.3900726  60.7978769  70.6360732  20.0325030  61.8146805  69.7166873
  11.2607737  60.6058821  56.4928252  12.2066842  60.4765029  56.5616670
  10.8821982  59.8673483  56.9697680  19.5718895  58.5273811  70.4959331
  19.0557944  57.7432268  70.3089260  20.4558843  58.1992528  70.6605850
  17.2329622  52.2714827  66.4555144  17.0354443  51.9629915  67.3398476
  17.8429327  52.9976466  66.5853073  25.2400956  62.7978775  69.5907085
  25.9704345  62.5364063  70.1514788  24.6307902  62.0607497  69.6309153
  23.3216253  60.9386637  70.1881536  22.5949417  60.8042602  69.5798027
  22.9063540  61.2463466  70.9938254  11.1446430  64.6576567  77.9528909
  12.0649439  64.8355166  78.1468955  11.1096013  63.7132612  77.8008608
   9.4450654  58.5308797  56.4283137   8.5382110  58.2341910  56.5045851
   9.7226635  58.2338615  55.5617423   4.1408502  62.5677602  70.5951690
   4.3594512  63.4994709  70.6139724   4.5534276  62.2085576  71.3806494
  11.0612720  53.0745687  62.5827378  10.2513448  52.7292772  62.9582624
  11.7497137  52.7653231  63.1714990  12.9903268  52.1523734  64.2051675
  13.5434307  52.5719187  64.8641698  13.2273355  51.2259482  64.2474631
   9.0136368  58.1410807  79.9854439   8.9133095  59.0905164  79.9166530
   8.7957910  57.8129046  79.1130509   8.2149439  55.3895733  56.5695116
   9.0768603  55.7150631  56.8290934   8.3999783  54.6027228  56.0568182
  16.3682075  54.2624259  63.7130339  15.7880745  54.9209063  63.3308392
  16.1018008  53.4401604  63.3017757  14.8185642  53.6629317  65.9151660
  15.3185420  53.7745851  65.1065978  15.4621250  53.3590370  66.5552468
   8.8767638  61.5707946  78.8019500   8.3934719  62.3708306  79.0083390
   8.9628577  61.5815891  77.8486944   2.1453597  63.4036326  66.7241320
   2.1224285  63.5024013  65.7723203   2.4554234  64.2501477  67.0458486
   4.8040975  65.4612481  70.8387934   5.7584229  65.4296423  70.7717866
   4.6053499  65.0003105  71.6538160   5.3940357  64.0313597  73.4058732
   6.2133246  64.5257676  73.4293569   5.6677165  63.1145565  73.3776299
  15.1506954  56.4224349  62.7686687  14.2632809  56.7074000  62.5506882
  15.5660943  56.2618113  61.9213964  18.5021490  56.4470870  66.4841027
  19.2781880  56.9367323  66.7565644  17.7769624  56.8728925  66.9412896
  20.9394048  57.1598490  67.5414967  21.5338539  56.9194226  66.8308276
  21.0120632  56.4405620  68.1688504   3.1591204  71.0032100  67.8558132
   3.0245672  70.2432501  67.2896130   2.7423266  71.7273000  67.3886921
  14.2950167  66.1869024  56.8634707  14.9986017  66.3919027  57.4792363
  13.5712816  66.7545786  57.1283791  15.1247977  61.9378885  62.9836978
  15.0683179  62.3947437  62.1444610  15.6776320  61.1769570  62.8059820
  18.9352783  57.7268617  63.8087097  18.6789717  57.3265253  64.6395305
  18.3105651  58.4412411  63.6837236  23.2465121  60.4664690  66.3158389
  22.6864679  60.5357880  67.0889951  22.6408624  60.2905675  65.5957885
   6.3160330  71.9001418  68.0676575   6.1992714  72.8446850  67.9655265
   5.4952776  71.5974979  68.4562374  16.2036864  66.6251553  58.9133167
  17.0382468  66.1932752  58.7310642  16.0421207  66.4533567  59.8410062
  15.8582757  63.1283667  60.2789507  15.8031560  62.9627938  59.3377951
  15.2328812  63.8359699  60.4351697  13.1728664  65.4332578  79.6043070
  14.0419823  65.6073231  79.2429704  12.6935415  66.2526995  79.4818799
   9.1678882  52.6291776  59.8574825   9.1557552  53.5733615  60.0143096
  10.0602304  52.4461921  59.5634286   7.3414844  72.5529679  71.2832503
   8.2442091  72.5853290  71.5998998   7.1152214  71.6230130  71.2978839
   9.0968446  71.3060666  67.9442582   8.1464077  71.3062528  67.8306954
   9.4000932  70.5593401  67.4278616  12.9831001  49.2234552  64.1120762
  12.2163397  48.6693039  64.2577444  13.3941706  49.2956421  64.9734914
   4.9872763  55.5119348  78.2025943   5.8504224  55.1556153  78.4129268
   4.4138173  55.1733243  78.8901348  24.8321139  77.1421204  69.0088344
  25.4699549  77.0227952  68.3051684  24.7141982  78.0902048  69.0676296
  21.6410846  77.0948632  68.9449869  21.3029357  76.9789697  68.0570404
  22.5100614  76.6939798  68.9250875  17.4997661  78.9484109  64.9346760
  16.9362527  78.8574046  64.1663048  17.3850056  78.1284013  65.4149252
  22.1230629  78.2483484  74.9036074  22.1119270  77.8536282  74.0316578
  22.2851268  77.5149557  75.4969846  15.0462093  80.4435300  67.7730980
  15.8383385  80.1026125  67.3577280  15.2858744  80.5530275  68.6933134
  23.0797220  82.6155077  60.2461225  22.4285200  83.2009157  59.8595239
  23.8741583  83.1461271  60.3056262  17.0052847  79.7044214  60.6448359
  17.7783723  79.1573201  60.5061235  17.3578246  80.5688463  60.8562821
  18.8437890  81.0320596  73.8515258  18.5527756  81.9366227  73.7361925
  19.4794874  81.0737124  74.5659328  19.7694097  78.4097444  70.4416618
  20.3657669  78.1853467  69.7273581  19.8269068  77.6682190  71.0442066
  19.3419125  75.8636880  58.2766809  19.5944646  75.3418401  57.5150272
  18.4043684  75.7003025  58.3793493  24.3862408  74.8672658  66.0841552
  25.1725497  74.4492081  65.7331969  24.6501112  75.7718750  66.2523201
  24.5572485  80.3045508  60.7830209  23.9218318  80.3780135  61.4951114
  24.2269892  80.8939107  60.1049288  19.0615414  77.7664986  60.4791184
  18.9451672  77.0909889  61.1472268  19.1717674  77.2797360  59.6623337
  21.4046955  77.2275133  64.1837873  21.0405162  76.7005754  64.8950795
  22.2614071  76.8373602  64.0104359  27.3096255  68.5169465  71.4469139
  26.9779580  69.3864876  71.2230354  26.7141869  68.2005749  72.1263170
  21.0452442  72.2565033  59.1799222  21.2126844  73.1245269  59.5469693
  20.8549611  72.4192314  58.2560511  23.8027775  80.7182011  70.8465052
  23.5028498  81.6207050  70.7380859  23.4578834  80.4514195  71.6986205
  17.2540256  77.1695808  66.8801757  16.3290753  77.0372022  67.0879448
  17.5024670  77.9490028  67.3771699  27.2024919  73.2364552  68.5262489
  26.2941796  73.1679960  68.2321250  27.1512515  73.7136497  69.3544315
  21.0241663  74.7122690  60.1645889  20.9041288  75.1579741  61.0031369
  20.3294251  75.0608008  59.6059427  14.6149067  76.8129082  67.7145546
  14.7441449  77.0663561  68.6284957  13.9346519  77.4056790  67.3950201
  18.7848555  87.4826332  63.8136020  18.7072584  88.4334157  63.8924500
  18.1810198  87.1372204  64.4710946  21.2765785  74.6554197  76.4697387
  20.4999119  75.2148117  76.4600251  21.9156348  75.1410980  76.9912257
  29.0686565  71.4380990  70.3040363  28.4260945  71.7313523  69.6580158
  28.5641494  71.3233910  71.1093560  26.7226729  75.1844163  60.9926223
  27.6344585  75.4171550  60.8173920  26.2136376  75.7681207  60.4301301
  19.5312157  77.4639651  76.0315354  20.2726841  78.0024695  75.7550177
  18.8249142  78.0905939  76.1886906  25.0067496  79.6068791  74.6287515
  25.4150853  79.1651202  73.8842148  24.2844758  79.0321419  74.8821708
  21.3598567  74.5441398  72.0021072  22.2059762  74.9680811  72.1455721
  21.2997204  73.8875022  72.6959635  25.3296311  80.1669982  68.3839804
  24.7005174  80.3315696  67.6815872  24.9421973  80.5811591  69.1550768
  29.2085543  81.1024420  65.7384168  28.5236581  81.4823321  65.1881201
  29.2929392  81.7119746  66.4716116  24.5098012  72.2045766  73.6602246
  24.2658944  72.9587827  73.1236521  24.7857942  72.5831114  74.4949493
  26.4636475  78.7484379  72.3379511  26.6753370  79.3916138  71.6613892
  26.4166223  77.9146695  71.8701441  24.0662704  71.3602199  69.2416084
  23.2047183  71.6583453  69.5332821  24.0925138  71.5772598  68.3097116
  20.8824273  79.9044390  65.6489889  21.3462619  80.1832093  64.8594512
  20.6181071  79.0027834  65.4662980  17.7748354  79.4515871  68.5869652
  18.3449711  79.8803140  67.9487137  18.3656466  79.1698456  69.2853838
  19.8193159  76.0267542  62.4579454  20.5217202  76.4788586  62.9253381
  19.4873788  75.3851361  63.0859347  18.2673521  74.6179299  76.8330664
  17.6372181  75.2995580  77.0666061  18.1609608  74.5062380  75.8883802
  13.5618493  74.2851095  67.7596588  12.7717547  74.5408623  67.2836699
  14.0529740  75.0999433  67.8648628  27.5782303  81.6256334  70.5101869
  28.3999746  81.2236521  70.2284550  27.5744705  81.5224568  71.4617985
  15.5133238  74.6495674  64.7180065  14.7164402  74.7614368  65.2363560
  15.2858831  74.9882326  63.8520955  21.3438906  81.1740377  72.6662579
  21.4083339  81.6360785  73.5020751  20.6349830  80.5437742  72.7944889
  11.8456196  74.5381585  70.1911579  12.0964234  75.4228595  70.4569155
  12.3815744  74.3586187  69.4186671  21.0586924  82.8408485  62.5341560
  20.9232598  83.6860021  62.9626407  21.5996736  83.0427762  61.7707493
  17.5454263  68.9200065  79.1955915  17.1521209  68.3666263  79.8703559
  18.3620404  69.2310643  79.5862432  14.5116321  80.3583923  63.1069485
  15.0240842  81.1527173  63.2575049  15.1639034  79.6610213  63.0403086
  16.3211206  83.4749679  65.1892238  16.4977834  84.3967644  65.0013222
  17.1168039  83.1608098  65.6186618  20.4622224  70.3357944  76.7876171
  21.2031938  70.9365097  76.7080634  20.6940147  69.5935582  76.2294214
  15.6063562  75.5214311  75.0654401  15.4917077  74.6199568  75.3661500
  14.7508080  75.7678008  74.7139218  22.6855400  83.4632051  76.6641902
  22.2419254  82.6768430  76.3462806  23.3472614  83.6511202  75.9985792
  17.4442521  84.9927853  71.1902580  17.9949946  84.8644916  70.4179574
  16.6053997  85.2922742  70.8397473  24.7836638  83.7434851  74.6923303
  24.7655113  84.5643732  74.2003572  25.7056558  83.6188926  74.9173444
  21.2409692  81.2578981  75.5346811  21.7738029  80.4967269  75.3046119
  20.7123773  80.9652633  76.2770966  24.4079387  66.3639047  71.0640453
  24.0643657  67.2540688  70.9879564  24.7758350  66.1740704  70.2010038
  12.4765238  78.6872577  63.8829055  13.3140460  79.0969585  63.6662763
  12.6543506  77.7472019  63.8529249  24.3729670  76.3547658  59.5712888
  23.8576293  77.1252262  59.8101276  24.1006978  75.6812794  60.1945950
  21.9576781  71.1997359  64.6298127  21.1018377  70.8104209  64.4503765
  22.3703733  71.2789319  63.7697912  23.4875928  68.7343702  69.0289686
  22.9840723  68.6973837  68.2157492  23.7806535  69.6436445  69.0886343
  19.7318814  68.8182432  68.0355868  20.5971810  68.6225240  67.6761757
  19.7996322  68.5892783  68.9625225  29.3463944  79.1080012  61.5066062
  28.5693387  78.7691172  61.0621224  30.0255425  79.1132636  60.8321027
  24.1615973  74.2274750  61.3972669  23.8566109  74.5420899  62.2482813
  25.1146415  74.3056170  61.4400002  22.6062405  80.3864973  63.0465623
  22.0783767  79.6517733  62.7338861  22.1049908  81.1639650  62.8005592
  27.5855251  78.5813994  68.1632670  26.9278925  79.2713255  68.2512798
  28.3895650  78.9710426  68.5066656  17.3381133  71.0484639  65.4072235
  17.9124885  70.8259821  64.6745428  17.9252115  71.1173334  66.1600836
  26.3960710  76.9358366  66.2136611  26.9092592  77.5688358  66.7158321
  27.0461934  76.3359562  65.8479971  17.6650720  73.0789100  59.4268120
  16.8288032  73.4163787  59.7477395  17.5255489  72.9438080  58.4895257
  19.6403800  67.9225888  64.1347304  18.9868213  67.6074906  63.5103919
  19.5984274  67.3001629  64.8607127  20.7515005  78.2045183  56.0500596
  19.8442067  77.9734437  56.2491745  21.2486037  77.4082803  56.2374578
  23.6583084  86.9142691  58.9697282  22.9844783  87.2174387  59.5782240
  24.0448906  87.7171771  58.6202740  22.8741541  74.4107822  68.4594952
  21.9564102  74.6322769  68.3016640  23.2901684  74.4854132  67.6006659
  23.6576588  75.8099238  63.5897632  24.4048407  76.3220635  63.2804754
  23.9268178  75.4883290  64.4502026  21.9303239  78.3057778  60.5724586
  21.0214458  78.0216811  60.6697056  21.9598322  78.7256857  59.7127893
  27.1622506  81.9164368  64.3415754  26.7084833  81.0755278  64.3980944
  26.5316473  82.5525766  64.6790534  26.1055426  72.8456354  65.5716421
  25.3678182  72.3333740  65.9026664  26.3582199  72.4056735  64.7599698
  25.6055445  83.7540865  65.2765572  25.8978420  84.3145922  64.5577938
  26.1154066  84.0469426  66.0318731  26.2067053  65.6232606  66.1658191
  26.5125930  64.7629969  65.8784106  26.9319658  66.2150226  65.9657185
  12.4991409  76.0263292  64.5539789  12.3015809  75.4332653  63.8290855
  11.9438073  75.7215503  65.2715727  20.4788133  75.9186399  66.6734382
  20.5336742  74.9660235  66.5976858  19.6679335  76.0745838  67.1575680
  21.6279326  79.8466522  57.9112665  21.1898756  79.1302381  57.4518302
  22.3689767  80.0742637  57.3497756  18.4180493  74.5363459  64.4324761
  17.6048358  74.8357629  64.8389953  18.9139487  74.1419147  65.1499243
  20.5689070  84.5321216  66.3659025  20.5265249  84.7582062  65.4367557
  21.4851769  84.2984590  66.5144826  24.0154704  75.0005283  73.2639655
  24.3704092  75.2276756  74.1234120  24.6626835  75.3323660  72.6416910
  29.7452441  78.1223719  63.9688984  29.6070340  78.3125315  63.0410173
  29.3888660  78.8843102  64.4257035  17.9094567  72.1081814  70.0485996
  18.5493947  71.9670573  69.3508959  17.0772098  71.8216328  69.6724598
  29.7721821  80.1900246  68.9800255  30.2058327  80.0975535  69.8283309
  30.4853402  80.1657746  68.3420271  18.6854871  81.4084245  66.1620988
  19.4795470  80.9134565  65.9603563  17.9746564  80.8802108  65.7988694
  23.5049716  83.7902340  70.5133356  23.5586738  84.3593276  71.2811072
  22.6364497  83.9604225  70.1487393  14.9937635  75.5527326  62.2380741
  14.0635223  75.4911782  62.4550703  15.0895107  75.0303279  61.4417382
  14.9123184  72.0782139  64.8258982  15.1730001  72.9927472  64.7168143
  15.7340356  71.6106582  64.9755595  16.3848109  73.4919896  71.9957807
  17.0571163  73.2837258  71.3470456  15.5577896  73.2941982  71.5563039
  30.6337370  80.2323947  71.5133140  30.8273260  81.1369757  71.7592415
  30.5337989  79.7731366  72.3471725  22.2873681  70.1181837  74.0123468
  21.6401596  70.8171787  73.9187944  23.0574696  70.5517981  74.3799716
  25.6952479  80.3830689  77.0874021  25.5437985  80.1541241  76.1704105
  25.6857159  81.3401291  77.1005366  22.4637815  77.9562602  72.0720288
  23.3929875  78.1073762  71.8989255  22.0428845  78.0446623  71.2168934
  21.2626147  81.9813267  69.8418825  21.1237233  81.6132051  70.7144763
  20.4740743  82.4960906  69.6702783  21.8574299  87.0822363  61.1844362
  22.0326055  86.6110406  61.9989984  21.1707087  87.7088129  61.4125622
  22.8131362  81.3594869  67.2307663  22.4781195  81.3195639  68.1265313
  22.3135308  80.6939585  66.7578073  16.7875606  76.7662499  72.7560244
  16.6495404  76.0342738  73.3571783  17.6980530  76.6771399  72.4744432
  25.7490554  78.7050904  57.5044723  25.1319725  77.9797732  57.4077775
  25.2807042  79.4660264  57.1611797  19.4157907  76.4782459  72.2443924
  20.1257526  75.8375651  72.2030542  19.3727215  76.7295353  73.1670105
  27.4044686  83.4149812  75.1650503  27.3457232  82.7309032  74.4981086
  27.8064204  84.1568802  74.7131129  18.1286841  73.4647677  74.0639563
  17.5924198  73.0138415  74.7161160  17.5403549  73.5993585  73.3210028
  16.4235384  90.2311726  67.9584222  16.6631983  90.8630250  68.6363240
  15.5804581  89.8799766  68.2449581  17.5389100  72.9236328  56.6266027
  16.6618566  72.8025129  56.2628274  18.0146853  72.1322406  56.3744916
  27.4062093  81.3789396  73.3964483  26.5188872  81.0415318  73.5190881
  27.9760644  80.6472427  73.6333248   9.0591240  77.7113488  66.7207534
   9.7462280  77.3975218  66.1328549   8.9039369  78.6154852  66.4474785
  13.8625962  72.6003684  71.1492558  13.7784151  71.9929354  70.4142968
  13.0408669  73.0912703  71.1502054  20.9363246  86.0390848  70.3625726
  20.8633418  86.8445820  70.8745030  20.4940639  86.2382814  69.5373747
  20.7253026  85.2762618  63.8728547  19.9420548  85.8184298  63.9666772
  21.4245771  85.7936598  64.2722789  24.0349676  71.0857248  66.5162753
  24.5318376  70.3327210  66.1963823  23.2636658  71.1221564  65.9505962
  31.8879433  76.7897613  68.1581044  31.8769310  77.6722329  67.7874977
  31.0196813  76.4369164  67.9635581  23.3961930  85.9377682  72.5183884
  24.1089902  86.5725147  72.4459786  22.9051959  86.0341548  71.7023886
  25.1179457  79.8428935  64.0901176  24.1835736  79.9630397  63.9205880
  25.2956125  78.9401402  63.8261186  20.6184645  73.2274631  66.2434437
  20.2482432  72.6745671  66.9315343  21.1143737  72.6232764  65.6909437
  28.5052008  75.6846254  64.6251210  28.9712460  76.5174246  64.5511513
  28.9559509  75.2191236  65.3296469  18.4473843  83.6872126  73.3389455
  19.1483303  84.3208609  73.4918850  17.9768958  84.0286857  72.5785095
  26.5728239  82.0290076  61.6237362  26.8488083  81.9146670  62.5331236
  25.7032738  81.6307560  61.5849535  26.4768671  68.0526841  68.6642112
  25.5631751  68.2831068  68.8324319  26.9061772  68.1365285  69.5156144
  26.2475129  76.2416733  71.1642006  25.5946580  76.4892641  70.5094458
  26.6255509  75.4280871  70.8304483  23.2082303  86.2776426  65.2670176
  23.3904698  85.4598082  65.7297928  24.0315289  86.4944119  64.8295066
  23.5424469  85.2044612  62.5285224  24.0712235  84.6937066  61.9155387
  23.8052688  84.8887142  63.3930757  22.2962702  76.9836544  77.6508043
  21.6203339  76.8830674  78.3210418  23.1190336  76.8275758  78.1144040
  14.0441561  83.2208481  70.2720558  14.6294998  82.4752169  70.4048462
  13.8466400  83.5312438  71.1557222  16.8980217  86.2559728  65.2883000
  16.2290592  86.7405856  64.8047040  16.7593086  86.5028949  66.2026379
   8.6359216  75.7914081  68.9925001   8.6743316  75.2577672  69.7862119
   8.1299509  75.2649287  68.3735978  21.0385485  88.2903472  71.8865659
  21.5903793  88.4535093  72.6514744  21.3791679  88.8807910  71.2145684
  16.0149978  70.6378622  72.4887543  16.0791305  71.4993452  72.0764941
  15.9517099  70.0252623  71.7559902  15.4902251  72.7101754  76.1360578
  16.1174290  72.3278831  76.7498102  14.6330170  72.4915956  76.5016270
  25.8896360  83.1164729  77.7414313  26.4336264  83.7294688  77.2469268
  25.3083204  83.6744308  78.2581326  12.2667794  74.5178183  62.0678933
  12.5621235  73.6088862  62.0145986  11.3655830  74.4965923  61.7459935
  24.1753873  86.2385447  68.8729341  24.0505012  85.4375187  68.3640286
  24.8332964  86.7331641  68.3843311  15.7962041  72.5934180  68.0506481
  15.0748627  73.2070147  67.9113954  16.5855297  73.1291945  67.9723127
  26.2388781  84.0394467  70.5008891  25.2919116  83.9199819  70.4287218
  26.5871554  83.1516965  70.5835152  18.5988354  69.9288606  74.3247133
  19.1222756  70.1750903  75.0873442  18.3800688  70.7608641  73.9050270
  13.9955635  72.1992281  62.1918258  13.6668342  71.3189660  62.0093364
  14.3495006  72.1439950  63.0794647  23.2435214  83.8347184  66.7013243
  23.0960177  82.9063891  66.8820813  24.0688708  83.8567274  66.2170318
  17.1097459  72.4865251  62.5593735  17.4493531  73.0151172  61.8372344
  17.5569579  72.8245657  63.3352302  26.8469336  84.6575742  67.7878116
  27.7715884  84.4518604  67.6502567  26.6784639  84.4092143  68.6967457
  19.8040899  70.8702301  72.0096803  19.4637720  70.0710114  72.4117483
  19.0979906  71.1704012  71.4373637  20.4557371  67.9551614  70.4624126
  21.2783440  67.4812092  70.3403017  20.6995435  68.7342098  70.9622813
  19.0965606  70.9839872  60.7587028  19.8173968  71.3621125  60.2550745
  18.4730910  71.7028749  60.8622006  23.2396729  71.6885021  61.6945360
  23.4560343  72.5709659  61.3934189  22.7590796  71.2971235  60.9651002
  17.9795950  74.6470734  68.2716105  17.8340531  74.9611037  69.1640387
  17.5021154  75.2655635  67.7187004  19.8392333  71.6373282  68.3196995
  19.8253902  70.7414376  67.9829293  20.5564761  71.6443946  68.9535281
  21.6918464  72.0710623  70.3650122  21.4336241  72.9927693  70.3634452
  21.1603504  71.6741057  71.0550586  26.6364652  85.1761410  63.1440207
  26.8101530  84.6107832  62.3914060  27.1293544  85.9762305  62.9619697
  12.4541612  77.1876079  71.2103766  11.9095080  77.9635887  71.3424041
  13.3320962  77.5346883  71.0522888  19.2429229  70.5187663  63.5884565
  19.3645140  69.5904309  63.7875452  18.9531271  70.5326349  62.6762880
  22.1120419  68.2042573  66.7251285  22.1342116  68.2681906  65.7703264
  22.5288478  67.3647082  66.9191791  32.4904043  77.9397833  64.7630507
  32.9335189  77.1905158  64.3649630  31.6130554  77.9307969  64.3804239
  27.6239825  84.4928174  60.2437106  28.3190729  85.1134867  60.4624420
  27.9662975  83.6423525  60.5189484  13.2407634  76.3145975  74.1033923
  12.4989370  76.4628610  74.6898554  12.9200378  76.5754241  73.2400672
  29.5231248  81.9427880  61.7724436  30.0482572  82.2815152  61.0473756
  29.4353600  81.0074895  61.5887571  21.1851297  85.8561953  73.9014313
  21.4938423  85.6111100  74.7737013  21.9826779  86.0608592  73.4133183
  21.2071909  88.0099863  66.1319690  20.7676899  87.5176242  66.8252546
  21.9580026  87.4672831  65.8911765  13.6864248  84.2011404  66.1344318
  14.5122268  83.9015176  65.7542961  13.3358300  83.4319026  66.5834106
  18.6545781  83.5537872  68.2041991  18.0325790  82.8908577  67.9044219
  19.3250648  83.5799004  67.5215639  11.8872853  82.1197730  67.0933251
  11.0504761  81.6919905  66.9117253  11.8596498  82.3130174  68.0304043
  18.7270308  72.0319660  77.7974497  18.7758464  72.9081783  77.4152267
  19.2692822  71.4897053  77.2246141  29.2125154  82.5760783  77.0775634
  28.4220698  82.5584922  76.5380134  28.9758509  83.1149077  77.8324671
  29.3323029  79.4253250  74.3908363  29.3821034  79.2603257  75.3323886
  29.2236952  78.5580509  74.0006244  18.2159288  82.1041795  61.6800452
  18.3647408  82.7877260  61.0267125  19.0225731  82.0846885  62.1949908
  26.6226791  75.4084178  75.7067670  27.5236654  75.2690643  75.4151667
  26.6974766  75.5738633  76.6465847  20.9569597  72.7851032  74.5520856
  20.0872906  73.0784599  74.2803445  21.1929077  73.3691477  75.2728120
  30.8341226  81.8450191  74.6350384  30.5426034  82.2080172  75.4713845
  30.2213357  81.1317199  74.4563717  32.0336908  79.4103071  67.1552955
  32.8683800  79.8492875  67.3190515  32.1696037  78.9341724  66.3361200
  29.0828414  76.9682806  73.1030442  29.5582536  77.1610452  72.2949294
  28.1593979  77.0241992  72.8573826  15.9711921  78.1306973  62.6861521
  15.7257963  77.2269303  62.8841731  16.1407835  78.1324123  61.7440999
  23.6608631  69.0030649  72.0686276  24.1790574  69.7391676  71.7432765
  23.3063763  69.3094643  72.9033035  15.2407568  73.8635331  60.1847682
  14.5476813  73.9379686  59.5287718  14.9959320  73.0995674  60.7069199
  23.9121225  65.4230932  67.5887173  24.1922979  64.7554121  68.2147600
  24.6971832  65.6160028  67.0761837  21.7154693  84.5989926  59.1512199
  21.1428660  85.2180113  58.6982671  22.2887487  85.1489288  59.6852121
  27.7830083  73.8448566  71.3358748  28.7347506  73.9446664  71.3570972
  27.6133533  73.0526834  71.8456832  25.8044463  70.9304149  71.5218149
  25.2094395  71.2109162  70.8264638  25.5194159  71.4198050  72.2934890
  24.9351953  84.8827076  60.2820782  25.8682626  84.8172638  60.4853657
  24.8475166  85.7183343  59.8235314  27.5639970  84.1992946  57.2424729
  27.4853601  83.8652810  58.1360487  28.3849636  84.6914714  57.2416201
  30.2618161  77.0654686  70.4501048  30.2294481  76.1270686  70.6360732
  30.8718785  77.1438722  69.7166873  22.1001492  75.9350739  56.4928252
  23.0460596  75.8056947  56.5616670  21.7215737  75.1965400  56.9697680
  30.4112649  73.8565729  70.4959331  29.8951698  73.0724186  70.3089260
  31.2952598  73.5284446  70.6605850  28.0723376  67.6006745  66.4555144
  27.8748197  67.2921833  67.3398476  28.6823082  68.3268384  66.5853073
  21.9840184  79.9868485  77.9528909  22.9043194  80.1647084  78.1468955
  21.9489767  79.0424530  77.8008608  20.2844409  73.8600715  56.4283137
  19.3775864  73.5633828  56.5045851  20.5620390  73.5630533  55.5617423
  11.2022349  75.1807078  66.8782183  10.8825134  74.3272387  66.5856557
  10.6555777  75.3955657  67.6340151  14.9802257  77.8969519  70.5951690
  15.1988267  78.8286627  70.6139724  15.3928031  77.5377494  71.3806494
  21.9006475  68.4037605  62.5827378  21.0907203  68.0584690  62.9582624
  22.5890892  68.0945148  63.1714990  23.8297023  67.4815651  64.2051675
  24.3828062  67.9011105  64.8641698  24.0667109  66.5551400  64.2474631
  19.8530122  73.4702725  79.9854439  19.7526849  74.4197082  79.9166530
  19.6351664  73.1420964  79.1130509  19.0543194  70.7187650  56.5695116
  19.9162358  71.0442548  56.8290934  19.2393538  69.9319146  56.0568182
  11.0710609  78.8009990  68.8475305  10.3774081  78.3863943  68.3345259
  11.8183600  78.8430526  68.2508724  27.2075830  69.5916177  63.7130339
  26.6274499  70.2500981  63.3308392  26.9411763  68.7693521  63.3017757
  25.6579396  68.9921234  65.9151660  26.1579175  69.1037769  65.1065978
  26.3015004  68.6882287  66.5552468  19.7161392  76.8999864  78.8019500
  19.2328474  77.7000224  79.0083390  19.8022331  76.9107809  77.8486944
  12.9847352  78.7328244  66.7241320  12.9618040  78.8315931  65.7723203
  13.2947988  79.5793394  67.0458486  15.6434730  80.7904399  70.8387934
  16.5977983  80.7588341  70.7717866  15.4447253  80.3295022  71.6538160
  16.2334112  79.3605515  73.4058732  17.0527001  79.8549593  73.4293569
  16.5070920  78.4437483  73.3776299  25.9900708  71.7516267  62.7686687
  25.1026563  72.0365918  62.5506882  26.4054697  71.5910030  61.9213964
  13.9984958  86.3324018  67.8558132  13.8639426  85.5724419  67.2896130
  13.5817021  87.0564918  67.3886921  25.1343921  81.5160942  56.8634707
  25.8379772  81.7210944  57.4792363  24.4106570  82.0837704  57.1283791
  25.9641732  77.2670803  62.9836978  25.9076933  77.7239354  62.1444610
  26.5170074  76.5061488  62.8059820  17.1554084  87.2293335  68.0676575
  17.0386468  88.1738768  67.9655265  16.3346531  86.9266897  68.4562374
  27.0430619  81.9543471  58.9133167  27.8776223  81.5224669  58.7310642
  26.8814962  81.7825485  59.8410062  26.6976511  78.4575584  60.2789507
  26.6425315  78.2919856  59.3377951  26.0722566  79.1651617  60.4351697
  11.4869026  73.6943649  74.1050929  12.1327890  73.1842603  74.5938154
  11.2786177  74.4312330  74.6794354  24.0122418  80.7624496  79.6043070
  24.8813578  80.9365148  79.2429704  23.5329170  81.5818913  79.4818799
  20.0072637  67.9583693  59.8574825  19.9951306  68.9025533  60.0143096
  20.8996058  67.7753839  59.5634286  18.1808598  87.8821597  71.2832503
  19.0835845  87.9145207  71.5998998  17.9545969  86.9522048  71.2978839
  19.9362200  86.6352584  67.9442582  18.9857831  86.6354445  67.8306954
  20.2394687  85.8885318  67.4278616  23.8224756  64.5526470  64.1120762
  23.0557152  63.9984957  64.2577444  24.2335461  64.6248339  64.9734914
  15.8266517  70.8411266  78.2025943  16.6897979  70.4848071  78.4129268
  15.2531928  70.5025160  78.8901348  35.6714894  92.4713122  69.0088344
  36.3093304  92.3519869  68.3051684  35.5535737  93.4193966  69.0676296
  32.4804600  92.4240550  68.9449869  32.1423112  92.3081615  68.0570404
  33.3494368  92.0231715  68.9250875  28.3391416  94.2776027  64.9346760
  27.7756281  94.1865963  64.1663048  28.2243811  93.4575931  65.4149252
  32.9624383  93.5775402  74.9036074  32.9513024  93.1828200  74.0316578
  33.1245023  92.8441474  75.4969846  25.8855848  95.7727218  67.7730980
  26.6777140  95.4318043  67.3577280  26.1252498  95.8822193  68.6933134
  33.9190975  97.9446994  60.2461225  33.2678954  98.5301075  59.8595239
  34.7135337  98.4753189  60.3056262  27.8446602  95.0336131  60.6448359
  28.6177478  94.4865118  60.5061235  28.1972001  95.8980381  60.8562821
  29.6831644  96.3612514  73.8515258  29.3921510  97.2658144  73.7361925
  30.3188629  96.4029041  74.5659328  30.6087851  93.7389362  70.4416618
  31.2051423  93.5145385  69.7273581  30.6662823  92.9974108  71.0442066
  30.1812880  91.1928797  58.2766809  30.4338400  90.6710319  57.5150272
  29.2437439  91.0294943  58.3793493  35.2256162  90.1964576  66.0841552
  36.0119252  89.7783999  65.7331969  35.4894867  91.1010668  66.2523201
  35.3966240  95.6337426  60.7830209  34.7612073  95.7072053  61.4951114
  35.0663646  96.2231025  60.1049288  40.6264590  90.1339809  66.9874531
  41.3589762  89.5639026  67.2212360  39.8703945  89.7461410  67.4281036
  29.9009168  93.0956903  60.4791184  29.7845426  92.4201807  61.1472268
  30.0111428  92.6089277  59.6623337  32.2440709  92.5567051  64.1837873
  31.8798917  92.0297672  64.8950795  33.1007825  92.1665520  64.0104359
  38.1490010  83.8461383  71.4469139  37.8173335  84.7156794  71.2230354
  37.5535623  83.5297667  72.1263170  31.8846196  87.5856950  59.1799222
  32.0520599  88.4537187  59.5469693  31.6943365  87.7484232  58.2560511
  34.6421529  96.0473929  70.8465052  34.3422253  96.9498968  70.7380859
  34.2972589  95.7806112  71.6986205  28.0934011  92.4987726  66.8801757
  27.1684507  92.3663940  67.0879448  28.3418424  93.2781945  67.3771699
  38.0418673  88.5656469  68.5262489  37.1335551  88.4971878  68.2321250
  37.9906269  89.0428414  69.3544315  31.8635417  90.0414608  60.1645889
  31.7435042  90.4871659  61.0031369  31.1688006  90.3899925  59.6059427
  25.4542822  92.1421000  67.7145546  25.5835203  92.3955478  68.6284957
  24.7740273  92.7348708  67.3950201  32.1159539  89.9846115  76.4697387
  31.3392873  90.5440035  76.4600251  32.7550102  90.4702898  76.9912257
  39.9080320  86.7672908  70.3040363  39.2654700  87.0605441  69.6580158
  39.4035248  86.6525828  71.1093560  37.5620483  90.5136081  60.9926223
  38.4738339  90.7463468  60.8173920  37.0530130  91.0973125  60.4301301
  30.3705911  92.7931568  76.0315354  31.1120596  93.3316612  75.7550177
  29.6642897  93.4197857  76.1886906  35.8461251  94.9360709  74.6287515
  36.2544607  94.4943119  73.8842148  35.1238512  94.3613336  74.8821708
  32.1992321  89.8733316  72.0021072  33.0453516  90.2972729  72.1455721
  32.1390959  89.2166940  72.6959635  36.1690066  95.4961899  68.3839804
  35.5398928  95.6607614  67.6815872  35.7815728  95.9103509  69.1550768
  40.0479298  96.4316337  65.7384168  39.3630336  96.8115239  65.1881201
  40.1323147  97.0411664  66.4716116  35.3491766  87.5337684  73.6602246
  35.1052698  88.2879744  73.1236521  35.6251697  87.9123031  74.4949493
  37.3030229  94.0776296  72.3379511  37.5147124  94.7208056  71.6613892
  37.2559977  93.2438613  71.8701441  34.9056458  86.6894117  69.2416084
  34.0440937  86.9875370  69.5332821  34.9318893  86.9064516  68.3097116
  31.7218027  95.2336307  65.6489889  32.1856373  95.5124010  64.8594512
  31.4574826  94.3319752  65.4662980  28.6142109  94.7807789  68.5869652
  29.1843466  95.2095057  67.9487137  29.2050220  94.4990374  69.2853838
  30.6586914  91.3559460  62.4579454  31.3610957  91.8080504  62.9253381
  30.3267542  90.7143279  63.0859347  29.1067275  89.9471216  76.8330664
  28.4765936  90.6287497  77.0666061  29.0003363  89.8354298  75.8883802
  24.4012248  89.6143012  67.7596588  23.6111301  89.8700541  67.2836699
  24.8923495  90.4291350  67.8648628  38.4176057  96.9548252  70.5101869
  39.2393501  96.5528439  70.2284550  38.4138460  96.8516486  71.4617985
  26.3526993  89.9787592  64.7180065  25.5558156  90.0906286  65.2363560
  26.1252585  90.3174244  63.8520955  32.1832661  96.5032295  72.6662579
  32.2477093  96.9652702  73.5020751  31.4743584  95.8729660  72.7944889
  22.6849950  89.8673503  70.1911579  22.9357989  90.7520513  70.4569155
  23.2209499  89.6878104  69.4186671  46.5082050  93.2987000  66.8586840
  45.7545759  92.7294398  66.7030845  46.6429591  93.2649665  67.8057475
  31.8980678  98.1700402  62.5341560  31.7626353  99.0151938  62.9626407
  32.4390491  98.3719680  61.7707493  28.3848018  84.2491982  79.1955915
  27.9914963  83.6958181  79.8703559  29.2014158  84.5602561  79.5862432
  25.3510076  95.6875840  63.1069485  25.8634596  96.4819091  63.2575049
  26.0032788  94.9902131  63.0403086  27.1604960  98.8041597  65.1892238
  27.3371589  99.7259561  65.0013222  27.9561794  98.4900016  65.6186618
  31.3015979  85.6649861  76.7876171  32.0425692  86.2657015  76.7080634
  31.5333902  84.9227499  76.2294214  26.4457317  90.8506229  75.0654401
  26.3310832  89.9491486  75.3661500  25.5901835  91.0969925  74.7139218
  33.5249155  98.7923969  76.6641902  33.0813009  98.0060348  76.3462806
  34.1866368  98.9803119  75.9985792  28.2836276 100.3219771  71.1902580
  28.8343701 100.1936834  70.4179574  27.4447752 100.6214660  70.8397473
  35.6230393  99.0726769  74.6923303  35.6048868  99.8935650  74.2003572
  36.5450313  98.9480844  74.9173444  32.0803447  96.5870898  75.5346811
  32.6131784  95.8259187  75.3046119  31.5517528  96.2944550  76.2770966
  35.2473142  81.6930964  71.0640453  34.9037411  82.5832606  70.9879564
  35.6152104  81.5032622  70.2010038  23.3158992  94.0164495  63.8829055
  24.1534214  94.4261503  63.6662763  23.4937260  93.0763937  63.8529249
  35.2123424  91.6839575  59.5712888  34.6970048  92.4544180  59.8101276
  34.9400733  91.0104712  60.1945950  32.7970535  86.5289276  64.6298127
  31.9412132  86.1396127  64.4503765  33.2097487  86.6081237  63.7697912
  34.3269682  84.0635619  69.0289686  33.8234478  84.0265755  68.2157492
  34.6200289  84.9728362  69.0886343  30.5712568  84.1474349  68.0355868
  31.4365565  83.9517158  67.6761757  30.6390077  83.9184701  68.9625225
  40.1857699  94.4371930  61.5066062  39.4087141  94.0983090  61.0621224
  40.8649180  94.4424553  60.8321027  35.0009728  89.5566668  61.3972669
  34.6959863  89.8712817  62.2482813  35.9540170  89.6348087  61.4400002
  33.4456159  95.7156891  63.0465623  32.9177521  94.9809650  62.7338861
  32.9443662  96.4931567  62.8005592  38.4249006  93.9105911  68.1632670
  37.7672680  94.6005173  68.2512798  39.2289405  94.3002343  68.5066656
  28.1774887  86.3776557  65.4072235  28.7518639  86.1551739  64.6745428
  28.7645870  86.4465252  66.1600836  37.2354464  92.2650284  66.2136611
  37.7486346  92.8980276  66.7158321  37.8855688  91.6651480  65.8479971
  28.5044474  88.4081018  59.4268120  27.6681786  88.7455705  59.7477395
  28.3649244  88.2729998  58.4895257  30.4797555  83.2517806  64.1347304
  29.8261967  82.9366823  63.5103919  30.4378029  82.6293547  64.8607127
  31.5908760  93.5337101  56.0500596  30.6835821  93.3026355  56.2491745
  32.0879792  92.7374720  56.2374578  34.4976839 102.2434608  58.9697282
  33.8238537 102.5466305  59.5782240  34.8842661 103.0463689  58.6202740
  33.7135295  89.7399740  68.4594952  32.7957857  89.9614687  68.3016640
  34.1295439  89.8146050  67.6006659  34.4970343  91.1391155  63.5897632
  35.2442162  91.6512552  63.2804754  34.7661932  90.8175208  64.4502026
  32.7696993  93.6349696  60.5724586  31.8608212  93.3508729  60.6697056
  32.7992077  94.0548775  59.7127893  38.0016261  97.2456285  64.3415754
  37.5478588  96.4047195  64.3980944  37.3710227  97.8817684  64.6790534
  36.9449180  88.1748272  65.5716421  36.2071937  87.6625658  65.9026664
  37.1975954  87.7348653  64.7599698  36.4449200  99.0832782  65.2765572
  36.7372174  99.6437839  64.5577938  36.9547820  99.3761343  66.0318731
  37.0460807  80.9524524  66.1658191  37.3519684  80.0921887  65.8784106
  37.7713412  81.5442144  65.9657185  23.3385163  91.3555210  64.5539789
  23.1409563  90.7624571  63.8290855  22.7831827  91.0507420  65.2715727
  31.3181887  91.2478317  66.6734382  31.3730497  90.2952153  66.5976858
  30.5073089  91.4037756  67.1575680  32.4673081  95.1758440  57.9112665
  32.0292511  94.4594299  57.4518302  33.2083522  95.4034554  57.3497756
  29.2574247  89.8655376  64.4324761  28.4442113  90.1649547  64.8389953
  29.7533241  89.4711065  65.1499243  31.4082825  99.8613133  66.3659025
  31.3659004 100.0873980  65.4367557  32.3245524  99.6276508  66.5144826
  34.8548459  90.3297201  73.2639655  35.2097846  90.5568674  74.1234120
  35.5020590  90.6615578  72.6416910  40.5846196  93.4515637  63.9688984
  40.4464094  93.6417233  63.0410173  40.2282414  94.2135020  64.4257035
  28.7488322  87.4373732  70.0485996  29.3887701  87.2962491  69.3508959
  27.9165852  87.1508245  69.6724598  40.6115575  95.5192164  68.9800255
  41.0452082  95.4267453  69.8283309  41.3247156  95.4949664  68.3420271
  29.5248626  96.7376162  66.1620988  30.3189224  96.2426482  65.9603563
  28.8140318  96.2094025  65.7988694  34.3443470  99.1194258  70.5133356
  34.3980492  99.6885194  71.2811072  33.4758252  99.2896143  70.1487393
  25.8331389  90.8819244  62.2380741  24.9028977  90.8203700  62.4550703
  25.9288861  90.3595197  61.4417382  25.7516938  87.4074057  64.8258982
  26.0123756  88.3219390  64.7168143  26.5734111  86.9398499  64.9755595
  27.2241864  88.8211814  71.9957807  27.8964917  88.6129176  71.3470456
  26.3971650  88.6233900  71.5563039  41.4731125  95.5615864  71.5133140
  41.6667015  96.4661675  71.7592415  41.3731743  95.1023283  72.3471725
  33.1267436  85.4473755  74.0123468  32.4795351  86.1463705  73.9187944
  33.8968451  85.8809899  74.3799716  36.5346234  95.7122607  77.0874021
  36.3831740  95.4833159  76.1704105  36.5250913  96.6693209  77.1005366
  33.3031570  93.2854520  72.0720288  34.2323630  93.4365679  71.8989255
  32.8822600  93.3738541  71.2168934  32.1019902  97.3105184  69.8418825
  31.9630987  96.9423969  70.7144763  31.3134498  97.8252824  69.6702783
  32.6968054 102.4114281  61.1844362  32.8719809 101.9402324  61.9989984
  32.0100842 103.0380047  61.4125622  33.6525117  96.6886787  67.2307663
  33.3174949  96.6487557  68.1265313  33.1529063  96.0231503  66.7578073
  27.6269361  92.0954417  72.7560244  27.4889159  91.3634656  73.3571783
  28.5374284  92.0063317  72.4744432  36.5884309  94.0342821  57.5044723
  35.9713479  93.3089649  57.4077775  36.1200797  94.7952182  57.1611797
  30.2551661  91.8074376  72.2443924  30.9651280  91.1667569  72.2030542
  30.2120970  92.0587271  73.1670105  38.2438440  98.7441730  75.1650503
  38.1850986  98.0600950  74.4981086  38.6457959  99.4860720  74.7131129
  28.9680595  88.7939594  74.0639563  28.4317952  88.3430333  74.7161160
  28.3797304  88.9285503  73.3210028  28.3782854  88.2528246  56.6266027
  27.5012321  88.1317046  56.2628274  28.8540607  87.4614324  56.3744916
  38.2455847  96.7081314  73.3964483  37.3582626  96.3707235  73.5190881
  38.8154399  95.9764345  73.6333248  19.8984995  93.0405405  66.7207534
  20.5856034  92.7267135  66.1328549  19.7433123  93.9446770  66.4474785
  24.7019717  87.9295602  71.1492558  24.6177905  87.3221271  70.4142968
  23.8802423  88.4204620  71.1502054  31.7757001 101.3682766  70.3625726
  31.7027172 102.1737737  70.8745030  31.3334394 101.5674732  69.5373747
  31.5646780 100.6054536  63.8728547  30.7814302 101.1476216  63.9666772
  32.2639526 101.1228516  64.2722789  34.8743431  86.4149165  66.5162753
  35.3712130  85.6619128  66.1963823  34.1030412  86.4513482  65.9505962
  42.7273188  92.1189531  68.1581044  42.7163064  93.0014246  67.7874977
  41.8590567  91.7661082  67.9635581  34.2355684 101.2669600  72.5183884
  34.9483657 101.9017065  72.4459786  33.7445713 101.3633466  71.7023886
  35.9573211  95.1720853  64.0901176  35.0229490  95.2922315  63.9205880
  36.1349880  94.2693319  63.8261186  31.4578399  88.5566548  66.2434437
  31.0876187  88.0037589  66.9315343  31.9537492  87.9524682  65.6909437
  39.3445763  91.0138172  64.6251210  39.8106215  91.8466164  64.5511513
  39.7953263  90.5483154  65.3296469  29.2867598  99.0164043  73.3389455
  29.9877057  99.6500526  73.4918850  28.8162713  99.3578775  72.5785095
  37.4121994  97.3581993  61.6237362  37.6881838  97.2438588  62.5331236
  36.5426492  96.9599478  61.5849535  37.3162425  83.3818759  68.6642112
  36.4025505  83.6122986  68.8324319  37.7455527  83.4657203  69.5156144
  37.0868884  91.5708651  71.1642006  36.4340334  91.8184558  70.5094458
  37.4649264  90.7572789  70.8304483  34.0476058 101.6068344  65.2670176
  34.2298452 100.7890000  65.7297928  34.8709044 101.8236036  64.8295066
  34.3818223 100.5336529  62.5285224  34.9105990 100.0228984  61.9155387
  34.6446443 100.2179059  63.3930757  33.1356457  92.3128462  77.6508043
  32.4597094  92.2122591  78.3210418  33.9584091  92.1567676  78.1144040
  24.8835316  98.5500398  70.2720558  25.4688753  97.8044086  70.4048462
  24.6860154  98.8604355  71.1557222  19.4752971  91.1205999  68.9925001
  19.5137070  90.5869589  69.7862119  18.9693264  90.5941204  68.3735978
  26.8543733  85.9670539  72.4887543  26.9185059  86.8285370  72.0764941
  26.7910853  85.3544541  71.7559902  26.3296006  88.0393672  76.1360578
  26.9568044  87.6570749  76.7498102  25.4723924  87.8207874  76.5016270
  36.7290114  98.4456647  77.7414313  37.2730018  99.0586605  77.2469268
  36.1476959  99.0036225  78.2581326  23.1061548  89.8470101  62.0678933
  23.4014989  88.9380779  62.0145986  22.2049584  89.8257840  61.7459935
  35.0147627 101.5677365  68.8729341  34.8898766 100.7667105  68.3640286
  35.6726718 102.0623558  68.3843311  26.6355795  87.9226097  68.0506481
  25.9142381  88.5362065  67.9113954  27.4249051  88.4583862  67.9723127
  37.0782535  99.3686385  70.5008891  36.1312871  99.2491736  70.4287218
  37.4265309  98.4808883  70.5835152  29.4382109  85.2580524  74.3247133
  29.9616511  85.5042820  75.0873442  29.2194442  86.0900559  73.9050270
  24.8349390  87.5284199  62.1918258  24.5062096  86.6481577  62.0093364
  25.1888761  87.4731867  63.0794647  34.0828969  99.1639101  66.7013243
  33.9353931  98.2355809  66.8820813  34.9082462  99.1859192  66.2170318
  27.9491213  87.8157168  62.5593735  28.2887286  88.3443090  61.8372344
  28.3963333  88.1537574  63.3352302  37.6863091  99.9867660  67.7878116
  38.6109638  99.7810521  67.6502567  37.5178394  99.7384061  68.6967457
  30.6434654  86.1994219  72.0096803  30.3031474  85.4002032  72.4117483
  29.9373660  86.4995930  71.4373637  31.2951126  83.2843531  70.4624126
  32.1177195  82.8104010  70.3403017  31.5389189  84.0634015  70.9622813
  29.9359360  86.3131790  60.7587028  30.6567723  86.6913043  60.2550745
  29.3124664  87.0320667  60.8622006  34.0790483  87.0176939  61.6945360
  34.2954097  87.9001577  61.3934189  33.5984550  86.6263152  60.9651002
  28.8189704  89.9762652  68.2716105  28.6734285  90.2902955  69.1640387
  28.3414908  90.5947552  67.7187004  30.6786087  86.9665200  68.3196995
  30.6647656  86.0706293  67.9829293  31.3958515  86.9735864  68.9535281
  32.5312218  87.4002540  70.3650122  32.2729996  88.3219611  70.3634452
  31.9997258  87.0032975  71.0550586  37.4758407 100.5053327  63.1440207
  37.6495284  99.9399750  62.3914060  37.9687298 101.3054222  62.9619697
  23.2935367  92.5167996  71.2103766  22.7488835  93.2927804  71.3424041
  24.1714716  92.8638801  71.0522888  30.0822983  85.8479580  63.5884565
  30.2038894  84.9196227  63.7875452  29.7925026  85.8618266  62.6762880
  32.9514174  83.5334491  66.7251285  32.9735870  83.5973824  65.7703264
  33.3682233  82.6938999  66.9191791  43.3297798  93.2689750  64.7630507
  43.7728944  92.5197076  64.3649630  42.4524308  93.2599887  64.3804239
  38.4633579  99.8220092  60.2437106  39.1584484 100.4426784  60.4624420
  38.8056729  98.9715443  60.5189484  24.0801388  91.6437893  74.1033923
  23.3383124  91.7920528  74.6898554  23.7594133  91.9046158  73.2400672
  40.3625002  97.2719797  61.7724436  40.8876326  97.6107070  61.0473756
  40.2747355  96.3366813  61.5887571  32.0245051 101.1853871  73.9014313
  32.3332178 100.9403018  74.7737013  32.8220533 101.3900509  73.4133183
  32.0465663 103.3391781  66.1319690  31.6070653 102.8468159  66.8252546
  32.7973780 102.7964748  65.8911765  24.5258002  99.5303321  66.1344318
  25.3516022  99.2307093  65.7542961  24.1752054  98.7610944  66.5834106
  29.4939535  98.8829790  68.2041991  28.8719545  98.2200495  67.9044219
  30.1644402  98.9090922  67.5215639  22.7266607  97.4489648  67.0933251
  21.8898515  97.0211822  66.9117253  22.6990253  97.6422091  68.0304043
  29.5664063  87.3611578  77.7974497  29.6152218  88.2373701  77.4152267
  30.1086577  86.8188971  77.2246141  40.0518908  97.9052701  77.0775634
  39.2614452  97.8876840  76.5380134  39.8152263  98.4440995  77.8324671
  40.1716783  94.7545167  74.3908363  40.2214788  94.5895175  75.3323886
  40.0630707  93.8872426  74.0006244  29.0553042  97.4333713  61.6800452
  29.2041163  98.1169177  61.0267125  29.8619486  97.4138803  62.1949908
  37.4620546  90.7376095  75.7067670  38.3630409  90.5982560  75.4151667
  37.5368520  90.9030550  76.6465847  31.7963351  88.1142950  74.5520856
  30.9266661  88.4076516  74.2803445  32.0322832  88.6983395  75.2728120
  41.6734980  97.1742109  74.6350384  41.3819789  97.5372089  75.4713845
  41.0607112  96.4609117  74.4563717  42.8730663  94.7394989  67.1552955
  43.7077554  95.1784793  67.3190515  43.0089791  94.2633642  66.3361200
  39.9222169  92.2974723  73.1030442  40.3976290  92.4902370  72.2949294
  38.9987734  92.3533909  72.8573826  26.8105675  93.4598891  62.6861521
  26.5651717  92.5561221  62.8841731  26.9801590  93.4616041  61.7440999
  34.5002385  84.3322567  72.0686276  35.0184329  85.0683594  71.7432765
  34.1457518  84.6386560  72.9033035  26.0801323  89.1927248  60.1847682
  25.3870568  89.2671603  59.5287718  25.8353075  88.4287592  60.7069199
  34.7514979  80.7522850  67.5887173  35.0316733  80.0846039  68.2147600
  35.5365586  80.9451945  67.0761837  32.5548448  99.9281843  59.1512199
  31.9822415 100.5472031  58.6982671  33.1281241 100.4781205  59.6852121
  38.6223838  89.1740484  71.3358748  39.5741260  89.2738581  71.3570972
  38.4527288  88.3818752  71.8456832  36.6438217  86.2596067  71.5218149
  36.0488149  86.5401080  70.8264638  36.3587914  86.7489968  72.2934890
  35.7745708 100.2118994  60.2820782  36.7076381 100.1464555  60.4853657
  35.6868920 101.0475260  59.8235314  38.4033724  99.5284864  57.2424729
  38.3247356  99.1944728  58.1360487  39.2243391 100.0206632  57.2416201
  41.1011915  92.3946603  70.4501048  41.0688235  91.4562604  70.6360732
  41.7112539  92.4730640  69.7166873  32.9395246  91.2642656  56.4928252
  33.8854351  91.1348864  56.5616670  32.5609491  90.5257318  56.9697680
  41.2506404  89.1857647  70.4959331  40.7345452  88.4016103  70.3089260
  42.1346352  88.8576363  70.6605850  38.9117131  82.9298662  66.4555144
  38.7141952  82.6213750  67.3398476  39.5216836  83.6560301  66.5853073
  46.9188465  93.4562610  69.5907085  47.6491854  93.1947898  70.1514788
  46.3095411  92.7191332  69.6309153  45.0003762  91.5970473  70.1881536
  44.2736926  91.4626438  69.5798027  44.5851049  91.9047301  70.9938254
  32.8233939  95.3160402  77.9528909  33.7436948  95.4939001  78.1468955
  32.7883522  94.3716448  77.8008608  31.1238163  89.1892633  56.4283137
  30.2169619  88.8925745  56.5045851  31.4014144  88.8922451  55.5617423
  22.0416104  90.5098996  66.8782183  21.7218888  89.6564304  66.5856557
  21.4949532  90.7247574  67.6340151  25.8196011  93.2261437  70.5951690
  26.0382021  94.1578545  70.6139724  26.2321785  92.8669411  71.3806494
  32.7400229  83.7329522  62.5827378  31.9300957  83.3876607  62.9582624
  33.4284646  83.4237066  63.1714990  34.6690777  82.8107569  64.2051675
  35.2221816  83.2303023  64.8641698  34.9060864  81.8843317  64.2474631
  30.6923877  88.7994643  79.9854439  30.5920604  89.7489000  79.9166530
  30.4745419  88.4712882  79.1130509  29.8936948  86.0479568  56.5695116
  30.7556112  86.3734466  56.8290934  30.0787292  85.2611064  56.0568182
  21.9104364  94.1301908  68.8475305  21.2167835  93.7155860  68.3345259
  22.6577355  94.1722444  68.2508724  38.0469584  84.9208094  63.7130339
  37.4668254  85.5792898  63.3308392  37.7805517  84.0985439  63.3017757
  36.4973151  84.3213152  65.9151660  36.9972929  84.4329687  65.1065978
  37.1408759  84.0174205  66.5552468  30.5555147  92.2291782  78.8019500
  30.0722228  93.0292142  79.0083390  30.6416086  92.2399727  77.8486944
  23.8241106  94.0620161  66.7241320  23.8011794  94.1607849  65.7723203
  24.1341743  94.9085312  67.0458486  26.4828484  96.1196316  70.8387934
  27.4371738  96.0880259  70.7717866  26.2841008  95.6586940  71.6538160
  27.0727866  94.6897432  73.4058732  27.8920755  95.1841511  73.4293569
  27.3464674  93.7729401  73.3776299  36.8294462  87.0808185  62.7686687
  35.9420318  87.3657835  62.5506882  37.2448452  86.9201948  61.9213964
  40.1808999  87.1054706  66.4841027  40.9569389  87.5951158  66.7565644
  39.4557133  87.5312760  66.9412896  42.6181557  87.8182325  67.5414967
  43.2126048  87.5778061  66.8308276  42.6908141  87.0989455  68.1688504
  35.9737676  96.8452859  56.8634707  36.6773526  97.0502862  57.4792363
  35.2500325  97.4129621  57.1283791  36.8035486  92.5962721  62.9836978
  36.7470688  93.0531272  62.1444610  37.3563829  91.8353405  62.8059820
  40.6140292  88.3852452  63.8087097  40.3577226  87.9849088  64.6395305
  39.9893160  89.0996246  63.6837236  44.9252630  91.1248526  66.3158389
  44.3652188  91.1941715  67.0889951  44.3196133  90.9489510  65.5957885
  37.8824373  97.2835389  58.9133167  38.7169977  96.8516587  58.7310642
  37.7208716  97.1117402  59.8410062  37.5370266  93.7867502  60.2789507
  37.4819069  93.6211773  59.3377951  36.9116321  94.4943535  60.4351697
  22.3262781  89.0235566  74.1050929  22.9721644  88.5134520  74.5938154
  22.1179932  89.7604248  74.6794354  34.8516173  96.0916414  79.6043070
  35.7207332  96.2657066  79.2429704  34.3722924  96.9110831  79.4818799
  30.8466391  83.2875611  59.8574825  30.8345061  84.2317451  60.0143096
  31.7389813  83.1045756  59.5634286  30.7755955 101.9644501  67.9442582
  29.8251586 101.9646363  67.8306954  31.0788441 101.2177236  67.4278616
  34.6618510  79.8818388  64.1120762  33.8950906  79.3276874  64.2577444
  35.0729215  79.9540256  64.9734914  26.6660272  86.1703183  78.2025943
  27.5291733  85.8139988  78.4129268  26.0925682  85.8317078  78.8901348
  41.0206634 106.5220715  58.2766809  41.2732155 106.0002236  57.5150272
  40.0831193 106.3586861  58.3793493  46.0649917 105.5256494  66.0841552
  46.8513006 105.1075917  65.7331969  46.3288621 106.4302586  66.2523201
  51.4658344 105.4631727  66.9874531  52.1983516 104.8930944  67.2212360
  50.7097700 105.0753327  67.4281036  48.9883764  99.1753301  71.4469139
  48.6567089 100.0448712  71.2230354  48.3929378  98.8589585  72.1263170
  42.7239951 102.9148868  59.1799222  42.8914353 103.7829104  59.5469693
  42.5337120 103.0776150  58.2560511  48.8812428 103.8948387  68.5262489
  47.9729305 103.8263795  68.2321250  48.8300024 104.3720332  69.3544315
  42.7029172 105.3706525  60.1645889  42.5828797 105.8163576  61.0031369
  42.0081760 105.7191843  59.6059427  42.9553294 105.3138033  76.4697387
  42.1786628 105.8731953  76.4600251  43.5943857 105.7994816  76.9912257
  50.7474074 102.0964825  70.3040363  50.1048454 102.3897359  69.6580158
  50.2429003 101.9817746  71.1093560  48.4014238 105.8427999  60.9926223
  49.3132094 106.0755385  60.8173920  47.8923885 106.4265043  60.4301301
  43.0386076 105.2025233  72.0021072  43.8847271 105.6264647  72.1455721
  42.9784713 104.5458858  72.6959635  46.1885521 102.8629602  73.6602246
  45.9446453 103.6171662  73.1236521  46.4645451 103.2414949  74.4949493
  45.7450213 102.0186035  69.2416084  44.8834692 102.3167288  69.5332821
  45.7712647 102.2356433  68.3097116  41.4980668 106.6851378  62.4579454
  42.2004711 107.1372421  62.9253381  41.1661297 106.0435196  63.0859347
  39.9461030 105.2763134  76.8330664  39.3159690 105.9579415  77.0666061
  39.8397117 105.1646216  75.8883802  57.3475805 108.6278918  66.8586840
  56.5939513 108.0586316  66.7030845  57.4823346 108.5941582  67.8057475
  39.2241772  99.5783900  79.1955915  38.8308718  99.0250099  79.8703559
  40.0407913  99.8894478  79.5862432  42.1409733 100.9941779  76.7876171
  42.8819447 101.5948932  76.7080634  42.3727656 100.2519417  76.2294214
  46.0866896  97.0222882  71.0640453  45.7431166  97.9124524  70.9879564
  46.4545859  96.8324540  70.2010038  46.0517179 107.0131493  59.5712888
  45.5363802 107.7836098  59.8101276  45.7794487 106.3396629  60.1945950
  43.6364290 101.8581194  64.6298127  42.7805886 101.4688044  64.4503765
  44.0491242 101.9373155  63.7697912  45.1663437  99.3927537  69.0289686
  44.6628232  99.3557672  68.2157492  45.4594043 100.3020280  69.0886343
  41.4106323  99.4766267  68.0355868  42.2759319  99.2809076  67.6761757
  41.4783831  99.2476619  68.9625225  51.0251453 109.7663848  61.5066062
  50.2480896 109.4275007  61.0621224  51.7042934 109.7716471  60.8321027
  45.8403482 104.8858585  61.3972669  45.5353618 105.2004734  62.2482813
  46.7933924 104.9640005  61.4400002  39.0168642 101.7068475  65.4072235
  39.5912393 101.4843656  64.6745428  39.6039624 101.7757169  66.1600836
  48.0748219 107.5942202  66.2136611  48.5880101 108.2272194  66.7158321
  48.7249443 106.9943397  65.8479971  39.3438229 103.7372936  59.4268120
  38.5075541 104.0747622  59.7477395  39.2042998 103.6021916  58.4895257
  41.3191309  98.5809724  64.1347304  40.6655722  98.2658741  63.5103919
  41.2771783  97.9585464  64.8607127  44.5529050 105.0691657  68.4594952
  43.6351611 105.2906604  68.3016640  44.9689193 105.1437968  67.6006659
  45.3364097 106.4683073  63.5897632  46.0835916 106.9804470  63.2804754
  45.6055687 106.1467126  64.4502026  47.7842935 103.5040189  65.5716421
  47.0465691 102.9917575  65.9026664  48.0369708 103.0640571  64.7599698
  47.8854562  96.2816441  66.1658191  48.1913439  95.4213805  65.8784106
  48.6107167  96.8734061  65.9657185  42.1575642 106.5770234  66.6734382
  42.2124251 105.6244071  66.5976858  41.3466844 106.7329673  67.1575680
  40.0968002 105.1947294  64.4324761  39.2835867 105.4941465  64.8389953
  40.5926996 104.8002983  65.1499243  45.6942213 105.6589118  73.2639655
  46.0491601 105.8860592  74.1234120  46.3414344 105.9907495  72.6416910
  51.4239950 108.7807554  63.9688984  51.2857849 108.9709150  63.0410173
  51.0676169 109.5426937  64.4257035  39.5882076 102.7665650  70.0485996
  40.2281456 102.6254409  69.3508959  38.7559607 102.4800163  69.6724598
  36.5910693 102.7365975  64.8258982  36.8517510 103.6511308  64.7168143
  37.4127865 102.2690417  64.9755595  38.0635618 104.1503732  71.9957807
  38.7358671 103.9421094  71.3470456  37.2365405 103.9525818  71.5563039
  43.9661190 100.7765673  74.0123468  43.3189105 101.4755622  73.9187944
  44.7362205 101.2101817  74.3799716  39.8074350 104.1231512  74.0639563
  39.2711707 103.6722250  74.7161160  39.2191058 104.2577421  73.3210028
  39.2176609 103.5820163  56.6266027  38.3406075 103.4608964  56.2628274
  39.6934362 102.7906242  56.3744916  35.5413471 103.2587520  71.1492558
  35.4571660 102.6513189  70.4142968  34.7196178 103.7496538  71.1502054
  45.7137185 101.7441083  66.5162753  46.2105885 100.9911045  66.1963823
  44.9424167 101.7805400  65.9505962  53.5666942 107.4481449  68.1581044
  53.5556819 108.3306164  67.7874977  52.6984322 107.0952999  67.9635581
  42.2972154 103.8858466  66.2434437  41.9269941 103.3329506  66.9315343
  42.7931246 103.2816600  65.6909437  50.1839517 106.3430090  64.6251210
  50.6499969 107.1758081  64.5511513  50.6347018 105.8775071  65.3296469
  48.1556180  98.7110677  68.6642112  47.2419260  98.9414903  68.8324319
  48.5849281  98.7949121  69.5156144  47.9262638 106.9000569  71.1642006
  47.2734089 107.1476476  70.5094458  48.3043018 106.0864707  70.8304483
  43.9750211 107.6420380  77.6508043  43.2990848 107.5414509  78.3210418
  44.7977845 107.4859593  78.1144040  37.6937487 101.2962457  72.4887543
  37.7578814 102.1577288  72.0764941  37.6304608 100.6836459  71.7559902
  37.1689760 103.3685589  76.1360578  37.7961799 102.9862667  76.7498102
  36.3117679 103.1499791  76.5016270  37.4749550 103.2518015  68.0506481
  36.7536136 103.8653983  67.9113954  38.2642806 103.7875780  67.9723127
  40.2775863 100.5872442  74.3247133  40.8010265 100.8334738  75.0873442
  40.0588197 101.4192476  73.9050270  35.6743144 102.8576116  62.1918258
  35.3455851 101.9773495  62.0093364  36.0282515 102.8023785  63.0794647
  38.7884968 103.1449086  62.5593735  39.1281040 103.6735007  61.8372344
  39.2357088 103.4829492  63.3352302  41.4828408 101.5286137  72.0096803
  41.1425229 100.7293950  72.4117483  40.7767415 101.8287848  71.4373637
  42.1344880  98.6135449  70.4624126  42.9570949  98.1395927  70.3403017
  42.3782944  99.3925933  70.9622813  40.7753115 101.6423708  60.7587028
  41.4961477 102.0204960  60.2550745  40.1518419 102.3612584  60.8622006
  44.9184238 102.3468857  61.6945360  45.1347852 103.2293494  61.3934189
  44.4378305 101.9555070  60.9651002  39.6583459 105.3054570  68.2716105
  39.5128040 105.6194873  69.1640387  39.1808663 105.9239470  67.7187004
  41.5179842 102.2957118  68.3196995  41.5041411 101.3998211  67.9829293
  42.2352270 102.3027781  68.9535281  43.3705973 102.7294458  70.3650122
  43.1123750 103.6511529  70.3634452  42.8391013 102.3324892  71.0550586
  40.9216738 101.1771498  63.5884565  41.0432649 100.2488144  63.7875452
  40.6318780 101.1910184  62.6762880  43.7907928  98.8626408  66.7251285
  43.8129625  98.9265742  65.7703264  44.2075987  98.0230917  66.9191791
  54.1691552 108.5981668  64.7630507  54.6122698 107.8488993  64.3649630
  53.2918063 108.5891804  64.3804239  40.4057817 102.6903495  77.7974497
  40.4545973 103.5665618  77.4152267  40.9480331 102.1480888  77.2246141
  51.0110538 110.0837085  74.3908363  51.0608543 109.9187092  75.3323886
  50.9024461 109.2164344  74.0006244  48.3014300 106.0668013  75.7067670
  49.2024163 105.9274478  75.4151667  48.3762275 106.2322468  76.6465847
  42.6357106 103.4434868  74.5520856  41.7660415 103.7368434  74.2803445
  42.8716586 104.0275313  75.2728120  53.7124417 110.0686906  67.1552955
  54.5471309 110.5076710  67.3190515  53.8483546 109.5925560  66.3361200
  50.7615923 107.6266641  73.1030442  51.2370045 107.8194287  72.2949294
  49.8381488 107.6825827  72.8573826  45.3396140  99.6614485  72.0686276
  45.8578083 100.3975512  71.7432765  44.9851272  99.9678478  72.9033035
  36.9195077 104.5219166  60.1847682  36.2264322 104.5963521  59.5287718
  36.6746829 103.7579510  60.7069199  45.5908734  96.0814767  67.5887173
  45.8710487  95.4137956  68.2147600  46.3759341  96.2743863  67.0761837
  49.4617592 104.5032401  71.3358748  50.4135015 104.6030499  71.3570972
  49.2921042 103.7110670  71.8456832  47.4831972 101.5887984  71.5218149
  46.8881904 101.8692997  70.8264638  47.1981668 102.0781885  72.2934890
  51.9405670 107.7238521  70.4501048  51.9081990 106.7854522  70.6360732
  52.5506293 107.8022558  69.7166873  43.7789001 106.5934574  56.4928252
  44.7248105 106.4640782  56.5616670  43.4003246 105.8549236  56.9697680
  52.0900158 104.5149564  70.4959331  51.5739207 103.7308021  70.3089260
  52.9740107 104.1868281  70.6605850  49.7510885  98.2590580  66.4555144
  49.5535706  97.9505668  67.3398476  50.3610591  98.9852219  66.5853073
  57.7582220 108.7854528  69.5907085  58.4885608 108.5239816  70.1514788
  57.1489165 108.0483250  69.6309153  55.8397517 106.9262390  70.1881536
  55.1130680 106.7918355  69.5798027  55.4244804 107.2339219  70.9938254
  41.9631918 104.5184550  56.4283137  41.0563373 104.2217663  56.5045851
  42.2407899 104.2214368  55.5617423  43.5793984  99.0621440  62.5827378
  42.7694712  98.7168525  62.9582624  44.2678401  98.7528984  63.1714990
  45.5084532  98.1399487  64.2051675  46.0615570  98.5594940  64.8641698
  45.7454618  97.2135235  64.2474631  41.5317631 104.1286560  79.9854439
  41.4314358 105.0780917  79.9166530  41.3139173 103.8004799  79.1130509
  40.7330702 101.3771486  56.5695116  41.5949866 101.7026384  56.8290934
  40.9181047 100.5902981  56.0568182  48.8863339 100.2500012  63.7130339
  48.3062008 100.9084816  63.3308392  48.6199272  99.4277357  63.3017757
  47.3366905  99.6505070  65.9151660  47.8366684  99.7621604  65.1065978
  47.9802513  99.3466123  66.5552468  47.6688217 102.4100102  62.7686687
  46.7814072 102.6949753  62.5506882  48.0842206 102.2493866  61.9213964
  51.0202753 102.4346623  66.4841027  51.7963143 102.9243076  66.7565644
  50.2950887 102.8604678  66.9412896  53.4575312 103.1474243  67.5414967
  54.0519803 102.9069979  66.8308276  53.5301895 102.4281373  68.1688504
  47.6429241 107.9254638  62.9836978  47.5864442 108.3823190  62.1444610
  48.1957583 107.1645323  62.8059820  51.4534047 103.7144370  63.8087097
  51.1970981 103.3141006  64.6395305  50.8286915 104.4288164  63.6837236
  55.7646384 106.4540443  66.3158389  55.2045942 106.5233633  67.0889951
  55.1589888 106.2781428  65.5957885  41.6860145  98.6167529  59.8574825
  41.6738815  99.5609368  60.0143096  42.5783567  98.4337674  59.5634286
  45.5012265  95.2110305  64.1120762  44.7344661  94.6568792  64.2577444
  45.9122970  95.2832174  64.9734914  37.5054026 101.4995101  78.2025943
  38.3685488 101.1431906  78.4129268  36.9319437 101.1608996  78.8901348
  58.7248316 111.6108359  66.1658191  59.0307193 110.7505722  65.8784106
  59.4500921 112.2025979  65.9657185  56.4302488 111.4106685  67.5887173
  56.7104242 110.7429874  68.2147600  57.2153095 111.6035781  67.0761837
  56.3406019 110.5402223  64.1120762  55.5738415 109.9860710  64.2577444
  56.7516724 110.6124092  64.9734914   3.1533632  23.4899492  55.7333651
   3.7912042  23.3706239  55.0296991   3.0354475  24.4380336  55.7921603
   1.4009712  28.9633364  46.9706531   0.7497692  29.5487444  46.5840545
   2.1954075  29.4939559  47.0301569   2.7074900  21.2150945  52.8086859
   3.4937989  20.7970369  52.4577276   2.9713605  22.1197038  52.9768507
   2.8784978  26.6523796  47.5075516   2.2430811  26.7258422  48.2196420
   2.5482384  27.2417395  46.8294595   8.1083327  21.1526179  53.7119837
   8.8408499  20.5825395  53.9457667   7.3522683  20.7647779  54.1526343
   5.6308748  14.8647753  58.1714446   5.2992072  15.7343164  57.9475661
   5.0354361  14.5484037  58.8508476   2.1240267  27.0660299  57.5710359
   1.8240990  27.9685338  57.4626166   1.7791327  26.7992482  58.4231512
   5.5237411  19.5842839  55.2507796   4.6154288  19.5158247  54.9566557
   5.4725007  20.0614784  56.0789622   7.3899057  17.7859277  57.0285670
   6.7473438  18.0791810  56.3825465   6.8853986  17.6712198  57.8338867
   5.0439221  21.5322450  47.7171529   5.9557077  21.7649837  47.5419227
   4.5348868  22.1159495  47.1546608   3.3279989  25.9547078  61.3532822
   3.7363345  25.5129489  60.6087454   2.6057250  25.3799706  61.6067015
   3.6508803  26.5148269  55.1085111   3.0217666  26.6793983  54.4061179
   3.2634465  26.9289878  55.8796075   7.5298035  27.4502707  52.4629475
   6.8449073  27.8301608  51.9126508   7.6141885  28.0598033  53.1961422
   2.8310504  18.5524053  60.3847552   2.5871436  19.3066114  59.8481828
   3.1070435  18.9309401  61.2194800   4.7848967  25.0962666  59.0624818
   4.9965862  25.7394426  58.3859199   4.7378715  24.2624982  58.5946748
   2.3875196  17.7080486  55.9661390   1.5259675  18.0061740  56.2578128
   2.4137631  17.9250885  55.0342423   5.8994795  27.9734621  57.2347175
   6.7212239  27.5714809  56.9529857   5.8957198  27.8702855  58.1863291
  13.9900788  24.3173370  53.5832147  13.2364496  23.7480768  53.4276151
  14.1248329  24.2836034  54.5302782   1.0067892  29.8110339  63.3887208
   0.5631747  29.0246717  63.0708113   1.6685106  29.9989489  62.7231099
   3.1049130  30.0913138  61.4168610   3.0867606  30.9122020  60.9248879
   4.0269050  29.9667214  61.6418751   2.6942162  22.7025945  46.2958195
   2.1788786  23.4730550  46.5346582   2.4219471  22.0291081  46.9191256
   7.6676436  25.4558300  48.2311368   6.8905879  25.1169459  47.7866530
   8.3467917  25.4610923  47.5566333   2.4828465  20.5753037  48.1217976
   2.1778601  20.8899186  48.9728119   3.4358908  20.6534457  48.1645309
   5.9067743  24.9292281  54.8877976   5.2491418  25.6191542  54.9758105
   6.7108143  25.3188713  55.2311963   4.7173202  23.2836654  52.9381918
   5.2305084  23.9166645  53.4403628   5.3674426  22.6837849  52.5725278
   1.9795576  33.2620978  45.6942589   1.3057275  33.5652675  46.3027547
   2.3661398  34.0650058  45.3448046   1.9789081  22.1577525  50.3142939
   2.7260900  22.6698922  50.0050061   2.2480670  21.8361578  51.1747332
   5.4834998  28.2642655  51.0661061   5.0297325  27.4233565  51.1226251
   4.8528965  28.9004053  51.4035841   4.4267918  19.1934641  52.2961728
   3.6890675  18.6812027  52.6271971   4.6794691  18.7535023  51.4845005
   3.9267938  30.1019152  52.0010879   4.2190912  30.6624209  51.2823244
   4.4366558  30.3947713  52.7564038   2.3367197  21.3483570  59.9884961
   2.6916584  21.5755044  60.8479427   2.9839328  21.6801947  59.3662216
   8.0664933  24.4702006  50.6934290   7.9282832  24.6603602  49.7655479
   7.7101152  25.2321389  51.1502341   8.0934313  26.5378533  55.7045562
   8.5270820  26.4453822  56.5528616   8.8065894  26.5136034  55.0665578
   1.8262208  30.1380627  57.2378662   1.8799230  30.7071564  58.0056378
   0.9576989  30.3082512  56.8732699   8.9549863  26.5802234  58.2378447
   9.1485753  27.4848044  58.4837722   8.8550481  26.1209653  59.0717032
   4.0164971  26.7308977  63.8119328   3.8650478  26.5019528  62.8949411
   4.0069651  27.6879578  63.8250673   1.1343855  27.7073157  53.9552970
   0.7993687  27.6673926  54.8510619   0.6347800  27.0417872  53.4823380
   4.0703046  25.0529191  44.2290029   3.4532217  24.3276019  44.1323082
   3.6019535  25.8138551  43.8857103   5.7257178  29.7628099  61.8895810
   5.6669724  29.0787319  61.2226393   6.1276696  30.5047089  61.4376436
   5.7274585  27.7267683  60.1209789   4.8401364  27.3893605  60.2436188
   6.2973136  26.9950714  60.3578555   2.3562168  17.4335535  53.2408059
   2.8530868  16.6805497  52.9209130   1.5849150  17.4699852  52.6751269
  10.2091926  23.1375901  54.8826351  10.1981802  24.0200616  54.5120284
   9.3409305  22.7847451  54.6880888   1.7174422  32.2855970  59.2429191
   2.4302394  32.9203434  59.1705093   1.2264451  32.3819836  58.4269193
   3.4391949  26.1907222  50.8146483   2.5048228  26.3108685  50.6451187
   3.6168618  25.2879689  50.5506493   6.8264500  22.0324541  51.3496517
   7.2924953  22.8652533  51.2756820   7.2772001  21.5669523  52.0541775
   4.8940732  28.3768363  48.3482669   5.1700575  28.2624957  49.2576543
   4.0245230  27.9785848  48.3094842   4.7981163  14.4005128  55.3887418
   3.8844243  14.6309355  55.5569625   5.2274265  14.4843573  56.2401451
   4.5687622  22.5895020  57.8887312   3.9159072  22.8370928  57.2339765
   4.9468002  21.7759159  57.5549790   1.5294796  32.6254714  51.9915483
   1.7117190  31.8076370  52.4543235   2.3527782  32.8422406  51.5540373
   1.8636961  31.5522899  49.2530531   2.3924727  31.0415353  48.6400693
   2.1265181  31.2365429  50.1176064   4.2108852  29.4643016  64.4659620
   4.7548756  30.0772975  63.9714575   3.6295697  30.0222595  64.9826633
   2.4966365  32.5863734  55.5974648   2.3717504  31.7853474  55.0885593
   3.1545456  33.0809928  55.1088618   4.5601273  30.3872755  57.2254198
   3.6131609  30.2678106  57.1532524   4.9084046  29.4995253  57.3080459
   1.5647707  30.1825471  53.4258550   1.4172669  29.2542178  53.6066120
   2.3901200  30.2045561  52.9415625   5.1681828  31.0054030  54.5123423
   6.0928376  30.7996891  54.3747874   4.9997132  30.7570431  55.4212764
   1.5609221  18.0363308  48.4190667   1.7772835  18.9187946  48.1179495
   1.0803288  17.6449522  47.6896309   4.9577145  31.5239697  49.8685514
   5.1314022  30.9586119  49.1159367   5.4506036  32.3240592  49.6865004
  10.8116536  24.2876120  51.4875814  11.2547682  23.5383445  51.0894937
   9.9343046  24.2786256  51.1049546   5.9452317  30.8406461  46.9682412
   6.6403222  31.4613154  47.1869727   6.2875467  29.9901813  47.2434790
   7.8443740  28.2906167  48.4969743   8.3695064  28.6293440  47.7719063
   7.7566093  27.3553182  48.3132878   7.5337646  28.9239071  63.8020941
   6.7433190  28.9063209  63.2625440   7.2971001  29.4627364  64.5569978
   7.6535521  25.7731537  61.1153670   7.7033526  25.6081544  62.0569192
   7.5449445  24.9058796  60.7251550   4.9439284  21.7562465  62.4312976
   5.8449146  21.6168930  62.1396974   5.0187258  21.9216920  63.3711154
   9.1553718  28.1928478  61.3595691   8.8638526  28.5558459  62.1959152
   8.5425849  27.4795487  61.1809023  10.3549400  25.7581358  53.8798261
  11.1896292  26.1971162  54.0435822  10.4908529  25.2820011  53.0606507
   7.4040906  23.3161093  59.8275749   7.8795028  23.5088739  59.0194601
   6.4806472  23.3720279  59.5819133   1.9821123  15.3508937  58.7931583
   2.5003067  16.0869964  58.4678072   1.6276256  15.6572930  59.6278342
   6.1042575  20.1926853  58.0604055   7.0559998  20.2924951  58.0816279
   5.9346026  19.4005122  58.5702139   4.1256955  17.2782436  58.2463456
   3.5306887  17.5587449  57.5509944   3.8406652  17.7676337  59.0180197
   3.2564445  31.2305363  47.0066088   4.1895118  31.1650925  47.2098964
   3.1687658  32.0661630  46.5480621   5.8852462  30.5471234  43.9670036
   5.8066093  30.2131097  44.8605794   6.7062129  31.0393001  43.9661508
   8.5830653  23.4132973  57.1746354   8.5506973  22.4748974  57.3606038
   9.1931277  23.4917010  56.4412179   8.7325142  20.2044016  57.2204638
   8.2164190  19.4202473  57.0334566   9.6165090  19.8762733  57.3851157
   6.3935869  13.9485032  53.1800450   6.1960690  13.6400120  54.0643782
   7.0035574  14.6746671  53.3098380  14.4007203  24.4748980  56.3152391
  15.1310591  24.2134268  56.8760095  13.7914148  23.7377702  56.3554459
  12.4822500  22.6156842  56.9126842  11.7555664  22.4812807  56.3043334
  12.0669787  22.9233671  57.7183560   5.5288322  15.9394464  50.4375646
   4.9486991  16.5979268  50.0553698   5.2624255  15.1171808  50.0263063
   3.9791889  15.3399522  52.6396966   4.4791667  15.4516056  51.8311285
   4.6227497  15.0360574  53.2797775   4.3113200  18.0994554  49.4931994
   3.4239055  18.3844205  49.2752189   4.7267189  17.9388318  48.6459271
   7.6627736  18.1241075  53.2086333   8.4388127  18.6137528  53.4810950
   6.9375871  18.5499129  53.6658203  10.1000295  18.8368694  54.2660274
  10.6944786  18.5964430  53.5553582  10.1726879  18.1175825  54.8933810
   3.4556414  27.8639229  43.5880014   4.1592264  28.0689231  44.2037670
   2.7319063  28.4315991  43.8529098   4.2854224  23.6149090  49.7082284
   4.2289425  24.0717642  48.8689917   4.8382566  22.8539775  49.5305127
   8.0959030  19.4038822  50.5332404   7.8395964  19.0035458  51.3640611
   7.4711898  20.1182616  50.4082543  12.4071368  22.1434895  53.0403695
  11.8470926  22.2128085  53.8135257  11.8014871  21.9675880  52.3203191
   5.3643111  28.3021758  45.6378474   6.1988715  27.8702957  45.4555949
   5.2027454  28.1303772  46.5655369   5.0189003  24.8053871  47.0034813
   4.9637807  24.6398143  46.0623258   4.3935059  25.5129904  47.1597003
   2.3334911  27.1102783  66.3288376   3.2026070  27.2843436  65.9675011
   1.8541662  27.9297200  66.2064106  13.9927386  38.8191409  55.7333651
  14.6305796  38.6998157  55.0296991  13.8748229  39.7672253  55.7921603
  10.8017093  38.7718837  55.6695176  10.4635604  38.6559902  54.7815710
  11.6706861  38.3710002  55.6496182   6.6603908  40.6254314  51.6592067
   6.0968773  40.5344251  50.8908354   6.5456303  39.8054218  52.1394559
  11.2836876  39.9253689  61.6281381  11.2725516  39.5306487  60.7561885
  11.4457515  39.1919762  62.2215153   4.2068340  42.1205505  54.4976287
   4.9989632  41.7796330  54.0822586   4.4464990  42.2300480  55.4178440
  12.2403467  44.2925281  46.9706531  11.5891447  44.8779362  46.5840545
  13.0347830  44.8231476  47.0301569   6.1659094  41.3814419  47.3693666
   6.9389970  40.8343406  47.2306542   6.5184493  42.2458668  47.5808127
   8.0044137  42.7090801  60.5760565   7.7134003  43.6136432  60.4607231
   8.6401121  42.7507328  61.2904635   8.9300344  40.0867649  57.1661925
   9.5263916  39.8623672  56.4518888   8.9875315  39.3452395  57.7687373
   8.5025372  37.5407085  45.0012116   8.7550893  37.0188606  44.2395579
   7.5649931  37.3773230  45.1038799  13.5468655  36.5442863  52.8086859
  14.3331744  36.1262286  52.4577276  13.8107359  37.4488955  52.9768507
  13.7178732  41.9815713  47.5075516  13.0824565  42.0550340  48.2196420
  13.3876138  42.5709312  46.8294595  18.9477082  36.4818096  53.7119837
  19.6802254  35.9117313  53.9457667  18.1916438  36.0939697  54.1526343
   8.2221661  39.4435191  47.2036491   8.1057919  38.7680094  47.8717575
   8.3323921  38.9567565  46.3868644  10.5653202  38.9045338  50.9083180
  10.2011409  38.3775959  51.6196101  11.4220317  38.5143807  50.7349665
  16.4702502  30.1939670  58.1714446  16.1385827  31.0635081  57.9475661
  15.8748116  29.8775954  58.8508476  10.2058689  33.9335237  45.9044528
  10.3733091  34.8015474  46.2714999  10.0155858  34.0962519  44.9805818
  12.9634022  42.3952216  57.5710359  12.6634745  43.2977255  57.4626166
  12.6185081  42.1284400  58.4231512   6.4146503  38.8466013  53.6047063
   5.4897000  38.7142227  53.8124755   6.6630916  39.6260232  54.1017006
  16.3631166  34.9134757  55.2507796  15.4548043  34.8450165  54.9566557
  16.3118761  35.3906702  56.0789622  10.1847909  36.3892895  46.8891195
  10.0647535  36.8349946  47.7276676   9.4900498  36.7378213  46.3304733
   3.7755314  38.4899287  54.4390852   3.9047695  38.7433766  55.3530264
   3.0952766  39.0826995  54.1195507   7.9454802  49.1596537  50.5381326
   7.8678831  50.1104362  50.6169807   7.3416445  48.8142409  51.1956253
  10.4372031  36.3324402  63.1942693   9.6605365  36.8918322  63.1845558
  11.0762594  36.8181185  63.7157563  18.2292812  33.1151195  57.0285670
  17.5867192  33.4083728  56.3825465  17.7247740  33.0004115  57.8338867
  15.8832976  36.8614368  47.7171529  16.7950832  37.0941755  47.5419227
  15.3742623  37.4451412  47.1546608   8.6918404  39.1409856  62.7560660
   9.4333088  39.6794899  62.4795484   7.9855389  39.7676144  62.9132212
  14.1673743  41.2838996  61.3532822  14.5757099  40.8421407  60.6087454
  13.4451005  40.7091624  61.6067015  10.5204813  36.2211603  58.7266379
  11.3666009  36.6451016  58.8701028  10.4603451  35.5645227  59.4204942
  14.4902558  41.8440187  55.1085111  13.8611420  42.0085901  54.4061179
  14.1028220  42.2581796  55.8796075  18.3691790  42.7794624  52.4629475
  17.6842828  43.1593526  51.9126508  18.4535639  43.3889951  53.1961422
  13.6704259  33.8815971  60.3847552  13.4265191  34.6358032  59.8481828
  13.9464189  34.2601319  61.2194800  15.6242721  40.4254583  59.0624818
  15.8359617  41.0686343  58.3859199  15.5772470  39.5916900  58.5946748
  13.2268950  33.0372404  55.9661390  12.3653429  33.3353658  56.2578128
  13.2531385  33.2542803  55.0342423  10.0430520  41.5814595  52.3735196
  10.5068865  41.8602298  51.5839818   9.7787318  40.6798039  52.1908287
   6.9354601  41.1286076  55.3114959   7.5055958  41.5573345  54.6732444
   7.5262713  40.8468661  56.0099145   8.9799406  37.7037747  49.1824761
   9.6823449  38.1558791  49.6498687   8.6480034  37.0621566  49.8104654
   7.4279767  36.2949504  63.5575970   6.7978428  36.9765785  63.7911367
   7.3215855  36.1832585  62.6129109   2.7224740  35.9621300  54.4841895
   1.9323794  36.2178828  54.0082005   3.2135987  36.7769638  54.5893935
  16.7388549  43.3026539  57.2347175  17.5605993  42.9006726  56.9529857
  16.7350952  43.1994773  58.1863291   4.6739485  36.3265879  51.4425371
   3.8770648  36.4384573  51.9608867   4.4465077  36.6652531  50.5766262
  10.5045153  42.8510582  59.3907886  10.5689585  43.3130989  60.2266058
   9.7956077  42.2207947  59.5190196   1.0062443  36.2151790  56.9156885
   1.2570481  37.0998800  57.1814461   1.5421991  36.0356392  56.1431977
  24.8294542  39.6465287  53.5832147  24.0758251  39.0772685  53.4276151
  24.9642084  39.6127952  54.5302782  10.2193170  44.5178690  49.2586866
  10.0838845  45.3630225  49.6871714  10.7602983  44.7197967  48.4952800
   6.7060510  30.5970270  65.9201221   6.3127456  30.0436468  66.5948866
   7.5226650  30.9080848  66.3107739   3.6722568  42.0354128  49.8314791
   4.1847088  42.8297378  49.9820356   4.3245281  41.3380418  49.7648393
   5.4817453  45.1519884  51.9137544   5.6584081  46.0737849  51.7258528
   6.2774286  44.8378303  52.3431924   9.6228471  32.0128149  63.5121478
  10.3638184  32.6135302  63.4325940   9.8546394  31.2705786  62.9539521
   4.7669809  37.1984516  61.7899708   4.6523324  36.2969773  62.0906807
   3.9114327  37.4448213  61.4384524  11.8461647  45.1402256  63.3887208
  11.4025501  44.3538635  63.0708113  12.5078860  45.3281407  62.7231099
   6.6048768  46.6698058  57.9147887   7.1556193  46.5415121  57.1424881
   5.7660244  46.9692947  57.5642780  13.9442885  45.4205056  61.4168610
  13.9261360  46.2413937  60.9248879  14.8662805  45.2959131  61.6418751
  10.4015939  42.9349186  62.2592118  10.9344276  42.1737474  62.0291426
   9.8730020  42.6422837  63.0016272  13.5685634  28.0409252  57.7885760
  13.2249903  28.9310893  57.7124870  13.9364597  27.8510909  56.9255345
   1.6371485  40.3642782  50.6074362   2.4746707  40.7739790  50.3908070
   1.8149752  39.4242224  50.5774556  13.5335917  38.0317863  46.2958195
  13.0182540  38.8022467  46.5346582  13.2613225  37.3582999  46.9191256
  11.1183028  32.8767563  51.3543433  10.2624624  32.4874414  51.1749072
  11.5309980  32.9559524  50.4943219  12.6482174  30.4113907  55.7534993
  12.1446970  30.3744042  54.9402798  12.9412781  31.3206649  55.8131650
   8.8925060  30.4952636  54.7601175   9.7578057  30.2995445  54.4007064
   8.9602569  30.2662988  55.6870531  18.5070191  40.7850217  48.2311368
  17.7299634  40.4461377  47.7866530  19.1861672  40.7902840  47.5566333
  13.3222220  35.9044955  48.1217976  13.0172355  36.2191104  48.9728119
  14.2752662  35.9826375  48.1645309  11.7668652  42.0635178  49.7710930
  11.2390013  41.3287938  49.4584167  11.2656154  42.8409854  49.5250898
  16.7461498  40.2584199  54.8877976  16.0885172  40.9483460  54.9758105
  17.5501897  40.6480631  55.2311963   6.4987379  32.7254844  52.1317541
   7.0731131  32.5030026  51.3990734   7.0858362  32.7943539  52.8846143
  15.5566957  38.6128571  52.9381918  16.0698838  39.2458563  53.4403628
  16.2068180  38.0129767  52.5725278   6.8256966  34.7559305  46.1513427
   5.9894279  35.0933992  46.4722701   6.6861736  34.6208285  45.2140564
   8.8010047  29.5996093  50.8592611   8.1474459  29.2845110  50.2349226
   8.7590521  28.9771834  51.5852434   9.9121252  39.8815388  42.7745903
   9.0048314  39.6504642  42.9737052  10.4092284  39.0853008  42.9619885
  12.8189331  48.5912896  45.6942589  12.1451030  48.8944592  46.3027547
  13.2055153  49.3941976  45.3448046  12.0347787  36.0878027  55.1840259
  11.1170349  36.3092974  55.0261947  12.4507931  36.1624337  54.3251966
  12.8182835  37.4869443  50.3142939  13.5654654  37.9990840  50.0050061
  13.0874425  37.1653495  51.1747332  11.0909485  39.9827983  47.2969893
  10.1820705  39.6987016  47.3942363  11.1204569  40.4027062  46.4373200
  16.3228753  43.5934573  51.0661061  15.8691080  42.7525483  51.1226251
  15.6922720  44.2295971  51.4035841  15.2661672  34.5226559  52.2961728
  14.5284429  34.0103945  52.6271971  15.5188446  34.0826940  51.4845005
  14.7661692  45.4311069  52.0010879  15.0584666  45.9916127  51.2823244
  15.2760313  45.7239630  52.7564038  15.3673300  27.3002811  52.8903497
  15.6732176  26.4400174  52.6029412  16.0925904  27.8920431  52.6902491
   1.6597656  37.7033497  51.2785095   1.4622056  37.1102858  50.5536162
   1.1044320  37.3985708  51.9961034   9.6394379  37.5956604  53.3979688
   9.6942989  36.6430440  53.3222165   8.8285581  37.7516043  53.8820987
  10.7885573  41.5236727  44.6357972  10.3505003  40.8072586  44.1763609
  11.5296014  41.7512842  44.0743063   7.5786739  36.2133664  51.1570067
   6.7654605  36.5127834  51.5635259   8.0745734  35.8189352  51.8744550
   9.7295317  46.2091421  53.0904332   9.6871496  46.4352267  52.1612864
  10.6458016  45.9754795  53.2390133  13.1760951  36.6775488  59.9884961
  13.5310339  36.9046961  60.8479427  13.8233082  37.0093865  59.3662216
  18.9058688  39.7993924  50.6934290  18.7676587  39.9895520  49.7655479
  18.5494907  40.5613307  51.1502341   7.0700814  33.7852019  56.7731302
   7.7100193  33.6440778  56.0754266   6.2378345  33.4986532  56.3969904
  18.9328068  41.8670451  55.7045562  19.3664574  41.7745740  56.5528616
  19.6459648  41.8427951  55.0665578   7.8461118  43.0854450  52.8866295
   8.6401716  42.5904770  52.6848870   7.1352810  42.5572313  52.5234000
  12.6655962  45.4672545  57.2378662  12.7192985  46.0363481  58.0056378
  11.7970744  45.6374430  56.8732699   4.1543881  37.2297531  48.9626047
   3.2241470  37.1681987  49.1796010   4.2501353  36.7073484  48.1662689
   4.0729431  33.7552344  51.5504289   4.3336248  34.6697677  51.4413450
   4.8946603  33.2876787  51.7000902   5.5454356  35.1690101  58.7203114
   6.2177409  34.9607463  58.0715762   4.7184142  34.9712187  58.2808346
  19.7943617  41.9094152  58.2378447  19.9879507  42.8139962  58.4837722
  19.6944235  41.4501571  59.0717032  11.4479928  31.7952042  60.7368774
  10.8007843  32.4941992  60.6433251  12.2180943  32.2288186  61.1045023
  14.8558726  42.0600894  63.8119328  14.7044232  41.8311446  62.8949411
  14.8463405  43.0171496  63.8250673  11.6244062  39.6332807  58.7965594
  12.5536122  39.7843967  58.6234561  11.2035092  39.7216828  57.9414241
  10.4232394  43.6583472  56.5664132  10.2843480  43.2902256  57.4390070
   9.6346990  44.1731111  56.3948090  11.0180546  48.7592568  47.9089668
  11.1932302  48.2880611  48.7235291  10.3313334  49.3858334  48.1370929
  11.9737609  43.0365074  53.9552970  11.6387442  42.9965844  54.8510619
  11.4741555  42.3709790  53.4823380   5.9481853  38.4432704  59.4805551
   5.8101651  37.7112943  60.0817090   6.8586777  38.3541604  59.1989738
  14.9096801  40.3821109  44.2290029  14.2925971  39.6567937  44.1323082
  14.4413289  41.1430469  43.8857103   8.5764154  38.1552664  58.9689230
   9.2863772  37.5145856  58.9275849   8.5333462  38.4065558  59.8915411
  16.5650932  45.0920017  61.8895810  16.5063479  44.4079237  61.2226393
  16.9670451  45.8339007  61.4376436   7.2893088  35.1417881  60.7884870
   6.7530445  34.6908620  61.4406466   6.7009796  35.2763790  60.0455334
   5.5841631  51.9081931  54.6829528   5.8238229  52.5400455  55.3608547
   4.7410828  51.5569971  54.9694888   6.6995347  34.6006533  43.3511334
   5.8224813  34.4795334  42.9873580   7.1753100  33.8092611  43.0990222
  16.5668340  43.0559601  60.1209789  15.6795118  42.7185523  60.2436188
  17.1366891  42.3242632  60.3578555   3.0232209  34.2773889  57.8737864
   2.9390398  33.6699559  57.1388274   2.2014915  34.7682907  57.8747361
  10.0969493  47.7161053  57.0871032  10.0239665  48.5216025  57.5990337
   9.6546886  47.9153019  56.2619054   9.8859273  46.9532823  50.5973854
   9.1026795  47.4954503  50.6912079  10.5852018  47.4706803  50.9968095
  13.1955923  32.7627453  53.2408059  13.6924622  32.0097415  52.9209130
  12.4242904  32.7991769  52.6751269  21.0485680  38.4667818  54.8826351
  21.0375557  39.3492534  54.5120284  20.1803060  38.1139369  54.6880888
  12.5568177  47.6147887  59.2429191  13.2696149  48.2495352  59.1705093
  12.0658205  47.7111753  58.4269193  14.2785704  41.5199140  50.8146483
  13.3441982  41.6400602  50.6451187  14.4562372  40.6171607  50.5506493
   9.7790892  34.9044836  52.9679744   9.4088679  34.3515876  53.6560650
  10.2749984  34.3002969  52.4154744  17.6658255  37.3616459  51.3496517
  18.1318707  38.1944451  51.2756820  18.1165755  36.8961441  52.0541775
   7.6080090  45.3642331  60.0634762   8.3089550  45.9978814  60.2164156
   7.1375205  45.7057062  59.3030401  15.7334486  43.7060280  48.3482669
  16.0094330  43.5916875  49.2576543  14.8638985  43.3077765  48.3094842
  15.6374918  29.7297046  55.3887418  14.7237997  29.9601273  55.5569625
  16.0668019  29.8135490  56.2401451  15.4081376  37.9186938  57.8887312
  14.7552826  38.1662846  57.2339765  15.7861756  37.1051076  57.5549790
  12.3688550  47.9546631  51.9915483  12.5510945  47.1368287  52.4543235
  13.1921536  48.1714324  51.5540373  12.7030716  46.8814816  49.2530531
  13.2318482  46.3707271  48.6400693  12.9658935  46.5657347  50.1176064
  11.4568949  38.6606749  64.3753349  10.7809586  38.5600879  65.0455725
  12.2796583  38.5045963  64.8389347   3.2047808  44.8978686  56.9965865
   3.7901245  44.1522374  57.1293769   3.0072647  45.2082642  57.8802529
   6.0586463  47.9329933  52.0128307   5.3896839  48.4176061  51.5292347
   5.9199333  48.1799154  52.9271686  10.1991732  49.9673677  58.6110965
  10.7510040  50.1305298  59.3760051  10.5397925  50.5578114  57.9390990
   5.1756225  32.3148826  59.2132850   5.2397552  33.1763657  58.8010248
   5.1123346  31.7022828  58.4805209   4.6508498  34.3871959  62.8605884
   5.2780537  34.0049036  63.4743409   3.7936417  34.1686161  63.2261577
  15.0502606  44.7934934  64.4659620  15.5942510  45.4064892  63.9714575
  14.4689451  45.3514513  64.9826633   1.4274041  36.1948388  48.7924239
   1.7227482  35.2859067  48.7391293   0.5262076  36.1736128  48.4705242
  13.3360119  47.9155652  55.5974648  13.2111259  47.1145392  55.0885593
  13.9939210  48.4101846  55.1088618   4.9568288  34.2704385  54.7751788
   4.2354873  34.8840352  54.6359261   5.7461543  34.8062149  54.6968434
  15.3995028  45.7164672  57.2254198  14.4525363  45.5970023  57.1532524
  15.7477801  44.8287170  57.3080459   7.7594601  31.6058811  61.0492440
   8.2829003  31.8521108  61.8118749   7.5406934  32.4378846  60.6295577
   3.1561882  33.8762486  48.9163564   2.8274588  32.9959865  48.7338670
   3.5101253  33.8210154  49.8039954  12.4041461  45.5117388  53.4258550
  12.2566423  44.5834096  53.6066120  13.2294955  45.5337479  52.9415625
   6.2703705  34.1635456  49.2839042   6.6099778  34.6921377  48.5617650
   6.7175826  34.5015862  50.0597609  16.0075583  46.3345947  54.5123423
  16.9322130  46.1288809  54.3747874  15.8390886  46.0862348  55.4212764
   8.9647146  32.5472506  58.7342110   8.6243966  31.7480319  59.1362790
   8.2586152  32.8474217  58.1618943   9.6163618  29.6321819  57.1869433
  10.4389687  29.1582297  57.0648323   9.8601681  30.4112302  57.6868119
   8.2571852  32.6610077  47.4832335   8.9780215  33.0391330  46.9796052
   7.6337157  33.3798954  47.5867313  12.4002975  33.3655226  48.4190667
  12.6166590  34.2479864  48.1179495  11.9197042  32.9741440  47.6896309
   7.1402197  36.3240939  54.9961412   6.9946777  36.6381242  55.8885693
   6.6627400  36.9425840  54.4432310   8.9998580  33.3143487  55.0442301
   8.9860148  32.4184581  54.7074599   9.7171008  33.3214151  55.6780587
  10.8524710  33.7480828  57.0895429  10.5942488  34.6697898  57.0879759
  10.3209751  33.3511262  57.7795893  15.7970899  46.8531615  49.8685514
  15.9707777  46.2878037  49.1159367  16.2899790  47.6532510  49.6865004
   1.6147859  38.8646284  57.9349073   1.0701327  39.6406092  58.0669347
   2.4927209  39.2117088  57.7768194   8.4035476  32.1957868  50.3129871
   8.5251387  31.2674514  50.5120759   8.1137518  32.2096554  49.4008187
  11.2726666  29.8812778  53.4496591  11.2948363  29.9452111  52.4948571
  11.6894725  29.0417287  53.6437097  21.6510290  39.6168038  51.4875814
  22.0941436  38.8675363  51.0894937  20.7736801  39.6078174  51.1049546
  16.7846072  46.1698379  46.9682412  17.4796976  46.7905072  47.1869727
  17.1269222  45.3193730  47.2434790   2.4013881  37.9916180  60.8279230
   1.6595617  38.1398815  61.4143860   2.0806625  38.2524446  59.9645979
  18.6837495  43.6198085  48.4969743  19.2088819  43.9585357  47.7719063
  18.5959847  42.6845100  48.3132878  10.3457543  47.5332158  60.6259620
  10.6544670  47.2881305  61.4982319  11.1433025  47.7378797  60.1378490
  10.3678155  49.6870068  52.8564996   9.9283146  49.1946447  53.5497853
  11.1186272  49.1443036  52.6157072   2.8470494  45.8781609  52.8589624
   3.6728514  45.5785381  52.4788268   2.4964546  45.1089231  53.3079413
   7.8152028  45.2308077  54.9287298   7.1932037  44.5678782  54.6289526
   8.4856894  45.2569209  54.2460946   7.8876555  33.7089865  64.5219804
   7.9364711  34.5851988  64.1397574   8.4299069  33.1667258  63.9491447
  18.3731401  44.2530988  63.8020941  17.5826944  44.2355127  63.2625440
  18.1364755  44.7919282  64.5569978  18.4929276  41.1023455  61.1153670
  18.5427281  40.9373462  62.0569192  18.3843199  40.2350714  60.7251550
   7.3765534  43.7812000  48.4045759   7.5253655  44.4647465  47.7512431
   8.1831978  43.7617090  48.9195214  15.7833038  37.0854383  62.4312976
  16.6842901  36.9460847  62.1396974  15.8581013  37.2508837  63.3711154
  10.1175843  34.4621237  61.2766163   9.2479153  34.7554803  61.0048751
  10.3535324  35.0461682  61.9973426  19.9947473  43.5220396  61.3595691
  19.7032281  43.8850377  62.1959152  19.3819604  42.8087404  61.1809023
  21.1943155  41.0873276  53.8798261  22.0290046  41.5263080  54.0435822
  21.3302284  40.6111929  53.0606507  18.2434661  38.6453011  59.8275749
  18.7188782  38.8380657  59.0194601  17.3200226  38.7012197  59.5819133
   5.1318167  39.8077178  49.4106827   4.8864209  38.9039508  49.6087038
   5.3014082  39.8094328  48.4686305  12.8214877  30.6800854  58.7931583
  13.3396821  31.4161881  58.4678072  12.4670010  30.9864848  59.6278342
   4.4013815  35.5405536  46.9092989   3.7083060  35.6149890  46.2533025
   4.1565567  34.7765879  47.4314506  13.0727471  27.1001137  54.3132480
  13.3529225  26.4324326  54.9392906  13.8578078  27.2930232  53.8007143
  10.8760940  46.2760131  45.8757506  10.3034907  46.8950318  45.4227978
  11.4493734  46.8259492  46.4097428  16.9436330  35.5218771  58.0604055
  17.8953753  35.6216868  58.0816279  16.7739780  34.7297039  58.5702139
  14.9650709  32.6074354  58.2463456  14.3700641  32.8879367  57.5509944
  14.6800406  33.0968255  59.0180197  14.0958200  46.5597281  47.0066088
  15.0288873  46.4942843  47.2098964  14.0081413  47.3953548  46.5480621
  16.7246216  45.8763151  43.9670036  16.6459848  45.5423015  44.8605794
  17.5455883  46.3684919  43.9661508  19.4224408  38.7424891  57.1746354
  19.3900728  37.8040891  57.3606038  20.0325031  38.8208927  56.4412179
  11.2607738  37.6120943  43.2173558  12.2066843  37.4827152  43.2861976
  10.8821983  36.8735605  43.6942987  19.5718896  35.5335934  57.2204638
  19.0557945  34.7494391  57.0334566  20.4558845  35.2054651  57.3851157
  17.2329623  29.2776950  53.1800450  17.0354444  28.9692038  54.0643782
  17.8429329  30.0038588  53.3098380  25.2400957  39.8040897  56.3152391
  25.9704346  39.5426185  56.8760095  24.6307903  39.0669619  56.3554459
  23.3216255  37.9448760  56.9126842  22.5949418  37.8104725  56.3043334
  22.9063541  38.2525589  57.7183560  11.1446431  41.6638690  64.6774215
  12.0649440  41.8417289  64.8714262  11.1096014  40.7194735  64.5253915
   9.4450656  35.5370920  43.1528444   8.5382111  35.2404033  43.2291157
   9.7226637  35.2400738  42.2862730   4.1408504  39.5739724  57.3196997
   4.3594513  40.5056832  57.3385030   4.5534277  39.2147699  58.1051800
  11.0612721  30.0807810  49.3072685  10.2513450  29.7354895  49.6827931
  11.7497138  29.7715353  49.8960297  12.9903270  29.1585856  50.9296982
  13.5434308  29.5781310  51.5887005  13.2273356  28.2321605  50.9719938
   9.0136369  35.1472930  66.7099745   8.9133096  36.0967287  66.6411837
   8.7957911  34.8191169  65.8375816   8.2149440  32.3957855  43.2940423
   9.0768604  32.7212753  43.5536240   8.3999784  31.6089351  42.7813489
  16.3682077  31.2686382  50.4375646  15.7880746  31.9271186  50.0553698
  16.1018009  30.4463726  50.0263063  14.8185643  30.6691439  52.6396966
  15.3185421  30.7807974  51.8311285  15.4621251  30.3652492  53.2797775
   8.8767639  38.5770069  65.5264807   8.3934721  39.3770429  65.7328696
   8.9628578  38.5878014  64.5732251   2.1453599  40.4098449  53.4486627
   2.1224287  40.5086136  52.4968510   2.4554235  41.2563599  53.7703793
   4.8040976  42.4674604  57.5633241   5.7584230  42.4358546  57.4963172
   4.6053500  42.0065227  58.3783467   5.3940359  41.0375720  60.1304039
   6.2133248  41.5319798  60.1538876   5.6677166  40.1207688  60.1021606
  15.1506955  33.4286472  49.4931994  14.2632810  33.7136123  49.2752189
  15.5660944  33.2680235  48.6459271  18.5021491  33.4532993  53.2086333
  19.2781881  33.9429445  53.4810950  17.7769625  33.8791047  53.6658203
  20.9394050  34.1660612  54.2660274  21.5338540  33.9256348  53.5553582
  21.0120633  33.4467743  54.8933810   3.1591205  48.0094223  54.5803439
   3.0245673  47.2494624  54.0141437   2.7423267  48.7335123  54.1132228
  14.2950168  43.1931147  43.5880014  14.9986018  43.3981149  44.2037670
  13.5712817  43.7607909  43.8529098  15.1247979  38.9441008  49.7082284
  15.0683180  39.4009559  48.8689917  15.6776321  38.1831692  49.5305127
  18.9352784  34.7330740  50.5332404  18.6789719  34.3327375  51.3640611
  18.3105652  35.4474534  50.4082543  23.2465122  37.4726813  53.0403695
  22.6864680  37.5420002  53.8135257  22.6408626  37.2967798  52.3203191
   6.3160331  48.9063540  54.7921881   6.1992715  49.8508973  54.6900572
   5.4952777  48.6037102  55.1807681  16.2036866  43.6313676  45.6378474
  17.0382470  43.1994874  45.4555949  16.0421209  43.4595690  46.5655369
  15.8582758  40.1345789  47.0034813  15.8031562  39.9690061  46.0623258
  15.2328813  40.8421822  47.1597003  13.1728665  42.4394701  66.3288376
  14.0419825  42.6135353  65.9675011  12.6935416  43.2589118  66.2064106
   9.1678883  29.6353898  46.5820132   9.1557553  30.5795738  46.7388403
  10.0602305  29.4524044  46.2879593   7.3414845  49.5591802  58.0077810
   8.2442092  49.5915412  58.3244305   7.1152215  48.6292253  58.0224146
   9.0968447  48.3122789  54.6687889   8.1464078  48.3124650  54.5552261
   9.4000933  47.5655523  54.1523923  12.9831003  26.2296675  50.8366069
  12.2163399  25.6755161  50.9822751  13.3941708  26.3018544  51.6980220
   4.9872764  32.5181471  64.9271250   5.8504225  32.1618275  65.1374574
   4.4138174  32.1795365  65.6146654  24.8321141  54.1483327  55.7333651
  25.4699551  54.0290074  55.0296991  24.7141984  55.0964171  55.7921603
  21.6410847  54.1010755  55.6695176  21.3029359  53.9851820  54.7815710
  22.5100615  53.7001920  55.6496182  17.4997663  55.9546231  51.6592067
  16.9362528  55.8636168  50.8908354  17.3850058  55.1346136  52.1394559
  22.1230630  55.2545607  61.6281381  22.1119271  54.8598405  60.7561885
  22.2851269  54.5211679  62.2215153  15.0462095  57.4497423  54.4976287
  15.8383387  57.1088248  54.0822586  15.2858745  57.5592398  55.4178440
  23.0797221  59.6217199  46.9706531  22.4285201  60.2071280  46.5840545
  23.8741584  60.1523394  47.0301569  17.0052849  56.7106336  47.3693666
  17.7783725  56.1635323  47.2306542  17.3578247  57.5750586  47.5808127
  18.8437891  58.0382719  60.5760565  18.5527757  58.9428349  60.4607231
  19.4794875  58.0799246  61.2904635  19.7694098  55.4159567  57.1661925
  20.3657670  55.1915589  56.4518888  19.8269070  54.6744313  57.7687373
  19.3419126  52.8699002  45.0012116  19.5944647  52.3480524  44.2395579
  18.4043685  52.7065148  45.1038799  24.3862409  51.8734781  52.8086859
  25.1725498  51.4554204  52.4577276  24.6501114  52.7780873  52.9768507
  24.5572487  57.3107631  47.5075516  23.9218320  57.3842258  48.2196420
  24.2269893  57.9001230  46.8294595  19.0615415  54.7727108  47.2036491
  18.9451673  54.0972012  47.8717575  19.1717675  54.2859482  46.3868644
  21.4046956  54.2337255  50.9083180  21.0405163  53.7067876  51.6196101
  22.2614072  53.8435725  50.7349665  21.0452443  49.2627155  45.9044528
  21.2126845  50.1307392  46.2714999  20.8549612  49.4254437  44.9805818
  23.8027776  57.7244134  57.5710359  23.5028499  58.6269173  57.4626166
  23.4578836  57.4576317  58.4231512  17.2540258  54.1757931  53.6047063
  16.3290754  54.0434145  53.8124755  17.5024671  54.9552150  54.1017006
  21.0241664  51.7184813  46.8891195  20.9041289  52.1641863  47.7276676
  20.3294252  52.0670130  46.3304733  14.6149069  53.8191204  54.4390852
  14.7441450  54.0725683  55.3530264  13.9346520  54.4118912  54.1195507
  18.7848556  64.4888454  50.5381326  18.7072586  65.4396280  50.6169807
  18.1810200  64.1434327  51.1956253  21.2765786  51.6616320  63.1942693
  20.4999120  52.2210240  63.1845558  21.9156349  52.1473103  63.7157563
  26.7226730  52.1906286  47.7171529  27.6344586  52.4233673  47.5419227
  26.2136377  52.7743330  47.1546608  19.5312158  54.4701773  62.7560660
  20.2726842  55.0086817  62.4795484  18.8249144  55.0968062  62.9132212
  25.0067498  56.6130914  61.3532822  25.4150854  56.1713324  60.6087454
  24.2844759  56.0383541  61.6067015  21.3598568  51.5503520  58.7266379
  22.2059763  51.9742934  58.8701028  21.2997205  50.8937145  59.4204942
  25.3296312  57.1732104  55.1085111  24.7005175  57.3377818  54.4061179
  24.9421974  57.5873714  55.8796075  24.5098013  49.2107889  60.3847552
  24.2658945  49.9649949  59.8481828  24.7857944  49.5893236  61.2194800
  24.0662705  48.3664322  55.9661390  23.2047184  48.6645575  56.2578128
  24.0925140  48.5834721  55.0342423  20.8824274  56.9106512  52.3735196
  21.3462620  57.1894215  51.5839818  20.6181072  56.0089957  52.1908287
  17.7748355  56.4577994  55.3114959  18.3449712  56.8865262  54.6732444
  18.3656467  56.1760579  56.0099145  19.8193160  53.0329665  49.1824761
  20.5217204  53.4850708  49.6498687  19.4873789  52.3913484  49.8104654
  18.2673522  51.6241421  63.5575970  17.6372182  52.3057702  63.7911367
  18.1609610  51.5124503  62.6129109  13.5618494  51.2913217  54.4841895
  12.7717548  51.5470746  54.0082005  14.0529742  52.1061555  54.5893935
  15.5133240  51.6557797  51.4425371  14.7164403  51.7676491  51.9608867
  15.2858832  51.9944449  50.5766262  21.3438907  58.1802500  59.3907886
  21.4083340  58.6422907  60.2266058  20.6349831  57.5499865  59.5190196
  11.8456197  51.5443708  56.9156885  12.0964236  52.4290718  57.1814461
  12.3815746  51.3648309  56.1431977  21.0586925  59.8470607  49.2586866
  20.9232600  60.6922143  49.6871714  21.5996737  60.0489885  48.4952800
  17.5454265  45.9262187  65.9201221  17.1521210  45.3728386  66.5948866
  18.3620405  46.2372766  66.3107739  14.5116322  57.3646045  49.8314791
  15.0240843  58.1589296  49.9820356  15.1639035  56.6672336  49.7648393
  16.3211207  60.4811802  51.9137544  16.4977835  61.4029766  51.7258528
  17.1168041  60.1670221  52.3431924  20.4622226  47.3420066  63.5121478
  21.2031939  47.9427219  63.4325940  20.6940148  46.5997704  62.9539521
  15.6063564  52.5276434  61.7899708  15.4917079  51.6261691  62.0906807
  14.7508081  52.7740130  61.4384524  22.6855401  60.4694174  63.3887208
  22.2419256  59.6830552  63.0708113  23.3472615  60.6573324  62.7231099
  17.4442523  61.9989975  57.9147887  17.9949948  61.8707039  57.1424881
  16.6053998  62.2984864  57.5642780  24.7836639  60.7496974  61.4168610
  24.7655115  61.5705855  60.9248879  25.7056559  60.6251049  61.6418751
  21.2409694  58.2641103  62.2592118  21.7738030  57.5029391  62.0291426
  20.7123775  57.9714755  63.0016272  24.4079389  43.3701169  57.7885760
  24.0643658  44.2602811  57.7124870  24.7758351  43.1802827  56.9255345
  12.4765239  55.6934700  50.6074362  13.3140461  56.1031708  50.3908070
  12.6543507  54.7534142  50.5774556  24.3729671  53.3609780  46.2958195
  23.8576295  54.1314385  46.5346582  24.1006980  52.6874917  46.9191256
  21.9576782  48.2059481  51.3543433  21.1018379  47.8166332  51.1749072
  22.3703734  48.2851442  50.4943219  23.4875929  45.7405824  55.7534993
  22.9840724  45.7035960  54.9402798  23.7806536  46.6498567  55.8131650
  19.7318815  45.8244554  54.7601175  20.5971812  45.6287363  54.4007064
  19.7996324  45.5954906  55.6870531  29.3463945  56.1142135  48.2311368
  28.5693388  55.7753295  47.7866530  30.0255426  56.1194758  47.5566333
  24.1615974  51.2336872  48.1217976  23.8566110  51.5483022  48.9728119
  25.1146417  51.3118292  48.1645309  22.6062406  57.3927096  49.7710930
  22.0783768  56.6579855  49.4584167  22.1049909  58.1701772  49.5250898
  17.3381134  48.0546762  52.1317541  17.9124886  47.8321944  51.3990734
  17.9252116  48.1235457  52.8846143  26.3960711  53.9420489  52.9381918
  26.9092593  54.5750481  53.4403628  27.0461935  53.3421684  52.5725278
  17.6650721  50.0851223  46.1513427  16.8288033  50.4225910  46.4722701
  17.5255491  49.9500203  45.2140564  19.6403802  44.9288011  50.8592611
  18.9868214  44.6137028  50.2349226  19.5984276  44.3063751  51.5852434
  20.7515006  55.2107306  42.7745903  19.8442068  54.9796559  42.9737052
  21.2486038  54.4144925  42.9619885  23.6583085  63.9204813  45.6942589
  22.9844784  64.2236510  46.3027547  24.0448907  64.7233894  45.3448046
  22.8741542  51.4169945  55.1840259  21.9564103  51.6384892  55.0261947
  23.2901686  51.4916255  54.3251966  23.6576590  52.8161360  50.3142939
  24.4048409  53.3282757  50.0050061  23.9268179  52.4945413  51.1747332
  21.9303240  55.3119901  47.2969893  21.0214459  55.0278934  47.3942363
  21.9598324  55.7318979  46.4373200  27.1622507  58.9226490  51.0661061
  26.7084834  58.0817400  51.1226251  26.5316474  59.5587889  51.4035841
  26.1055427  49.8518476  52.2961728  25.3678184  49.3395863  52.6271971
  26.3582200  49.4118858  51.4845005  25.6055447  60.7602987  52.0010879
  25.8978421  61.3208044  51.2823244  26.1154067  61.0531548  52.7564038
  26.2067054  42.6294728  52.8903497  26.5125931  41.7692092  52.6029412
  26.9319659  43.2212349  52.6902491  12.4991410  53.0325415  51.2785095
  12.3015810  52.4394776  50.5536162  11.9438074  52.7277625  51.9961034
  20.4788134  52.9248522  53.3979688  20.5336744  51.9722358  53.3222165
  19.6679336  53.0807961  53.8820987  21.6279328  56.8528645  44.6357972
  21.1898758  56.1364504  44.1763609  22.3689769  57.0804759  44.0743063
  18.4180494  51.5425581  51.1570067  17.6048359  51.8419752  51.5635259
  18.9139488  51.1481270  51.8744550  20.5689072  61.5383338  53.0904332
  20.5265251  61.7644184  52.1612864  21.4851771  61.3046713  53.2390133
  24.0154706  52.0067406  59.9884961  24.3704093  52.2338879  60.8479427
  24.6626837  52.3385783  59.3662216  17.9094569  49.1143937  56.7731302
  18.5493948  48.9732696  56.0754266  17.0772099  48.8278450  56.3969904
  18.6854872  58.4146367  52.8866295  19.4795471  57.9196687  52.6848870
  17.9746565  57.8864230  52.5234000  23.5049717  60.7964463  57.2378662
  23.5586739  61.3655399  58.0056378  22.6364498  60.9666348  56.8732699
  14.9937636  52.5589449  48.9626047  14.0635224  52.4973904  49.1796010
  15.0895108  52.0365402  48.1662689  14.9123185  49.0844262  51.5504289
  15.1730002  49.9989595  51.4413450  15.7340357  48.6168704  51.7000902
  16.3848110  50.4982019  58.7203114  17.0571164  50.2899381  58.0715762
  15.5577897  50.3004105  58.2808346  22.2873682  47.1243960  60.7368774
  21.6401597  47.8233910  60.6433251  23.0574698  47.5580104  61.1045023
  25.6952480  57.3892812  63.8119328  25.5437987  57.1603364  62.8949411
  25.6857160  58.3463413  63.8250673  22.4637817  54.9624725  58.7965594
  23.3929877  55.1135884  58.6234561  22.0428847  55.0508746  57.9414241
  21.2626148  58.9875389  56.5664132  21.1237234  58.6194174  57.4390070
  20.4740745  59.5023029  56.3948090  21.8574300  64.0884486  47.9089668
  22.0326056  63.6172529  48.7235291  21.1707088  64.7150252  48.1370929
  22.8131364  58.3656992  53.9552970  22.4781196  58.3257762  54.8510619
  22.3135309  57.7001708  53.4823380  16.7875608  53.7724622  59.4805551
  16.6495406  53.0404861  60.0817090  17.6980531  53.6833522  59.1989738
  25.7490555  55.7113026  44.2290029  25.1319726  54.9859854  44.1323082
  25.2807044  56.4722387  43.8857103  19.4157908  53.4844581  58.9689230
  20.1257527  52.8437773  58.9275849  19.3727216  53.7357476  59.8915411
  18.1286842  50.4709799  60.7884870  17.5924199  50.0200538  61.4406466
  17.5403551  50.6055708  60.0455334  16.4235386  67.2373848  54.6829528
  16.6631984  67.8692373  55.3608547  15.5804582  66.8861888  54.9694888
  17.5389101  49.9298451  43.3511334  16.6618568  49.8087251  42.9873580
  18.0146854  49.1384529  43.0990222   9.0591241  54.7175610  53.4452841
   9.7462281  54.4037340  52.8573856   8.9039370  55.6216975  53.1720092
  13.8625963  49.6065807  57.8737864  13.7784152  48.9991476  57.1388274
  13.0408670  50.0974825  57.8747361  20.9363248  63.0452971  57.0871032
  20.8633419  63.8507942  57.5990337  20.4940641  63.2444937  56.2619054
  20.7253027  62.2824741  50.5973854  19.9420549  62.8246421  50.6912079
  21.4245772  62.7998721  50.9968095  24.0349677  48.0919370  53.2408059
  24.5318377  47.3389333  52.9209130  23.2636659  48.1283687  52.6751269
  23.3961931  62.9439805  59.2429191  24.1089903  63.5787270  59.1705093
  22.9051960  63.0403671  58.4269193  25.1179458  56.8491058  50.8146483
  24.1835737  56.9692520  50.6451187  25.2956126  55.9463524  50.5506493
  20.6184646  50.2336753  52.9679744  20.2482434  49.6807794  53.6560650
  21.1143739  49.6294887  52.4154744  18.4473845  60.6934248  60.0634762
  19.1483304  61.3270731  60.2164156  17.9768960  61.0348980  59.3030401
  26.5728240  59.0352198  48.3482669  26.8488084  58.9208793  49.2576543
  25.7032739  58.6369683  48.3094842  23.2082305  63.2838549  51.9915483
  23.3904699  62.4660205  52.4543235  24.0315291  63.5006241  51.5540373
  23.5424470  62.2106734  49.2530531  24.0712236  61.6999189  48.6400693
  23.8052690  61.8949264  50.1176064  22.2962704  53.9898667  64.3753349
  21.6203341  53.8892796  65.0455725  23.1190338  53.8337881  64.8389347
  14.0441563  60.2270603  56.9965865  14.6295000  59.4814291  57.1293769
  13.8466401  60.5374560  57.8802529  16.8980218  63.2621851  52.0128307
  16.2290593  63.7467978  51.5292347  16.7593088  63.5091071  52.9271686
   8.6359217  52.7976204  55.7170308   8.6743317  52.2639794  56.5107426
   8.1299510  52.2711409  55.0981285  21.0385487  65.2965594  58.6110965
  21.5903795  65.4597216  59.3760051  21.3791680  65.8870032  57.9390990
  16.0149980  47.6440744  59.2132850  16.0791306  48.5055575  58.8010248
  15.9517100  47.0314746  58.4805209  15.4902252  49.7163877  62.8605884
  16.1174291  49.3340954  63.4743409  14.6330171  49.4978079  63.2261577
  25.8896361  60.1226852  64.4659620  26.4336265  60.7356810  63.9714575
  25.3083206  60.6806430  64.9826633  12.2667795  51.5240306  48.7924239
  12.5621236  50.6150984  48.7391293  11.3655831  51.5028045  48.4705242
  24.1753874  63.2447570  55.5974648  24.0505013  62.4437310  55.0885593
  24.8332965  63.7393763  55.1088618  15.7962042  49.5996302  54.7751788
  15.0748628  50.2132270  54.6359261  16.5855298  50.1354067  54.6968434
  26.2388782  61.0456590  57.2254198  25.2919118  60.9261941  57.1532524
  26.5871555  60.1579088  57.3080459  18.5988356  46.9350729  61.0492440
  19.1222757  47.1813025  61.8118749  18.3800689  47.7670764  60.6295577
  13.9955637  49.2054403  48.9163564  13.6668343  48.3251782  48.7338670
  14.3495007  49.1502072  49.8039954  23.2435215  60.8409306  53.4258550
  23.0960178  59.9126014  53.6066120  24.0688709  60.8629397  52.9415625
  17.1097460  49.4927373  49.2839042  17.4493532  50.0213294  48.5617650
  17.5569580  49.8307779  50.0597609  26.8469337  61.6637865  54.5123423
  27.7715885  61.4580726  54.3747874  26.6784641  61.4154266  55.4212764
  19.8040901  47.8764424  58.7342110  19.4637721  47.0772237  59.1362790
  19.0979907  48.1766135  58.1618943  20.4557372  44.9613736  57.1869433
  21.2783442  44.4874215  57.0648323  20.6995436  45.7404220  57.6868119
  19.0965607  47.9901995  47.4832335  19.8173969  48.3683248  46.9796052
  18.4730911  48.7090872  47.5867313  23.2396730  48.6947144  48.4190667
  23.4560344  49.5771782  48.1179495  22.7590797  48.3033357  47.6896309
  17.9795951  51.6532857  54.9961412  17.8340532  51.9673160  55.8885693
  17.5021155  52.2717757  54.4432310  19.8392334  48.6435405  55.0442301
  19.8253903  47.7476498  54.7074599  20.5564762  48.6506069  55.6780587
  21.6918465  49.0772745  57.0895429  21.4336243  49.9989816  57.0879759
  21.1603505  48.6803180  57.7795893  26.6364654  62.1823532  49.8685514
  26.8101531  61.6169955  49.1159367  27.1293545  62.9824427  49.6865004
  12.4541613  54.1938201  57.9349073  11.9095081  54.9698009  58.0669347
  13.3320963  54.5409006  57.7768194  19.2429230  47.5249785  50.3129871
  19.3645141  46.5966431  50.5120759  18.9531272  47.5388471  49.4008187
  22.1120420  45.2104696  53.4496591  22.1342117  45.2744029  52.4948571
  22.5288479  44.3709204  53.6437097  27.6239826  61.4990297  46.9682412
  28.3190731  62.1196989  47.1869727  27.9662976  60.6485648  47.2434790
  13.2407635  53.3208098  60.8279230  12.4989371  53.4690733  61.4143860
  12.9200379  53.5816363  59.9645979  29.5231249  58.9490002  48.4969743
  30.0482573  59.2877275  47.7719063  29.4353602  58.0137018  48.3132878
  21.1851298  62.8624076  60.6259620  21.4938424  62.6173223  61.4982319
  21.9826780  63.0670714  60.1378490  21.2071910  65.0161986  52.8564996
  20.7676900  64.5238364  53.5497853  21.9580027  64.4734953  52.6157072
  13.6864249  61.2073526  52.8589624  14.5122269  60.9077298  52.4788268
  13.3358301  60.4381149  53.3079413  18.6545782  60.5599995  54.9287298
  18.0325791  59.8970700  54.6289526  19.3250649  60.5861127  54.2460946
  11.8872854  59.1259853  53.8178558  11.0504762  58.6982027  53.6362559
  11.8596499  59.3192296  54.7549349  18.7270310  49.0381783  64.5219804
  18.7758465  49.9143905  64.1397574  19.2692824  48.4959176  63.9491447
  18.2159289  59.1103918  48.4045759  18.3647409  59.7939382  47.7512431
  19.0225732  59.0909008  48.9195214  20.9569598  49.7913155  61.2766163
  20.0872907  50.0846721  61.0048751  21.1929078  50.3753600  61.9973426
  15.9711922  55.1369096  49.4106827  15.7257964  54.2331426  49.6087038
  16.1407836  55.1386246  48.4686305  23.6608632  46.0092772  58.7931583
  24.1790576  46.7453799  58.4678072  23.3063765  46.3156765  59.6278342
  15.2407569  50.8697453  46.9092989  14.5476814  50.9441808  46.2533025
  14.9959321  50.1057797  47.4314506  23.9121226  42.4293055  54.3132480
  24.1922980  41.7616244  54.9392906  24.6971833  42.6222150  53.8007143
  21.7154694  61.6052048  45.8757506  21.1428662  62.2242236  45.4227978
  22.2887488  62.1551410  46.4097428  24.9351954  61.8889199  47.0066088
  25.8682627  61.8234760  47.2098964  24.8475167  62.7245465  46.5480621
  27.5639971  61.2055069  43.9670036  27.4853602  60.8714932  44.8605794
  28.3849638  61.6976837  43.9661508  22.1001493  52.9412861  43.2173558
  23.0460598  52.8119069  43.2861976  21.7215738  52.2027523  43.6942987
  28.0723378  44.6068867  53.1800450  27.8748199  44.2983955  54.0643782
  28.6823083  45.3330506  53.3098380  21.9840186  56.9930607  64.6774215
  22.9043195  57.1709206  64.8714262  21.9489769  56.0486653  64.5253915
  20.2844410  50.8662838  43.1528444  19.3775866  50.5695950  43.2291157
  20.5620391  50.5692656  42.2862730  11.2022351  52.1869201  53.6027490
  10.8825135  51.3334509  53.3101864  10.6555779  52.4017779  54.3585457
  14.9802258  54.9031642  57.3196997  15.1988268  55.8348750  57.3385030
  15.3928032  54.5439616  58.1051800  21.9006476  45.4099727  49.3072685
  21.0907204  45.0646812  49.6827931  22.5890893  45.1007271  49.8960297
  23.8297024  44.4877774  50.9296982  24.3828063  44.9073227  51.5887005
  24.0667111  43.5613522  50.9719938  19.8530123  50.4764848  66.7099745
  19.7526850  51.4259205  66.6411837  19.6351665  50.1483087  65.8375816
  19.0543195  47.7249773  43.2940423  19.9162359  48.0504671  43.5536240
  19.2393539  46.9381269  42.7813489  11.0710611  55.8072112  55.5720612
  10.3774082  55.3926065  55.0590566  11.8183602  55.8492649  54.9754031
  27.2075831  46.5978299  50.4375646  26.6274500  47.2563103  50.0553698
  26.9411764  45.7755644  50.0263063  25.6579398  45.9983357  52.6396966
  26.1579176  46.1099891  51.8311285  26.3015006  45.6944410  53.2797775
  19.7161393  53.9061987  65.5264807  19.2328475  54.7062347  65.7328696
  19.8022332  53.9169931  64.5732251  12.9847353  55.7390366  53.4486627
  12.9618041  55.8378054  52.4968510  13.2947990  56.5855517  53.7703793
  15.6434731  57.7966521  57.5633241  16.5977984  57.7650464  57.4963172
  15.4447255  57.3357145  58.3783467  16.2334113  56.3667637  60.1304039
  17.0527002  56.8611716  60.1538876  16.5070921  55.4499605  60.1021606
  25.9900709  48.7578390  49.4931994  25.1026564  49.0428040  49.2752189
  26.4054698  48.5972153  48.6459271  13.9984960  63.3386141  54.5803439
  13.8639428  62.5786542  54.0141437  13.5817022  64.0627041  54.1132228
  25.1343923  58.5223064  43.5880014  25.8379773  58.7273067  44.2037670
  24.4106571  59.0899826  43.8529098  25.9641733  54.2732926  49.7082284
  25.9076934  54.7301477  48.8689917  26.5170075  53.5123610  49.5305127
  17.1554086  64.2355458  54.7921881  17.0386470  65.1800890  54.6900572
  16.3346532  63.9329019  55.1807681  27.0430620  58.9605593  45.6378474
  27.8776224  58.5286792  45.4555949  26.8814963  58.7887607  46.5655369
  26.6976512  55.4637707  47.0034813  26.6425316  55.2981978  46.0623258
  26.0722568  56.1713740  47.1597003  11.4869027  50.7005771  60.8296236
  12.1327891  50.1904725  61.3183461  11.2786178  51.4374453  61.4039661
  24.0122419  57.7686619  66.3288376  24.8813579  57.9427271  65.9675011
  23.5329171  58.5881035  66.2064106  20.0072638  44.9645816  46.5820132
  19.9951308  45.9087656  46.7388403  20.8996060  44.7815961  46.2879593
  18.1808600  64.8883720  58.0077810  19.0835846  64.9207330  58.3244305
  17.9545970  63.9584171  58.0224146  19.9362202  63.6414706  54.6687889
  18.9857833  63.6416568  54.5552261  20.2394688  62.8947441  54.1523923
  23.8224757  41.5588592  50.8366069  23.0557153  41.0047079  50.9822751
  24.2335462  41.6310461  51.6980220  15.8266518  47.8473388  64.9271250
  16.6897980  47.4910193  65.1374574  15.2531929  47.5087283  65.6146654
  32.4804602  69.4302673  55.6695176  32.1423113  69.3143737  54.7815710
  33.3494370  69.0293838  55.6496182  28.3391417  71.2838149  51.6592067
  27.7756282  71.1928086  50.8908354  28.2243812  70.4638054  52.1394559
  32.9624384  70.5837524  61.6281381  32.9513025  70.1890323  60.7561885
  33.1245024  69.8503597  62.2215153  25.8855849  72.7789341  54.4976287
  26.6777141  72.4380165  54.0822586  26.1252499  72.8884316  55.4178440
  33.9190976  74.9509117  46.9706531  33.2678956  75.5363197  46.5840545
  34.7135339  75.4815312  47.0301569  27.8446603  72.0398254  47.3693666
  28.6177479  71.4927241  47.2306542  28.1972002  72.9042503  47.5808127
  29.6831646  73.3674636  60.5760565  29.3921512  74.2720267  60.4607231
  30.3188630  73.4091164  61.2904635  30.6087852  70.7451485  57.1661925
  31.2051425  70.5207507  56.4518888  30.6662824  70.0036230  57.7687373
  30.1812881  68.1990920  45.0012116  30.4338402  67.6772441  44.2395579
  29.2437440  68.0357066  45.1038799  35.3966241  72.6399549  47.5075516
  34.7612074  72.7134175  48.2196420  35.0663647  73.2293148  46.8294595
  29.9009170  70.1019026  47.2036491  29.7845428  69.4263929  47.8717575
  30.0111430  69.6151400  46.3868644  32.2440711  69.5629173  50.9083180
  31.8798918  69.0359794  51.6196101  33.1007826  69.1727642  50.7349665
  31.8846198  64.5919073  45.9044528  32.0520600  65.4599309  46.2714999
  31.6943367  64.7546355  44.9805818  28.0934012  69.5049849  53.6047063
  27.1684509  69.3726063  53.8124755  28.3418425  70.2844068  54.1017006
  38.0418675  65.5718592  55.2507796  37.1335552  65.5034000  54.9566557
  37.9906270  66.0490537  56.0789622  31.8635418  67.0476730  46.8891195
  31.7435044  67.4933781  47.7276676  31.1688007  67.3962048  46.3304733
  25.4542823  69.1483122  54.4390852  25.5835204  69.4017601  55.3530264
  24.7740275  69.7410830  54.1195507  29.6242311  79.8180372  50.5381326
  29.5466340  80.7688197  50.6169807  29.0203954  79.4726245  51.1956253
  30.3705913  69.7993691  62.7560660  31.1120597  70.3378735  62.4795484
  29.6642898  70.4259980  62.9132212  32.1992322  66.8795438  58.7266379
  33.0453517  67.3034852  58.8701028  32.1390960  66.2229062  59.4204942
  31.7218029  72.2398430  52.3735196  32.1856374  72.5186133  51.5839818
  31.4574827  71.3381875  52.1908287  28.6142110  71.7869912  55.3114959
  29.1843467  72.2157180  54.6732444  29.2050222  71.5052496  56.0099145
  30.6586915  68.3621582  49.1824761  31.3610958  68.8142626  49.6498687
  30.3267543  67.7205401  49.8104654  24.4012249  66.6205135  54.4841895
  23.6111303  66.8762664  54.0082005  24.8923496  67.4353473  54.5893935
  26.3526994  66.9849714  51.4425371  25.5558157  67.0968409  51.9608867
  26.1252586  67.3236367  50.5766262  32.1832662  73.5094418  59.3907886
  32.2477094  73.9714825  60.2266058  31.4743586  72.8791782  59.5190196
  22.6849952  66.8735626  56.9156885  22.9357990  67.7582635  57.1814461
  23.2209500  66.6940227  56.1431977  31.8980679  75.1762525  49.2586866
  31.7626354  76.0214061  49.6871714  32.4390492  75.3781803  48.4952800
  25.3510077  72.6937963  49.8314791  25.8634597  73.4881213  49.9820356
  26.0032790  71.9964254  49.7648393  27.1604962  75.8103719  51.9137544
  27.3371590  76.7321684  51.7258528  27.9561795  75.4962139  52.3431924
  26.4457318  67.8568351  61.7899708  26.3310833  66.9553608  62.0906807
  25.5901836  68.1032048  61.4384524  33.5249156  75.7986092  63.3887208
  33.0813010  75.0122470  63.0708113  34.1866369  75.9865242  62.7231099
  28.2836277  77.3281893  57.9147887  28.8343702  77.1998957  57.1424881
  27.4447753  77.6276782  57.5642780  32.0803448  73.5933021  62.2592118
  32.6131785  72.8321309  62.0291426  31.5517529  73.3006673  63.0016272
  23.3158994  71.0226617  50.6074362  24.1534216  71.4323626  50.3908070
  23.4937261  70.0826060  50.5774556  35.2123426  68.6901698  46.2958195
  34.6970049  69.4606303  46.5346582  34.9400734  68.0166834  46.9191256
  32.7970537  63.5351399  51.3543433  31.9412133  63.1458249  51.1749072
  33.2097489  63.6143360  50.4943219  35.0009729  66.5628790  48.1217976
  34.6959864  66.8774939  48.9728119  35.9540171  66.6410210  48.1645309
  33.4456161  72.7219013  49.7710930  32.9177522  71.9871773  49.4584167
  32.9443663  73.4993690  49.5250898  28.1774888  63.3838680  52.1317541
  28.7518640  63.1613861  51.3990734  28.7645871  63.4527374  52.8846143
  28.5044475  65.4143141  46.1513427  27.6681788  65.7517827  46.4722701
  28.3649245  65.2792121  45.2140564  31.5908761  70.5399224  42.7745903
  30.6835823  70.3088477  42.9737052  32.0879793  69.7436843  42.9619885
  34.4976840  79.2496731  45.6942589  33.8238539  79.5528428  46.3027547
  34.8842662  80.0525811  45.3448046  33.7135296  66.7461862  55.1840259
  32.7957858  66.9676809  55.0261947  34.1295440  66.8208173  54.3251966
  34.4970344  68.1453278  50.3142939  35.2442163  68.6574675  50.0050061
  34.7661934  67.8237331  51.1747332  32.7696994  70.6411819  47.2969893
  31.8608214  70.3570851  47.3942363  32.7992078  71.0610897  46.4373200
  23.3385165  68.3617333  51.2785095  23.1409565  67.7686693  50.5536162
  22.7831829  68.0569543  51.9961034  31.3181888  68.2540439  53.3979688
  31.3730498  67.3014276  53.3222165  30.5073090  68.4099878  53.8820987
  32.4673082  72.1820562  44.6357972  32.0292512  71.4656421  44.1763609
  33.2083523  72.4096677  44.0743063  29.2574248  66.8717499  51.1570067
  28.4442114  67.1711669  51.5635259  29.7533243  66.4773188  51.8744550
  31.4082826  76.8675256  53.0904332  31.3659005  77.0936102  52.1612864
  32.3245525  76.6338630  53.2390133  28.7488323  64.4435854  56.7731302
  29.3887702  64.3024614  56.0754266  27.9165854  64.1570368  56.3969904
  29.5248627  73.7438285  52.8866295  30.3189225  73.2488605  52.6848870
  28.8140319  73.2156148  52.5234000  25.8331390  67.8881367  48.9626047
  24.9028979  67.8265822  49.1796010  25.9288862  67.3657319  48.1662689
  25.7516939  64.4136179  51.5504289  26.0123757  65.3281513  51.4413450
  26.5734112  63.9460622  51.7000902  27.2241865  65.8273937  58.7203114
  27.8964918  65.6191299  58.0715762  26.3971651  65.6296023  58.2808346
  33.3031571  70.2916642  58.7965594  34.2323631  70.4427802  58.6234561
  32.8822601  70.3800663  57.9414241  32.1019903  74.3167307  56.5664132
  31.9630989  73.9486091  57.4390070  31.3134499  74.8314946  56.3948090
  32.6968055  79.4176403  47.9089668  32.8719811  78.9464447  48.7235291
  32.0100843  80.0442170  48.1370929  27.6269362  69.1016540  59.4805551
  27.4889160  68.3696778  60.0817090  28.5374286  69.0125440  59.1989738
  36.5884310  71.0404944  44.2290029  35.9713480  70.3151772  44.1323082
  36.1200798  71.8014304  43.8857103  30.2551663  68.8136499  58.9689230
  30.9651281  68.1729691  58.9275849  30.2120971  69.0649394  59.8915411
  27.2629140  82.5665766  54.6829528  27.5025738  83.1984290  55.3608547
  26.4198337  82.2153806  54.9694888  28.3782856  65.2590368  43.3511334
  27.5012322  65.1379169  42.9873580  28.8540609  64.4676447  43.0990222
  19.8984996  70.0467528  53.4452841  20.5856036  69.7329258  52.8573856
  19.7433125  70.9508893  53.1720092  24.7019718  64.9357724  57.8737864
  24.6177907  64.3283394  57.1388274  23.8802424  65.4266743  57.8747361
  31.7757002  78.3744889  57.0871032  31.7027174  79.1799860  57.5990337
  31.3334395  78.5736854  56.2619054  31.5646782  77.6116659  50.5973854
  30.7814304  78.1538339  50.6912079  32.2639527  78.1290638  50.9968095
  34.8743432  63.4211288  53.2408059  35.3712131  62.6681250  52.9209130
  34.1030413  63.4575605  52.6751269  31.4578401  65.5628671  52.9679744
  31.0876188  65.0099711  53.6560650  31.9537493  64.9586804  52.4154744
  29.2867599  76.0226166  60.0634762  29.9877059  76.6562649  60.2164156
  28.8162714  76.3640898  59.3030401  34.0476059  78.6130467  51.9915483
  34.2298454  77.7952123  52.4543235  34.8709045  78.8298159  51.5540373
  34.3818224  77.5398652  49.2530531  34.9105991  77.0291106  48.6400693
  34.6446444  77.2241182  50.1176064  24.8835317  75.5562521  56.9965865
  25.4688754  74.8106209  57.1293769  24.6860156  75.8666478  57.8802529
  27.7373972  78.5913768  52.0128307  27.0684348  79.0759896  51.5292347
  27.5986842  78.8382989  52.9271686  19.4752972  68.1268121  55.7170308
  19.5137071  67.5931712  56.5107426  18.9693265  67.6003327  55.0981285
  31.8779241  80.6257512  58.6110965  32.4297549  80.7889133  59.3760051
  32.2185434  81.2161950  57.9390990  26.8543734  62.9732662  59.2132850
  26.9185061  63.8347493  58.8010248  26.7910854  62.3606663  58.4805209
  23.1061550  66.8532223  48.7924239  23.4014991  65.9442902  48.7391293
  22.2049585  66.8319963  48.4705242  35.0147628  78.5739488  55.5974648
  34.8898768  77.7729227  55.0885593  35.6726719  79.0685681  55.1088618
  26.6355797  64.9288220  54.7751788  25.9142382  65.5424188  54.6359261
  27.4249052  65.4645985  54.6968434  24.8349391  64.5346321  48.9163564
  24.5062097  63.6543700  48.7338670  25.1888762  64.4793990  49.8039954
  34.0828970  76.1701224  53.4258550  33.9353932  75.2417931  53.6066120
  34.9082463  76.1921315  52.9415625  27.9491214  64.8219291  49.2839042
  28.2887287  65.3505212  48.5617650  28.3963335  65.1599697  50.0597609
  29.9359361  63.3193912  47.4832335  30.6567724  63.6975165  46.9796052
  29.3124666  64.0382789  47.5867313  28.8189706  66.9824775  54.9961412
  28.6734286  67.2965078  55.8885693  28.3414909  67.6009675  54.4432310
  30.6786089  63.9727323  55.0442301  30.6647657  63.0768416  54.7074599
  31.3958517  63.9797986  55.6780587  32.5312219  64.4064663  57.0895429
  32.2729997  65.3281734  57.0879759  31.9997260  64.0095097  57.7795893
  23.2935368  69.5230119  57.9349073  22.7488836  70.2989927  58.0669347
  24.1714718  69.8700924  57.7768194  30.0822984  62.8541703  50.3129871
  30.2038896  61.9258349  50.5120759  29.7925027  62.8680389  49.4008187
  24.0801390  68.6500015  60.8279230  23.3383126  68.7982651  61.4143860
  23.7594134  68.9108281  59.9645979  32.0245052  78.1915994  60.6259620
  32.3332179  77.9465140  61.4982319  32.8220534  78.3962632  60.1378490
  32.0465664  80.3453903  52.8564996  31.6070655  79.8530282  53.5497853
  32.7973781  79.8026871  52.6157072  24.5258003  76.5365444  52.8589624
  25.3516023  76.2369216  52.4788268  24.1752055  75.7673067  53.3079413
  29.4939537  75.8891912  54.9287298  28.8719546  75.2262617  54.6289526
  30.1644403  75.9153044  54.2460946  22.7266608  74.4551771  53.8178558
  21.8898517  74.0273945  53.6362559  22.6990254  74.6484214  54.7549349
  29.0553043  74.4395836  48.4045759  29.2041164  75.1231300  47.7512431
  29.8619487  74.4200926  48.9195214  26.8105676  70.4661013  49.4106827
  26.5651718  69.5623343  49.6087038  26.9801591  70.4678164  48.4686305
  26.0801324  66.1989371  46.9092989  25.3870569  66.2733726  46.2533025
  25.8353076  65.4349714  47.4314506  32.5548449  76.9343966  45.8757506
  31.9822416  77.5534153  45.4227978  33.1281243  77.4843328  46.4097428
  38.6223839  66.1802606  58.0604055  39.5741262  66.2800704  58.0816279
  38.4527289  65.3880875  58.5702139  35.7745709  77.2181116  47.0066088
  36.7076382  77.1526678  47.2098964  35.6868922  78.0537383  46.5480621
  32.9395247  68.2704779  43.2173558  33.8854352  68.1410987  43.2861976
  32.5609492  67.5319441  43.6942987  31.1238165  66.1954755  43.1528444
  30.2169620  65.8987868  43.2291157  31.4014146  65.8984573  42.2862730
  22.0416105  67.5161119  53.6027490  21.7218889  66.6626427  53.3101864
  21.4949533  67.7309697  54.3585457  25.8196013  70.2323560  57.3196997
  26.0382022  71.1640667  57.3385030  26.2321786  69.8731534  58.1051800
  29.8936949  63.0541690  43.2940423  30.7556113  63.3796589  43.5536240
  30.0787293  62.2673186  42.7813489  21.9104365  71.1364030  55.5720612
  21.2167836  70.7217983  55.0590566  22.6577356  71.1784567  54.9754031
  23.8241108  71.0682284  53.4486627  23.8011796  71.1669971  52.4968510
  24.1341744  71.9147435  53.7703793  26.4828485  73.1258439  57.5633241
  27.4371739  73.0942381  57.4963172  26.2841009  72.6649063  58.3783467
  27.0727868  71.6959555  60.1304039  27.8920757  72.1903634  60.1538876
  27.3464675  70.7791523  60.1021606  24.8378714  78.6678058  54.5803439
  24.7033182  77.9078459  54.0141437  24.4210776  79.3918958  54.1132228
  35.9737677  73.8514982  43.5880014  36.6773527  74.0564984  44.2037670
  35.2500326  74.4191744  43.8529098  27.9947840  79.5647375  54.7921881
  27.8780224  80.5092808  54.6900572  27.1740286  79.2620937  55.1807681
  22.3262782  66.0297689  60.8296236  22.9721645  65.5196643  61.3183461
  22.1179933  66.7666370  61.4039661  30.8466392  60.2937733  46.5820132
  30.8345062  61.2379573  46.7388403  31.7389814  60.1107879  46.2879593
  29.0202354  80.2175637  58.0077810  29.9229601  80.2499248  58.3244305
  28.7939724  79.2876088  58.0224146  30.7755956  78.9706624  54.6687889
  29.8251587  78.9708485  54.5552261  31.0788442  78.2239358  54.1523923
  39.1785172  86.6130067  51.6592067  38.6150037  86.5220004  50.8908354
  39.0637567  85.7929971  52.1394559  43.8018139  85.9129442  61.6281381
  43.7906780  85.5182240  60.7561885  43.9638778  85.1795515  62.2215153
  36.7249604  88.1081258  54.4976287  37.5170896  87.7672083  54.0822586
  36.9646254  88.2176233  55.4178440  44.7584730  90.2801034  46.9706531
  44.1072710  90.8655115  46.5840545  45.5529093  90.8107229  47.0301569
  38.6840358  87.3690172  47.3693666  39.4571234  86.8219159  47.2306542
  39.0365756  88.2334421  47.5808127  40.5225400  88.6966554  60.5760565
  40.2315266  89.6012185  60.4607231  41.1582384  88.7383082  61.2904635
  41.4481607  86.0743402  57.1661925  42.0445179  85.8499425  56.4518888
  41.5056579  85.3328148  57.7687373  41.0206635  83.5282838  45.0012116
  41.2732156  83.0064359  44.2395579  40.0831194  83.3648983  45.1038799
  46.2359996  87.9691466  47.5075516  45.6005829  88.0426093  48.2196420
  45.9057402  88.5585065  46.8294595  40.7402924  85.4310944  47.2036491
  40.6239182  84.7555847  47.8717575  40.8505184  84.9443318  46.3868644
  43.0834465  84.8921091  50.9083180  42.7192672  84.3651712  51.6196101
  43.9401581  84.5019560  50.7349665  38.9327767  84.8341766  53.6047063
  38.0078263  84.7017980  53.8124755  39.1812180  85.6135986  54.1017006
  36.2936578  84.4775040  54.4390852  36.4228959  84.7309519  55.3530264
  35.6134029  85.0702748  54.1195507  40.4636065  95.1472290  50.5381326
  40.3860095  96.0980115  50.6169807  39.8597709  94.8018162  51.1956253
  41.2099667  85.1285609  62.7560660  41.9514351  85.6670653  62.4795484
  40.5036653  85.7551897  62.9132212  42.5611783  87.5690348  52.3735196
  43.0250129  87.8478051  51.5839818  42.2968581  86.6673792  52.1908287
  39.4535864  87.1161829  55.3114959  40.0237221  87.5449098  54.6732444
  40.0443976  86.8344414  56.0099145  41.4980669  83.6913500  49.1824761
  42.2004713  84.1434544  49.6498687  41.1661298  83.0497319  49.8104654
  35.2406003  81.9497053  54.4841895  34.4505057  82.2054581  54.0082005
  35.7317251  82.7645391  54.5893935  37.1920749  82.3141632  51.4425371
  36.3951912  82.4260326  51.9608867  36.9646341  82.6528284  50.5766262
  43.0226416  88.8386335  59.3907886  43.0870849  89.3006742  60.2266058
  42.3137340  88.2083700  59.5190196  33.5243706  82.2027543  56.9156885
  33.7751745  83.0874553  57.1814461  34.0603255  82.0232145  56.1431977
  42.7374434  90.5054443  49.2586866  42.6020109  91.3505978  49.6871714
  43.2784246  90.7073720  48.4952800  36.1903831  88.0229881  49.8314791
  36.7028352  88.8173131  49.9820356  36.8426544  87.3256171  49.7648393
  37.9998716  91.1395637  51.9137544  38.1765344  92.0613602  51.7258528
  38.7955550  90.8254056  52.3431924  37.2851073  83.1860269  61.7899708
  37.1704588  82.2845526  62.0906807  36.4295590  83.4323966  61.4384524
  44.3642910  91.1278009  63.3887208  43.9206764  90.3414388  63.0708113
  45.0260124  91.3157160  62.7231099  39.1230031  92.6573811  57.9147887
  39.6737457  92.5290874  57.1424881  38.2841507  92.9568700  57.5642780
  46.4624148  91.4080809  61.4168610  46.4442624  92.2289690  60.9248879
  47.3844068  91.2834884  61.6418751  42.9197203  88.9224939  62.2592118
  43.4525539  88.1613227  62.0291426  42.3911284  88.6298590  63.0016272
  34.1552748  86.3518535  50.6074362  34.9927970  86.7615543  50.3908070
  34.3331016  85.4117977  50.5774556  44.2849915  88.0510931  49.7710930
  43.7571277  87.3163691  49.4584167  43.7837418  88.8285607  49.5250898
  39.0168643  78.7130597  52.1317541  39.5912395  78.4905779  51.3990734
  39.6039625  78.7819292  52.8846143  39.3438230  80.7435058  46.1513427
  38.5075542  81.0809745  46.4722701  39.2043000  80.6084038  45.2140564
  42.4302515  85.8691141  42.7745903  41.5229577  85.6380395  42.9737052
  42.9273547  85.0728761  42.9619885  45.3370594  94.5788649  45.6942589
  44.6632293  94.8820345  46.3027547  45.7236416  95.3817729  45.3448046
  43.6090749  85.9703736  47.2969893  42.7001968  85.6862769  47.3942363
  43.6385833  86.3902815  46.4373200  48.8410016  89.5810326  51.0661061
  48.3872343  88.7401236  51.1226251  48.2103983  90.2171724  51.4035841
  47.2842956  91.4186822  52.0010879  47.5765930  91.9791880  51.2823244
  47.7941576  91.7115383  52.7564038  34.1778919  83.6909250  51.2785095
  33.9803319  83.0978611  50.5536162  33.6225583  83.3861461  51.9961034
  43.3066837  87.5112480  44.6357972  42.8686267  86.7948339  44.1763609
  44.0477278  87.7388595  44.0743063  42.2476581  92.1967174  53.0904332
  42.2052759  92.4228020  52.1612864  43.1639280  91.9630548  53.2390133
  40.3642381  89.0730203  52.8866295  41.1582980  88.5780523  52.6848870
  39.6534074  88.5448066  52.5234000  45.1837226  91.4548298  57.2378662
  45.2374248  92.0239234  58.0056378  44.3152007  91.6250183  56.8732699
  36.6725145  83.2173284  48.9626047  35.7422733  83.1557740  49.1796010
  36.7682617  82.6949237  48.1662689  36.5910694  79.7428097  51.5504289
  36.8517511  80.6573430  51.4413450  37.4127866  79.2752540  51.7000902
  38.0635619  81.1565854  58.7203114  38.7358673  80.9483216  58.0715762
  37.2365406  80.9587940  58.2808346  42.9413657  89.6459225  56.5664132
  42.8024743  89.2778009  57.4390070  42.1528254  90.1606864  56.3948090
  43.5361809  94.7468321  47.9089668  43.7113565  94.2756364  48.7235291
  42.8494597  95.3734087  48.1370929  38.4663117  84.4308457  59.4805551
  38.3282915  83.6988696  60.0817090  39.3768040  84.3417357  59.1989738
  41.0945417  84.1428417  58.9689230  41.8045036  83.5021609  58.9275849
  41.0514725  84.3941311  59.8915411  38.1022895  97.8957684  54.6829528
  38.3419493  98.5276208  55.3608547  37.2592091  97.5445724  54.9694888
  39.2176610  80.5882286  43.3511334  38.3406076  80.4671087  42.9873580
  39.6934363  79.7968364  43.0990222  30.7378750  85.3759446  53.4452841
  31.4249790  85.0621176  52.8573856  30.5826879  86.2800810  53.1720092
  35.5413472  80.2649642  57.8737864  35.4571661  79.6575312  57.1388274
  34.7196179  80.7558660  57.8747361  42.6150757  93.7036806  57.0871032
  42.5420928  94.5091778  57.5990337  42.1728150  93.9028772  56.2619054
  42.4040536  92.9408576  50.5973854  41.6208058  93.4830256  50.6912079
  43.1033281  93.4582556  50.9968095  45.0749440  93.6023640  59.2429191
  45.7877412  94.2371105  59.1705093  44.5839469  93.6987506  58.4269193
  40.1261354  91.3518084  60.0634762  40.8270813  91.9854567  60.2164156
  39.6556469  91.6932815  59.3030401  48.2515749  89.6936033  48.3482669
  48.5275593  89.5792628  49.2576543  47.3820248  89.2953518  48.3094842
  44.8869813  93.9422384  51.9915483  45.0692208  93.1244040  52.4543235
  45.7102800  94.1590077  51.5540373  45.2211979  92.8690569  49.2530531
  45.7499745  92.3583024  48.6400693  45.4840199  92.5533100  50.1176064
  35.7229072  90.8854439  56.9965865  36.3082509  90.1398127  57.1293769
  35.5253910  91.1958395  57.8802529  38.5767727  93.9205686  52.0128307
  37.9078102  94.4051814  51.5292347  38.4380597  94.1674907  52.9271686
  30.3146726  83.4560039  55.7170308  30.3530826  82.9223630  56.5107426
  29.8087019  82.9295244  55.0981285  42.7172996  95.9549430  58.6110965
  43.2691304  96.1181051  59.3760051  43.0579189  96.5453867  57.9390990
  33.9455304  82.1824141  48.7924239  34.2408745  81.2734820  48.7391293
  33.0443340  82.1611881  48.4705242  45.8541383  93.9031405  55.5974648
  45.7292522  93.1021145  55.0885593  46.5120474  94.3977599  55.1088618
  37.4749551  80.2580138  54.7751788  36.7536137  80.8716105  54.6359261
  38.2642807  80.7937903  54.6968434  47.9176291  91.7040425  57.2254198
  46.9706627  91.5845776  57.1532524  48.2659064  90.8162923  57.3080459
  35.6743146  79.8638239  48.9163564  35.3455852  78.9835618  48.7338670
  36.0282516  79.8085907  49.8039954  44.9222724  91.4993141  53.4258550
  44.7747687  90.5709849  53.6066120  45.7476218  91.5213232  52.9415625
  38.7884969  80.1511209  49.2839042  39.1281041  80.6797130  48.5617650
  39.2357089  80.4891615  50.0597609  48.5256846  92.3221700  54.5123423
  49.4503394  92.1164562  54.3747874  48.3572150  92.0738101  55.4212764
  41.4828410  78.5348259  58.7342110  41.1425230  77.7356072  59.1362790
  40.7767416  78.8349970  58.1618943  40.7753116  78.6485830  47.4832335
  41.4961478  79.0267083  46.9796052  40.1518420  79.3674707  47.5867313
  39.6583460  82.3116692  54.9961412  39.5128041  82.6256995  55.8885693
  39.1808664  82.9301593  54.4432310  41.5179843  79.3019240  55.0442301
  41.5041412  78.4060334  54.7074599  42.2352271  79.3089904  55.6780587
  43.3705974  79.7356581  57.0895429  43.1123752  80.6573651  57.0879759
  42.8391014  79.3387015  57.7795893  48.3152163  92.8407368  49.8685514
  48.4889040  92.2753790  49.1159367  48.8081054  93.6408263  49.6865004
  34.1329122  84.8522037  57.9349073  33.5882590  85.6281845  58.0669347
  35.0108472  85.1992841  57.7768194  40.9216739  78.1833621  50.3129871
  41.0432650  77.2550267  50.5120759  40.6318781  78.1972307  49.4008187
  49.3027335  92.1574132  46.9682412  49.9978240  92.7780825  47.1869727
  49.6450485  91.3069483  47.2434790  34.9195144  83.9791933  60.8279230
  34.1776880  84.1274568  61.4143860  34.5987888  84.2400199  59.9645979
  51.2018758  89.6073838  48.4969743  51.7270082  89.9461110  47.7719063
  51.1141111  88.6720853  48.3132878  42.8638807  93.5207911  60.6259620
  43.1725933  93.2757058  61.4982319  43.6614289  93.7254550  60.1378490
  42.8859419  95.6745821  52.8564996  42.4464409  95.1822200  53.5497853
  43.6367536  95.1318789  52.6157072  35.3651758  91.8657362  52.8589624
  36.1909778  91.5661134  52.4788268  35.0145810  91.0964984  53.3079413
  40.3333291  91.2183830  54.9287298  39.7113300  90.5554535  54.6289526
  41.0038158  91.2444962  54.2460946  33.5660363  89.7843688  53.8178558
  32.7292271  89.3565863  53.6362559  33.5384008  89.9776132  54.7549349
  39.8946798  89.7687753  48.4045759  40.0434918  90.4523218  47.7512431
  40.7013241  89.7492843  48.9195214  53.7124418  87.0749029  53.8798261
  54.5471310  87.5138833  54.0435822  53.8483547  86.5987682  53.0606507
  37.6499431  85.7952931  49.4106827  37.4045473  84.8915261  49.6087038
  37.8195345  85.7970081  48.4686305  36.9195078  81.5281289  46.9092989
  36.2264323  81.6025644  46.2533025  36.6746830  80.7641632  47.4314506
  43.3942203  92.2635884  45.8757506  42.8216171  92.8826071  45.4227978
  43.9674997  92.8135245  46.4097428  46.6139463  92.5473034  47.0066088
  47.5470136  92.4818596  47.2098964  46.5262676  93.3829301  46.5480621
  49.2427480  91.8638904  43.9670036  49.1641111  91.5298768  44.8605794
  50.0637147  92.3560672  43.9661508  43.7789002  83.5996697  43.2173558
  44.7248107  83.4702905  43.2861976  43.4003247  82.8611358  43.6942987
  43.6627694  87.6514443  64.6774215  44.5830704  87.8293042  64.8714262
  43.6277278  86.7070488  64.5253915  41.9631919  81.5246673  43.1528444
  41.0563375  81.2279786  43.2291157  42.2407900  81.2276491  42.2862730
  32.8809859  82.8453036  53.6027490  32.5612644  81.9918345  53.3101864
  32.3343288  83.0601614  54.3585457  36.6589767  85.5615477  57.3196997
  36.8775777  86.4932585  57.3385030  37.0715541  85.2023452  58.1051800
  32.7498120  86.4655948  55.5720612  32.0561591  86.0509901  55.0590566
  33.4971111  86.5076484  54.9754031  41.3948902  84.5645822  65.5264807
  40.9115984  85.3646182  65.7328696  41.4809841  84.5753767  64.5732251
  34.6634862  86.3974202  53.4486627  34.6405550  86.4961889  52.4968510
  34.9735499  87.2439352  53.7703793  37.3222240  88.4550357  57.5633241
  38.2765493  88.4234299  57.4963172  37.1234763  87.9940980  58.3783467
  37.9121622  87.0251473  60.1304039  38.7314511  87.5195551  60.1538876
  38.1858430  86.1083441  60.1021606  35.6772469  93.9969976  54.5803439
  35.5426937  93.2370377  54.0141437  35.2604531  94.7210876  54.1132228
  46.8131432  89.1806900  43.5880014  47.5167282  89.3856902  44.2037670
  46.0894080  89.7483662  43.8529098  38.8341595  94.8939293  54.7921881
  38.7173979  95.8384726  54.6900572  38.0134041  94.5912855  55.1807681
  48.7218129  89.6189429  45.6378474  49.5563733  89.1870627  45.4555949
  48.5602472  89.4471443  46.5655369  33.1656536  81.3589607  60.8296236
  33.8115400  80.8488561  61.3183461  32.9573687  82.0958288  61.4039661
  39.8596109  95.5467555  58.0077810  40.7623355  95.5791165  58.3244305
  39.6333479  94.6168006  58.0224146  41.6149711  94.2998542  54.6687889
  40.6645342  94.3000403  54.5552261  41.9182197  93.5531276  54.1523923
  57.3502404 100.1359080  55.7333651  57.9880814 100.0165827  55.0296991
  57.2323247 101.0839924  55.7921603  54.1592110 100.0886508  55.6695176
  53.8210622  99.9727573  54.7815710  55.0281879  99.6877673  55.6496182
  50.0178926 101.9421984  51.6592067  49.4543791 101.8511921  50.8908354
  49.9031321 101.1221889  52.1394559  54.6411893 101.2421360  61.6281381
  54.6300534 100.8474158  60.7561885  54.8032533 100.5087432  62.2215153
  47.5643358 103.4373176  54.4976287  48.3564650 103.0964001  54.0822586
  47.8040008 103.5468151  55.4178440  55.5978485 105.6092952  46.9706531
  54.9466465 106.1947033  46.5840545  56.3922848 106.1399147  47.0301569
  49.5234112 102.6982089  47.3693666  50.2964988 102.1511076  47.2306542
  49.8759511 103.5626339  47.5808127  51.3619155 104.0258472  60.5760565
  51.0709021 104.9304102  60.4607231  51.9976139 104.0674999  61.2904635
  52.2875361 101.4035320  57.1661925  52.8838934 101.1791343  56.4518888
  52.3450333 100.6620066  57.7687373  51.8600390  98.8574755  45.0012116
  52.1125911  98.3356277  44.2395579  50.9224949  98.6940901  45.1038799
  56.9043673  97.8610534  52.8086859  57.6906762  97.4429957  52.4577276
  57.1682377  98.7656626  52.9768507  57.0753750 103.2983384  47.5075516
  56.4399583 103.3718011  48.2196420  56.7451156 103.8876983  46.8294595
  62.3052100  97.7985767  53.7119837  63.0377272  97.2284984  53.9457667
  61.5491456  97.4107367  54.1526343  51.5796679 100.7602861  47.2036491
  51.4632937 100.0847765  47.8717575  51.6898939 100.2735235  46.3868644
  53.9228220 100.2213009  50.9083180  53.5586427  99.6943629  51.6196101
  54.7795335  99.8311478  50.7349665  59.8277520  91.5107341  58.1714446
  59.4960845  92.3802752  57.9475661  59.2323134  91.1943625  58.8508476
  53.5633707  95.2502908  45.9044528  53.7308109  96.1183145  46.2714999
  53.3730876  95.4130190  44.9805818  56.3209040 103.7119887  57.5710359
  56.0209763 104.6144926  57.4626166  55.9760099 103.4452070  58.4231512
  49.7721521 100.1633684  53.6047063  48.8472018 100.0309898  53.8124755
  50.0205934 100.9427903  54.1017006  59.7206183  96.2302427  55.2507796
  58.8123061  96.1617836  54.9566557  59.6693779  96.7074372  56.0789622
  53.5422927  97.7060566  46.8891195  53.4222553  98.1517616  47.7276676
  52.8475516  98.0545883  46.3304733  47.1330332  99.8066957  54.4390852
  47.2622713 100.0601436  55.3530264  46.4527784 100.3994665  54.1195507
  53.7947049  97.6492073  63.1942693  53.0180383  98.2085993  63.1845558
  54.4337612  98.1348856  63.7157563  61.5867830  94.4318866  57.0285670
  60.9442210  94.7251399  56.3825465  61.0822758  94.3171786  57.8338867
  59.2407994  98.1782039  47.7171529  60.1525850  98.4109426  47.5419227
  58.7317641  98.7619083  47.1546608  52.0493422 100.4577526  62.7560660
  52.7908106 100.9962570  62.4795484  51.3430407 101.0843815  62.9132212
  57.5248761 102.6006667  61.3532822  57.9332117 102.1589077  60.6087454
  56.8026023 102.0259294  61.6067015  53.8779831  97.5379273  58.7266379
  54.7241026  97.9618687  58.8701028  53.8178469  96.8812898  59.4204942
  57.8477576 103.1607857  55.1085111  57.2186438 103.3253571  54.4061179
  57.4603238 103.5749467  55.8796075  61.7266808 104.0962295  52.4629475
  61.0417846 104.4761197  51.9126508  61.8110657 104.7057622  53.1961422
  57.0279277  95.1983642  60.3847552  56.7840208  95.9525702  59.8481828
  57.3039207  95.5768989  61.2194800  58.9817739 101.7422254  59.0624818
  59.1934635 102.3854014  58.3859199  58.9347488 100.9084571  58.5946748
  56.5843968  94.3540075  55.9661390  55.7228447  94.6521328  56.2578128
  56.6106403  94.5710474  55.0342423  53.4005538 102.8982265  52.3735196
  53.8643883 103.1769968  51.5839818  53.1362336 101.9965710  52.1908287
  50.2929619 102.4453747  55.3114959  50.8630976 102.8741015  54.6732444
  50.8837731 102.1636332  56.0099145  52.3374424  99.0205418  49.1824761
  53.0398467  99.4726461  49.6498687  52.0055052  98.3789237  49.8104654
  50.7854785  97.6117174  63.5575970  50.1553446  98.2933455  63.7911367
  50.6790873  97.5000256  62.6129109  46.0799758  97.2788970  54.4841895
  45.2898812  97.5346499  54.0082005  46.5711005  98.0937308  54.5893935
  60.0963567 104.6194210  57.2347175  60.9181011 104.2174397  56.9529857
  60.0925970 104.5162444  58.1863291  48.0314503  97.6433550  51.4425371
  47.2345666  97.7552244  51.9608867  47.8040095  97.9820202  50.5766262
  53.8620171 104.1678253  59.3907886  53.9264603 104.6298660  60.2266058
  53.1531095 103.5375618  59.5190196  44.3637461  97.5319461  56.9156885
  44.6145499  98.4166471  57.1814461  44.8997009  97.3524062  56.1431977
  68.1869560 100.9632958  53.5832147  67.4333269 100.3940356  53.4276151
  68.3217102 100.9295623  54.5302782  53.5768188 105.8346360  49.2586866
  53.4413863 106.6797896  49.6871714  54.1178001 106.0365638  48.4952800
  47.0297586 103.3521798  49.8314791  47.5422106 104.1465049  49.9820356
  47.6820299 102.6548089  49.7648393  48.8392471 106.4687555  51.9137544
  49.0159099 107.3905519  51.7258528  49.6349304 106.1545974  52.3431924
  52.9803489  93.3295819  63.5121478  53.7213202  93.9302972  63.4325940
  53.2121412  92.5873457  62.9539521  48.1244827  98.5152187  61.7899708
  48.0098342  97.6137444  62.0906807  47.2689345  98.7615883  61.4384524
  55.2036665 106.4569927  63.3887208  54.7600519 105.6706305  63.0708113
  55.8653878 106.6449077  62.7231099  49.9623786 107.9865729  57.9147887
  50.5131211 107.8582792  57.1424881  49.1235262 108.2860618  57.5642780
  57.3017903 106.7372727  61.4168610  57.2836378 107.5581608  60.9248879
  58.2237823 106.6126802  61.6418751  53.7590957 104.2516856  62.2592118
  54.2919294 103.4905145  62.0291426  53.2305038 103.9590508  63.0016272
  44.9946503 101.6810453  50.6074362  45.8321725 102.0907461  50.3908070
  45.1724770 100.7409895  50.5774556  56.8910935  99.3485533  46.2958195
  56.3757558 100.1190138  46.5346582  56.6188243  98.6750670  46.9191256
  54.4758046  94.1935234  51.3543433  53.6199642  93.8042085  51.1749072
  54.8884998  94.2727195  50.4943219  56.0057192  91.7281577  55.7534993
  55.5021988  91.6911713  54.9402798  56.2987799  92.6374320  55.8131650
  52.2500078  91.8120307  54.7601175  53.1153075  91.6163116  54.4007064
  52.3177587  91.5830659  55.6870531  61.8645209 102.1017888  48.2311368
  61.0874652 101.7629048  47.7866530  62.5436690 102.1070511  47.5566333
  56.6797238  97.2212625  48.1217976  56.3747373  97.5358775  48.9728119
  57.6327680  97.2994045  48.1645309  55.1243670 103.3802849  49.7710930
  54.5965031 102.6455608  49.4584167  54.6231172 104.1577525  49.5250898
  60.1036516 101.5751869  54.8877976  59.4460190 102.2651131  54.9758105
  60.9076915 101.9648301  55.2311963  49.8562397  94.0422515  52.1317541
  50.4306149  93.8197697  51.3990734  50.4433380  94.1111210  52.8846143
  58.9141975  99.9296242  52.9381918  59.4273856 100.5626234  53.4403628
  59.5643198  99.3297437  52.5725278  50.1831984  96.0726976  46.1513427
  49.3469297  96.4101663  46.4722701  50.0436754  95.9375956  45.2140564
  52.1585065  90.9163764  50.8592611  51.5049477  90.6012781  50.2349226
  52.1165539  90.2939504  51.5852434  53.2696270 101.1983059  42.7745903
  52.3623332 100.9672313  42.9737052  53.7667302 100.4020678  42.9619885
  56.1764349 109.9080566  45.6942589  55.5026048 110.2112263  46.3027547
  56.5630171 110.7109647  45.3448046  55.3922805  97.4045698  55.1840259
  54.4745367  97.6260645  55.0261947  55.8082949  97.4792008  54.3251966
  56.1757853  98.8037113  50.3142939  56.9229672  99.3158510  50.0050061
  56.4449443  98.4821166  51.1747332  54.4484503 101.2995654  47.2969893
  53.5395723 101.0154687  47.3942363  54.4779587 101.7194732  46.4373200
  59.6803771 104.9102243  51.0661061  59.2266098 104.0693153  51.1226251
  59.0497737 105.5463642  51.4035841  58.6236690  95.8394229  52.2961728
  57.8859447  95.3271616  52.6271971  58.8763464  95.3994611  51.4845005
  58.1236710 106.7478740  52.0010879  58.4159684 107.3083797  51.2823244
  58.6335331 107.0407301  52.7564038  58.7248318  88.6170481  52.8903497
  59.0307194  87.7567845  52.6029412  59.4500922  89.2088102  52.6902491
  45.0172674  99.0201168  51.2785095  44.8197074  98.4270529  50.5536162
  44.4619338  98.7153378  51.9961034  52.9969397  98.9124275  53.3979688
  53.0518007  97.9598111  53.3222165  52.1860599  99.0683714  53.8820987
  54.1460591 102.8404398  44.6357972  53.7080021 102.1240257  44.1763609
  54.8871032 103.0680512  44.0743063  50.9361757  97.5301334  51.1570067
  50.1229623  97.8295505  51.5635259  51.4320751  97.1357023  51.8744550
  53.0870335 107.5259091  53.0904332  53.0446514 107.7519938  52.1612864
  54.0033034 107.2922466  53.2390133  56.5335969  97.9943159  59.9884961
  56.8885357  98.2214632  60.8479427  57.1808100  98.3261536  59.3662216
  62.2633706 101.1161595  50.6934290  62.1251605 101.3063191  49.7655479
  61.9069925 101.8780977  51.1502341  50.4275832  95.1019690  56.7731302
  51.0675211  94.9608449  56.0754266  49.5953363  94.8154203  56.3969904
  62.2903086 103.1838122  55.7045562  62.7239592 103.0913411  56.5528616
  63.0034666 103.1595622  55.0665578  51.2036136 104.4022120  52.8866295
  51.9976734 103.9072440  52.6848870  50.4927828 103.8739983  52.5234000
  56.0230980 106.7840216  57.2378662  56.0768003 107.3531152  58.0056378
  55.1545762 106.9542101  56.8732699  47.5118899  98.5465202  48.9626047
  46.5816488  98.4849657  49.1796010  47.6076371  98.0241155  48.1662689
  47.4304448  95.0720015  51.5504289  47.6911266  95.9865348  51.4413450
  48.2521621  94.6044457  51.7000902  48.9029374  96.4857772  58.7203114
  49.5752427  96.2775134  58.0715762  48.0759160  96.2879858  58.2808346
  63.1518635 103.2261822  58.2378447  63.3454525 104.1307633  58.4837722
  63.0519253 102.7669241  59.0717032  54.8054946  93.1119713  60.7368774
  54.1582861  93.8109663  60.6433251  55.5755961  93.5455857  61.1045023
  58.2133744 103.3768565  63.8119328  58.0619250 103.1479117  62.8949411
  58.2038423 104.3339166  63.8250673  54.9819080 100.9500478  58.7965594
  55.9111140 101.1011637  58.6234561  54.5610110 101.0384499  57.9414241
  53.7807412 104.9751142  56.5664132  53.6418498 104.6069927  57.4390070
  52.9922008 105.4898782  56.3948090  54.3755564 110.0760239  47.9089668
  54.5507320 109.6048282  48.7235291  53.6888352 110.7026005  48.1370929
  55.3312627 104.3532745  53.9552970  54.9962460 104.3133515  54.8510619
  54.8316573 103.6877461  53.4823380  49.3056871  99.7600375  59.4805551
  49.1676669  99.0280614  60.0817090  50.2161795  99.6709275  59.1989738
  58.2671819 101.6988779  44.2290029  57.6500989 100.9735607  44.1323082
  57.7988307 102.4598140  43.8857103  51.9339172  99.4720334  58.9689230
  52.6438790  98.8313526  58.9275849  51.8908480  99.7233229  59.8915411
  59.9225950 106.4087688  61.8895810  59.8638497 105.7246908  61.2226393
  60.3245469 107.1506678  61.4376436  50.6468106  96.4585552  60.7884870
  50.1105463  96.0076291  61.4406466  50.0584814  96.5931461  60.0455334
  50.0570365  95.9174204  43.3511334  49.1799831  95.7963004  42.9873580
  50.5328118  95.1260282  43.0990222  59.9243358 104.3727272  60.1209789
  59.0370136 104.0353193  60.2436188  60.4941909 103.6410303  60.3578555
  41.5772505 100.7051363  53.4452841  42.2643545 100.3913093  52.8573856
  41.4220633 101.6092728  53.1720092  46.3807227  95.5941560  57.8737864
  46.2965416  94.9867229  57.1388274  45.5589933  96.0850578  57.8747361
  53.4544511 109.0328724  57.0871032  53.3814683 109.8383695  57.5990337
  53.0121904 109.2320690  56.2619054  53.2434291 108.2700494  50.5973854
  52.4601813 108.8122174  50.6912079  53.9427036 108.7874474  50.9968095
  56.5530941  94.0795123  53.2408059  57.0499640  93.3265086  52.9209130
  55.7817922  94.1159440  52.6751269  64.4060698  99.7835489  54.8826351
  64.3950574 100.6660204  54.5120284  63.5378078  99.4307040  54.6880888
  55.9143195 108.9315558  59.2429191  56.6271167 109.5663023  59.1705093
  55.4233223 109.0279424  58.4269193  57.6360722 102.8366811  50.8146483
  56.7017000 102.9568273  50.6451187  57.8137390 101.9339277  50.5506493
  53.1365910  96.2212506  52.9679744  52.7663697  95.6683547  53.6560650
  53.6325002  95.6170640  52.4154744  61.0233273  98.6784130  51.3496517
  61.4893725  99.5112121  51.2756820  61.4740773  98.2129111  52.0541775
  50.9655108 106.6810001  60.0634762  51.6664568 107.3146484  60.2164156
  50.4950223 107.0224733  59.3030401  59.0909504 105.0227951  48.3482669
  59.3669348 104.9084546  49.2576543  58.2214003 104.6245436  48.3094842
  58.9949936  91.0464717  55.3887418  58.0813015  91.2768944  55.5569625
  59.4243037  91.1303161  56.2401451  58.7656394  99.2354609  57.8887312
  58.1127844  99.4830516  57.2339765  59.1436774  98.4218747  57.5549790
  55.7263568 109.2714302  51.9915483  55.9085963 108.4535958  52.4543235
  56.5496554 109.4881994  51.5540373  56.0605733 108.1982487  49.2530531
  56.5893500 107.6874942  48.6400693  56.3233953 107.8825017  50.1176064
  54.8143967  99.9774420  64.3753349  54.1384604  99.8768549  65.0455725
  55.6371601  99.8213634  64.8389347  46.5622826 106.2146356  56.9965865
  47.1476263 105.4690044  57.1293769  46.3647665 106.5250313  57.8802529
  41.1540481  98.7851957  55.7170308  41.1924580  98.2515547  56.5107426
  40.6480774  98.2587162  55.0981285  48.5331243  93.6316497  59.2132850
  48.5972570  94.4931328  58.8010248  48.4698363  93.0190499  58.4805209
  48.0083516  95.7039630  62.8605884  48.6355555  95.3216707  63.4743409
  47.1511435  95.4853832  63.2261577  58.4077624 106.1102605  64.4659620
  58.9517528 106.7232563  63.9714575  57.8264469 106.6682183  64.9826633
  44.7849059  97.5116059  48.7924239  45.0802500  96.6026737  48.7391293
  43.8837094  97.4903798  48.4705242  56.6935137 109.2323323  55.5974648
  56.5686277 108.4313063  55.0885593  57.3514228 109.7269516  55.1088618
  48.3143306  95.5872055  54.7751788  47.5929891  96.2008023  54.6359261
  49.1036561  96.1229820  54.6968434  58.7570046 107.0332343  57.2254198
  57.8100381 106.9137694  57.1532524  59.1052819 106.1454841  57.3080459
  51.1169619  92.9226482  61.0492440  51.6404021  93.1688778  61.8118749
  50.8981952  93.7546517  60.6295577  46.5136900  95.1930156  48.9163564
  46.1849606  94.3127535  48.7338670  46.8676271  95.1377825  49.8039954
  55.7616479 106.8285059  53.4258550  55.6141441 105.9001767  53.6066120
  56.5869972 106.8505150  52.9415625  49.6278723  95.4803126  49.2839042
  49.9674796  96.0089048  48.5617650  50.0750844  95.8183532  50.0597609
  59.3650601 107.6513618  54.5123423  60.2897148 107.4456479  54.3747874
  59.1965904 107.4030019  55.4212764  52.3222164  93.8640177  58.7342110
  51.9818984  93.0647990  59.1362790  51.6161170  94.1641888  58.1618943
  52.9738636  90.9489489  57.1869433  53.7964705  90.4749968  57.0648323
  53.2176699  91.7279973  57.6868119  51.6146870  93.9777748  47.4832335
  52.3355233  94.3559001  46.9796052  50.9912175  94.6966625  47.5867313
  55.7577993  94.6822897  48.4190667  55.9741608  95.5647535  48.1179495
  55.2772060  94.2909110  47.6896309  50.4977215  97.6408610  54.9961412
  50.3521795  97.9548913  55.8885693  50.0202418  98.2593510  54.4432310
  52.3573598  94.6311158  55.0442301  52.3435166  93.7352251  54.7074599
  53.0746026  94.6381822  55.6780587  54.2099728  95.0648498  57.0895429
  53.9517506  95.9865569  57.0879759  53.6784769  94.6678933  57.7795893
  59.1545917 108.1699285  49.8685514  59.3282795 107.6045708  49.1159367
  59.6474808 108.9700180  49.6865004  44.9722877 100.1813954  57.9349073
  44.4276345 100.9573762  58.0669347  45.8502227 100.5284759  57.7768194
  51.7610493  93.5125538  50.3129871  51.8826405  92.5842184  50.5120759
  51.4712536  93.5264224  49.4008187  54.6301684  91.1980449  53.4496591
  54.6523381  91.2619782  52.4948571  55.0469743  90.3584957  53.6437097
  65.0085308 100.9335708  51.4875814  65.4516454 100.1843033  51.0894937
  64.1311818 100.9245845  51.1049546  60.1421090 107.4866050  46.9682412
  60.8371994 108.1072742  47.1869727  60.4844240 106.6361401  47.2434790
  45.7588899  99.3083851  60.8279230  45.0170635  99.4566486  61.4143860
  45.4381643  99.5692116  59.9645979  62.0412513 104.9365755  48.4969743
  62.5663837 105.2753028  47.7719063  61.9534865 104.0012771  48.3132878
  53.7032561 108.8499829  60.6259620  54.0119688 108.6048976  61.4982319
  54.5008043 109.0546467  60.1378490  53.7253173 111.0037739  52.8564996
  53.2858164 110.5114117  53.5497853  54.4761290 110.4610706  52.6157072
  46.2045512 107.1949279  52.8589624  47.0303532 106.8953051  52.4788268
  45.8539564 106.4256902  53.3079413  51.1727046 106.5475748  54.9287298
  50.5507055 105.8846453  54.6289526  51.8431912 106.5736880  54.2460946
  44.4054117 105.1135606  53.8178558  43.5686026 104.6857780  53.6362559
  44.3777763 105.3068049  54.7549349  51.2451573  95.0257536  64.5219804
  51.2939728  95.9019658  64.1397574  51.7874087  94.4834929  63.9491447
  61.7306419 105.5698659  63.8020941  60.9401962 105.5522798  63.2625440
  61.4939773 106.1086953  64.5569978  61.8504294 102.4191125  61.1153670
  61.9002299 102.2541133  62.0569192  61.7418217 101.5518384  60.7251550
  50.7340552 105.0979671  48.4045759  50.8828673 105.7815135  47.7512431
  51.5406996 105.0784761  48.9195214  59.1408056  98.4022053  62.4312976
  60.0417919  98.2628518  62.1396974  59.2156031  98.5676508  63.3711154
  53.4750861  95.7788908  61.2766163  52.6054171  96.0722474  61.0048751
  53.7110342  96.3629353  61.9973426  63.3522491 104.8388067  61.3595691
  63.0607299 105.2018047  62.1959152  62.7394622 104.1255075  61.1809023
  64.5518173 102.4040947  53.8798261  65.3865064 102.8430751  54.0435822
  64.6877302 101.9279600  53.0606507  61.6009679  99.9620681  59.8275749
  62.0763800 100.1548328  59.0194601  60.6775244 100.0179867  59.5819133
  48.4893185 101.1244849  49.4106827  48.2439227 100.2207179  49.6087038
  48.6589100 101.1261999  48.4686305  56.1789895  91.9968525  58.7931583
  56.6971839  92.7329552  58.4678072  55.8245028  92.3032518  59.6278342
  47.7588833  96.8573206  46.9092989  47.0658078  96.9317561  46.2533025
  47.5140585  96.0933550  47.4314506  56.4302489  88.4168808  54.3132480
  56.7104243  87.7491997  54.9392906  57.2153096  88.6097903  53.8007143
  54.2335958 107.5927801  45.8757506  53.6609925 108.2117989  45.4227978
  54.8068752 108.1427163  46.4097428  60.3011348  96.8386442  58.0604055
  61.2528771  96.9384539  58.0816279  60.1314798  96.0464710  58.5702139
  58.3225727  93.9242025  58.2463456  57.7275659  94.2047037  57.5509944
  58.0375424  94.4135926  59.0180197  57.4533218 107.8764952  47.0066088
  58.3863891 107.8110513  47.2098964  57.3656431 108.7121218  46.5480621
  60.0821234 107.1930822  43.9670036  60.0034866 106.8590686  44.8605794
  60.9030901 107.6852590  43.9661508  62.7799426 100.0592561  57.1746354
  62.7475746  99.1208562  57.3606038  63.3900049 100.1376598  56.4412179
  54.6182756  98.9288614  43.2173558  55.5641861  98.7994822  43.2861976
  54.2397001  98.1903276  43.6942987  62.9293914  96.8503605  57.2204638
  62.4132963  96.0662061  57.0334566  63.8133863  96.5222321  57.3851157
  60.5904641  90.5944620  53.1800450  60.3929462  90.2859708  54.0643782
  61.2004347  91.3206259  53.3098380  68.5975975 101.1208568  56.3152391
  69.3279364 100.8593856  56.8760095  67.9882921 100.3837290  56.3554459
  66.6791273  99.2616431  56.9126842  65.9524436  99.1272396  56.3043334
  66.2638559  99.5693259  57.7183560  54.5021449 102.9806360  64.6774215
  55.4224458 103.1584959  64.8714262  54.4671032 102.0362406  64.5253915
  52.8025674  96.8538591  43.1528444  51.8957129  96.5571703  43.2291157
  53.0801655  96.5568409  42.2862730  43.7203614  98.1744954  53.6027490
  43.4006398  97.3210262  53.3101864  43.1737042  98.3893532  54.3585457
  47.4983522 100.8907395  57.3196997  47.7169531 101.8224503  57.3385030
  47.9109295 100.5315369  58.1051800  54.4187739  91.3975480  49.3072685
  53.6088468  91.0522565  49.6827931  55.1072156  91.0883024  49.8960297
  56.3478288  90.4753527  50.9296982  56.9009326  90.8948981  51.5887005
  56.5848374  89.5489275  50.9719938  52.3711387  96.4640601  66.7099745
  52.2708114  97.4134958  66.6411837  52.1532929  96.1358840  65.8375816
  51.5724458  93.7125526  43.2940423  52.4343622  94.0380424  43.5536240
  51.7574802  92.9257022  42.7813489  43.5891874 101.7947865  55.5720612
  42.8955345 101.3801818  55.0590566  44.3364865 101.8368402  54.9754031
  59.7257095  92.5854052  50.4375646  59.1455764  93.2438856  50.0553698
  59.4593027  91.7631397  50.0263063  58.1760661  91.9859110  52.6396966
  58.6760439  92.0975645  51.8311285  58.8196269  91.6820163  53.2797775
  52.2342657  99.8937740  65.5264807  51.7509739 100.6938100  65.7328696
  52.3203596  99.9045684  64.5732251  45.5028617 101.7266119  53.4486627
  45.4799305 101.8253807  52.4968510  45.8129253 102.5731270  53.7703793
  48.1615994 103.7842274  57.5633241  49.1159248 103.7526217  57.4963172
  47.9628518 103.3232898  58.3783467  48.7515377 102.3543390  60.1304039
  49.5708266 102.8487469  60.1538876  49.0252184 101.4375358  60.1021606
  58.5081973  94.7454143  49.4931994  57.6207828  95.0303793  49.2752189
  58.9235962  94.5847906  48.6459271  61.8596509  94.7700664  53.2086333
  62.6356899  95.2597116  53.4810950  61.1344643  95.1958718  53.6658203
  64.2969067  95.4828283  54.2660274  64.8913558  95.2424019  53.5553582
  64.3695651  94.7635413  54.8933810  57.6525186 104.5098817  43.5880014
  58.3561036 104.7148820  44.2037670  56.9287835 105.0775579  43.8529098
  58.4822996 100.2608679  49.7082284  58.4258198 100.7177230  48.8689917
  59.0351339  99.4999363  49.5305127  62.2927802  96.0498410  50.5332404
  62.0364737  95.6495046  51.3640611  61.6680670  96.7642204  50.4082543
  66.6040140  98.7894484  53.0403695  66.0439698  98.8587673  53.8135257
  65.9983644  98.6135468  52.3203191  59.5611884 104.9481347  45.6378474
  60.3957488 104.5162545  45.4555949  59.3996227 104.7763360  46.5655369
  59.2157776 101.4513460  47.0034813  59.1606580 101.2857731  46.0623258
  58.5903831 102.1589493  47.1597003  44.0050291  96.6881524  60.8296236
  44.6509154  96.1780478  61.3183461  43.7967442  97.4250206  61.4039661
  56.5303683 103.7562372  66.3288376  57.3994843 103.9303024  65.9675011
  56.0510434 104.5756789  66.2064106  52.5253901  90.9521569  46.5820132
  52.5132571  91.8963409  46.7388403  53.4177323  90.7691714  46.2879593
  52.4543465 109.6290459  54.6687889  51.5039096 109.6292321  54.5552261
  52.7575951 108.8823194  54.1523923  56.3406021  87.5464345  50.8366069
  55.5738417  86.9922832  50.9822751  56.7516726  87.6186214  51.6980220
  48.3447782  93.8349141  64.9271250  49.2079243  93.4785946  65.1374574
  47.7713192  93.4963036  65.6146654  62.6994144 114.1866673  45.0012116
  62.9519665 113.6648194  44.2395579  61.7618703 114.0232819  45.1038799
  67.7437427 113.1902451  52.8086859  68.5300516 112.7721875  52.4577276
  68.0076132 114.0948544  52.9768507  73.1445854 113.1277685  53.7119837
  73.8771026 112.5576901  53.9457667  72.3885210 112.7399285  54.1526343
  70.6671275 106.8399259  58.1714446  70.3354599 107.7094670  57.9475661
  70.0716888 106.5235543  58.8508476  64.4027461 110.5794826  45.9044528
  64.5701863 111.4475062  46.2714999  64.2124630 110.7422108  44.9805818
  70.5599938 111.5594345  55.2507796  69.6516815 111.4909753  54.9566557
  70.5087534 112.0366290  56.0789622  64.3816682 113.0352483  46.8891195
  64.2616307 113.4809534  47.7276676  63.6869270 113.3837801  46.3304733
  64.6340804 112.9783991  63.1942693  63.8574138 113.5377911  63.1845558
  65.2731367 113.4640774  63.7157563  72.4261584 109.7610783  57.0285670
  71.7835965 110.0543317  56.3825465  71.9216513 109.6463704  57.8338867
  70.0801748 113.5073957  47.7171529  70.9919604 113.7401343  47.5419227
  69.5711395 114.0911001  47.1546608  64.7173586 112.8671191  58.7266379
  65.5634781 113.2910605  58.8701028  64.6572223 112.2104815  59.4204942
  67.8673031 110.5275560  60.3847552  67.6233963 111.2817620  59.8481828
  68.1432962 110.9060907  61.2194800  67.4237723 109.6831993  55.9661390
  66.5622202 109.9813246  56.2578128  67.4500157 109.9002391  55.0342423
  63.1768178 114.3497335  49.1824761  63.8792222 114.8018379  49.6498687
  62.8448807 113.7081154  49.8104654  61.6248540 112.9409092  63.5575970
  60.9947200 113.6225373  63.7911367  61.5184628 112.8292174  62.6129109
  60.9029283 107.2429858  65.9201221  60.5096228 106.6896056  66.5948866
  61.7195423 107.5540436  66.3107739  63.8197244 108.6587737  63.5121478
  64.5606957 109.2594890  63.4325940  64.0515166 107.9165375  62.9539521
  67.7654406 104.6868840  57.7885760  67.4218676 105.5770482  57.7124870
  68.1333369 104.4970498  56.9255345  67.7304689 114.6777451  46.2958195
  67.2151313 115.4482056  46.5346582  67.4581998 114.0042587  46.9191256
  65.3151800 109.5227152  51.3543433  64.4593397 109.1334002  51.1749072
  65.7278752 109.6019113  50.4943219  66.8450947 107.0573495  55.7534993
  66.3415742 107.0203630  54.9402798  67.1381554 107.9666238  55.8131650
  63.0893833 107.1412225  54.7601175  63.9546830 106.9455034  54.4007064
  63.1571342 106.9122577  55.6870531  67.5190992 112.5504543  48.1217976
  67.2141128 112.8650692  48.9728119  68.4721434 112.6285963  48.1645309
  60.6956152 109.3714433  52.1317541  61.2699904 109.1489614  51.3990734
  61.2827134 109.4403127  52.8846143  69.7535729 115.2588160  52.9381918
  70.2667611 115.8918151  53.4403628  70.4036953 114.6589355  52.5725278
  61.0225739 111.4018894  46.1513427  60.1863051 111.7393580  46.4722701
  60.8830509 111.2667874  45.2140564  62.9978820 106.2455682  50.8592611
  62.3443232 105.9304699  50.2349226  62.9559294 105.6231422  51.5852434
  66.2316560 112.7337615  55.1840259  65.3139121 112.9552562  55.0261947
  66.6476704 112.8083926  54.3251966  67.0151608 114.1329031  50.3142939
  67.7623427 114.6450428  50.0050061  67.2843197 113.8113084  51.1747332
  69.4630445 111.1686147  52.2961728  68.7253202 110.6563533  52.6271971
  69.7157218 110.7286529  51.4845005  69.5642072 103.9462399  52.8903497
  69.8700949 103.0859763  52.6029412  70.2894677 104.5380019  52.6902491
  63.8363152 114.2416192  53.3979688  63.8911762 113.2890029  53.3222165
  63.0254354 114.3975631  53.8820987  61.7755512 112.8593252  51.1570067
  60.9623377 113.1587423  51.5635259  62.2714506 112.4648941  51.8744550
  67.3729723 113.3235076  59.9884961  67.7279111 113.5506550  60.8479427
  68.0201855 113.6553453  59.3662216  73.1027460 116.4453512  50.6934290
  72.9645359 116.6355108  49.7655479  72.7463679 117.2072895  51.1502341
  61.2669587 110.4311607  56.7731302  61.9068966 110.2900367  56.0754266
  60.4347117 110.1446121  56.3969904  58.2698203 110.4011932  51.5504289
  58.5305020 111.3157266  51.4413450  59.0915375 109.9336375  51.7000902
  59.7423128 111.8149690  58.7203114  60.4146182 111.6067052  58.0715762
  58.9152915 111.6171776  58.2808346  65.6448700 108.4411631  60.7368774
  64.9976615 109.1401580  60.6433251  66.4149716 108.8747774  61.1045023
  61.4861860 111.7877470  60.7884870  60.9499217 111.3368208  61.4406466
  60.8978569 111.9223379  60.0455334  60.8964119 111.2466121  43.3511334
  60.0193585 111.1254922  42.9873580  61.3721872 110.4552200  43.0990222
  57.2200981 110.9233478  57.8737864  57.1359170 110.3159147  57.1388274
  56.3983688 111.4142496  57.8747361  67.3924695 109.4087041  53.2408059
  67.8893395 108.6557003  52.9209130  66.6211677 109.4451358  52.6751269
  63.9759664 111.5504424  52.9679744  63.6057452 110.9975464  53.6560650
  64.4718757 110.9462558  52.4154744  71.8627027 114.0076048  51.3496517
  72.3287480 114.8404039  51.2756820  72.3134528 113.5421029  52.0541775
  69.8343690 106.3756635  55.3887418  68.9206770 106.6060861  55.5569625
  70.2636792 106.4595079  56.2401451  69.6050149 114.5646527  57.8887312
  68.9521599 114.8122434  57.2339765  69.9830528 113.7510665  57.5549790
  65.6537722 115.3066338  64.3753349  64.9778359 115.2060467  65.0455725
  66.4765355 115.1505551  64.8389347  59.3724998 108.9608415  59.2132850
  59.4366324 109.8223246  58.8010248  59.3092118 108.3482416  58.4805209
  58.8477270 111.0331547  62.8605884  59.4749309 110.6508625  63.4743409
  57.9905189 110.8145749  63.2261577  59.1537060 110.9163973  54.7751788
  58.4323646 111.5299941  54.6359261  59.9430316 111.4521738  54.6968434
  61.9563374 108.2518400  61.0492440  62.4797775 108.4980696  61.8118749
  61.7375707 109.0838434  60.6295577  57.3530655 110.5222074  48.9163564
  57.0243361 109.6419453  48.7338670  57.7070025 110.4669743  49.8039954
  60.4672478 110.8095044  49.2839042  60.8068550 111.3380965  48.5617650
  60.9144598 111.1475450  50.0597609  63.1615919 109.1932095  58.7342110
  62.8212739 108.3939908  59.1362790  62.4554925 109.4933805  58.1618943
  63.8132390 106.2781407  57.1869433  64.6358460 105.8041885  57.0648323
  64.0570454 107.0571891  57.6868119  62.4540625 109.3069666  47.4832335
  63.1748987 109.6850918  46.9796052  61.8305929 110.0258542  47.5867313
  66.5971748 110.0114814  48.4190667  66.8135362 110.8939452  48.1179495
  66.1165815 109.6201028  47.6896309  61.3370969 112.9700528  54.9961412
  61.1915550 113.2840831  55.8885693  60.8596173 113.5885428  54.4432310
  63.1967352 109.9603076  55.0442301  63.1828921 109.0644169  54.7074599
  63.9139780 109.9673739  55.6780587  65.0493483 110.3940416  57.0895429
  64.7911261 111.3157487  57.0879759  64.5178523 109.9970850  57.7795893
  62.6004248 108.8417456  50.3129871  62.7220159 107.9134102  50.5120759
  62.3106290 108.8556142  49.4008187  65.4695438 106.5272366  53.4496591
  65.4917135 106.5911700  52.4948571  65.8863497 105.6876875  53.6437097
  62.0845328 110.3549453  64.5219804  62.1333483 111.2311576  64.1397574
  62.6267842 109.8126846  63.9491447  69.9801811 113.7313971  62.4312976
  70.8811673 113.5920436  62.1396974  70.0549785 113.8968426  63.3711154
  64.3144616 111.1080826  61.2766163  63.4447925 111.4014392  61.0048751
  64.5504096 111.6921271  61.9973426  72.4403433 115.2912599  59.8275749
  72.9157555 115.4840245  59.0194601  71.5168999 115.3471785  59.5819133
  67.0183650 107.3260443  58.7931583  67.5365594 108.0621470  58.4678072
  66.6638783 107.6324436  59.6278342  58.5982587 112.1865124  46.9092989
  57.9051832 112.2609479  46.2533025  58.3534339 111.4225468  47.4314506
  67.2696244 103.7460725  54.3132480  67.5497998 103.0783914  54.9392906
  68.0546851 103.9389821  53.8007143  71.1405102 112.1678359  58.0604055
  72.0922525 112.2676457  58.0816279  70.9708553 111.3756628  58.5702139
  69.1619482 109.2533942  58.2463456  68.5669414 109.5338955  57.5509944
  68.8769178 109.7427843  59.0180197  73.6193180 115.3884479  57.1746354
  73.5869500 114.4500480  57.3606038  74.2293804 115.4668516  56.4412179
  65.4576511 114.2580532  43.2173558  66.4035616 114.1286740  43.2861976
  65.0790756 113.5195194  43.6942987  73.7687669 112.1795522  57.2204638
  73.2526717 111.3953979  57.0334566  74.6527617 111.8514239  57.3851157
  71.4298395 105.9236538  53.1800450  71.2323217 105.6151626  54.0643782
  72.0398101 106.6498177  53.3098380  63.6419428 112.1830508  43.1528444
  62.7350883 111.8863621  43.2291157  63.9195409 111.8860326  42.2862730
  65.2581494 106.7267398  49.3072685  64.4482222 106.3814483  49.6827931
  65.9465911 106.4174942  49.8960297  67.1872042 105.8045445  50.9296982
  67.7403081 106.2240898  51.5887005  67.4242128 104.8781193  50.9719938
  63.2105141 111.7932518  66.7099745  63.1101868 112.7426875  66.6411837
  62.9926683 111.4650757  65.8375816  62.4118213 109.0417443  43.2940423
  63.2737377 109.3672342  43.5536240  62.5968557 108.2548939  42.7813489
  70.5650849 107.9145970  50.4375646  69.9849518 108.5730774  50.0553698
  70.2986782 107.0923315  50.0263063  69.0154416 107.3151028  52.6396966
  69.5154194 107.4267562  51.8311285  69.6590023 107.0112080  53.2797775
  69.3475727 110.0746060  49.4931994  68.4601582 110.3595711  49.2752189
  69.7629716 109.9139824  48.6459271  72.6990263 110.0992581  53.2086333
  73.4750653 110.5889034  53.4810950  71.9738398 110.5250635  53.6658203
  75.1362822 110.8120201  54.2660274  75.7307313 110.5715936  53.5553582
  75.2089406 110.0927331  54.8933810  69.3216751 115.5900596  49.7082284
  69.2651952 116.0469148  48.8689917  69.8745093 114.8291281  49.5305127
  73.1321557 111.3790328  50.5332404  72.8758491 110.9786964  51.3640611
  72.5074425 112.0934122  50.4082543  77.4433895 114.1186401  53.0403695
  76.8833453 114.1879591  53.8135257  76.8377398 113.9427386  52.3203191
  63.3647656 106.2813487  46.5820132  63.3526326 107.2255326  46.7388403
  64.2571078 106.0983632  46.2879593  67.1799775 102.8756263  50.8366069
  66.4132171 102.3214750  50.9822751  67.5910480 102.9478132  51.6980220
  59.1841536 109.1641059  64.9271250  60.0472998 108.8077864  65.1374574
  58.6106947 108.8254954  65.6146654  13.9927387  15.8253532  42.4578958
  14.6305797  15.7060279  41.7542298  13.8748230  16.7734376  42.5166910
  10.8017094  15.7780960  42.3940482  10.4635605  15.6622025  41.5061017
  11.6706862  15.3772125  42.3741488   6.6603909  17.6316436  38.3837373
   6.0968775  17.5406373  37.6153661   6.5456305  16.8116341  38.8639866
  11.2836877  16.9315812  48.3526688  11.2725518  16.5368610  47.4807191
  11.4457516  16.1981884  48.9460459   4.2068341  19.1267628  41.2221594
   4.9989633  18.7858453  40.8067893   4.4464992  19.2362603  42.1423747
  12.2403468  21.2987404  33.6951838  11.5891448  21.8841484  33.3085852
  13.0347831  21.8293599  33.7546876   6.1659095  18.3876541  34.0938972
   6.9389971  17.8405528  33.9551848   6.5184494  19.2520791  34.3053434
   8.0044138  19.7152923  47.3005872   7.7134004  20.6198554  47.1852538
   8.6401122  19.7569451  48.0149941   8.9300345  17.0929772  43.8907231
   9.5263917  16.8685794  43.1764194   8.9875316  16.3514517  44.4932679
   8.5025373  14.5469207  31.7257422   8.7550894  14.0250729  30.9640885
   7.5649932  14.3835353  31.8284106  13.5468656  13.5504986  39.5332166
  14.3331745  13.1324409  39.1822583  13.8107360  14.4551078  39.7013814
  13.7178733  18.9877836  34.2320822  13.0824566  19.0612463  34.9441727
  13.3876140  19.5771435  33.5539902  18.9477083  13.4880219  40.4365144
  19.6802255  12.9179436  40.6702974  18.1916439  13.1001819  40.8771650
   8.2221662  16.4497313  33.9281797   8.1057920  15.7742217  34.5962882
   8.3323922  15.9629687  33.1113950  10.5653203  15.9107460  37.6328487
  10.2011410  15.3838081  38.3441408  11.4220319  15.5205929  37.4594972
  16.4702503   7.2001793  44.8959753  16.1385828   8.0697204  44.6720968
  15.8748117   6.8838077  45.5753783  10.2058690  10.9397360  32.6289835
  10.3733092  11.8077596  32.9960306  10.0155859  11.1024642  31.7051124
  12.9634023  19.4014339  44.2955665  12.6634746  20.3039378  44.1871473
  12.6185083  19.1346522  45.1476818   6.4146504  15.8528136  40.3292370
   5.4897001  15.7204350  40.5370062   6.6630918  16.6322355  40.8262312
  16.3631167  11.9196879  41.9753103  15.4548044  11.8512288  41.6811864
  16.3118763  12.3968824  42.8034928  10.1847911  13.3955018  33.6136502
  10.0647536  13.8412068  34.4521982   9.4900499  13.7440335  33.0550040
   3.7755316  15.4961409  41.1636159   3.9047697  15.7495888  42.0775571
   3.0952767  16.0889117  40.8440814   7.9454803  26.1658659  37.2626633
   7.8678832  27.1166484  37.3415114   7.3416446  25.8204532  37.9201559
  10.4372033  13.3386525  49.9188000   9.6605367  13.8980445  49.9090865
  11.0762596  13.8243308  50.4402870  18.2292813  10.1213318  43.7530977
  17.5867193  10.4145851  43.1070771  17.7247742  10.0066238  44.5584173
  15.8832977  13.8676491  34.4416836  16.7950833  14.1003878  34.2664533
  15.3742624  14.4513535  33.8791915   8.6918405  16.1471978  49.4805967
   9.4333089  16.6857022  49.2040791   7.9855390  16.7738267  49.6377519
  14.1673745  18.2901119  48.0778129  14.5757101  17.8483529  47.3332761
  13.4451006  17.7153746  48.3312321  10.5204815  13.2273725  45.4511685
  11.3666010  13.6513139  45.5946334  10.4603452  12.5707350  46.1450249
  14.4902559  18.8502309  41.8330417  13.8611422  19.0148023  41.1306485
  14.1028221  19.2643919  42.6041381  18.3691791  19.7856747  39.1874781
  17.6842829  20.1655648  38.6371814  18.4535640  20.3952074  39.9206729
  13.6704260  10.8878094  47.1092859  13.4265192  11.6420154  46.5727135
  13.9464190  11.2663441  47.9440106  15.6242723  17.4316706  45.7870125
  15.8359618  18.0748466  45.1104506  15.5772471  16.5979023  45.3192055
  13.2268952  10.0434527  42.6906697  12.3653431  10.3415780  42.9823434
  13.2531386  10.2604926  41.7587729  10.0430521  18.5876717  39.0980502
  10.5068867  18.8664420  38.3085125   9.7787319  17.6860162  38.9153593
   6.9354602  18.1348199  42.0360266   7.5055959  18.5635467  41.3977750
   7.5262714  17.8530784  42.7344451   8.9799407  14.7099870  35.9070068
   9.6823450  15.1620913  36.3743994   8.6480036  14.0683689  36.5349961
   7.4279769  13.3011626  50.2821277   6.7978429  13.9827907  50.5156674
   7.3215857  13.1894708  49.3374415  16.7388551  20.3088662  43.9592482
  17.5605994  19.9068849  43.6775164  16.7350953  20.2056896  44.9108598
  10.5045154  19.8572705  46.1153193  10.5689587  20.3193112  46.9511364
   9.7956078  19.2270070  46.2435502  24.8294544  16.6527410  40.3077453
  24.0758252  16.0834808  40.1521458  24.9642085  16.6190074  41.2548088
  10.2193172  21.5240812  35.9832173  10.0838846  22.3692348  36.4117021
  10.7602984  21.7260090  35.2198107   3.6722569  19.0416250  36.5560098
   4.1847090  19.8359501  36.7065663   4.3245282  18.3442541  36.4893699
   5.4817454  22.1582007  38.6382851   5.6584082  23.0799971  38.4503835
   6.2774287  21.8440426  39.0677231   4.7669810  14.2046639  48.5145014
   4.6523325  13.3031896  48.8152113   3.9114328  14.4510335  48.1629831
  11.8461648  22.1464379  50.1132515  11.4025502  21.3600757  49.7953419
  12.5078862  22.3343529  49.4476406   6.6048769  23.6760180  44.6393193
   7.1556194  23.5477244  43.8670187   5.7660245  23.9755069  44.2888086
  13.9442886  22.4267179  48.1413916  13.9261362  23.2476060  47.6494185
  14.8662806  22.3021254  48.3664057  10.4015940  19.9411308  48.9837425
  10.9344277  19.1799596  48.7536733   9.8730021  19.6484960  49.7261579
   1.6371486  17.3704905  37.3319668   2.4746708  17.7801913  37.1153376
   1.8149754  16.4304347  37.3019862  13.5335918  15.0379985  33.0203501
  13.0182541  15.8084590  33.2591889  13.2613226  14.3645121  33.6436563
  11.1183029   9.8829686  38.0788740  10.2624625   9.4936536  37.8994378
  11.5309981   9.9621647  37.2188525  18.5070192  17.7912340  34.9556675
  17.7299635  17.4523499  34.5111837  19.1861673  17.7964963  34.2811640
  13.3222221  12.9107077  34.8463283  13.0172357  13.2253227  35.6973426
  14.2752663  12.9888497  34.8890616  11.7668653  19.0697301  36.4956237
  11.2390015  18.3350060  36.1829474  11.2656156  19.8471977  36.2496205
  16.7461499  17.2646321  41.6123283  16.0885173  17.9545583  41.7003412
  17.5501898  17.6542753  41.9557269  15.5566958  15.6190694  39.6627225
  16.0698840  16.2520686  40.1648934  16.2068182  15.0191889  39.2970585
   9.9121253  16.8877511  29.4991210   9.0048315  16.6566764  29.6982359
  10.4092285  16.0915130  29.6865191  12.8189332  25.5975018  32.4187896
  12.1451031  25.9006715  33.0272854  13.2055154  26.4004098  32.0693353
  12.0347789  13.0940149  41.9085565  11.1170350  13.3155096  41.7507253
  12.4507932  13.1686460  41.0497272  12.8182836  14.4931565  37.0388245
  13.5654655  15.0052962  36.7295367  13.0874426  14.1715618  37.8992639
  11.0909487  16.9890106  34.0215200  10.1820706  16.7049139  34.1187669
  11.1204570  17.4089184  33.1618507  16.3228754  20.5996695  37.7906367
  15.8691081  19.7587605  37.8471558  15.6922721  21.2358094  38.1281147
  15.2661674  11.5288681  39.0207035  14.5284430  11.0166068  39.3517277
  15.5188447  11.0889063  38.2090312  14.7661693  22.4373192  38.7256185
  15.0584668  22.9978249  38.0068551  15.2760314  22.7301753  39.4809345
   9.6394381  14.6018726  40.1224995   9.6942990  13.6492563  40.0467472
   8.8285583  14.7578166  40.6066293  10.7885574  18.5298849  31.3603278
  10.3505004  17.8134708  30.9008916  11.5296015  18.7574964  30.7988370
   7.5786741  13.2195786  37.8815374   6.7654606  13.5189957  38.2880566
   8.0745735  12.8251475  38.5989856   9.7295318  23.2153543  39.8149639
   9.6871497  23.4414389  38.8858171  10.6458017  22.9816918  39.9635440
  13.1760952  13.6837611  46.7130268  13.5310340  13.9109084  47.5724734
  13.8233084  14.0155987  46.0907523  18.9058689  16.8056047  37.4179597
  18.7676588  16.9957643  36.4900786  18.5494908  17.5675429  37.8747648
  18.9328069  18.8732574  42.4290868  19.3664575  18.7807863  43.2773922
  19.6459650  18.8490074  41.7910884   7.8461119  20.0916572  39.6111601
   8.6401718  19.5966892  39.4094176   7.1352812  19.5634435  39.2479307
  12.6655964  22.4734668  43.9623969  12.7192986  23.0425604  44.7301685
  11.7970745  22.6436553  43.5978006  19.7943618  18.9156274  44.9623754
  19.9879508  19.8202085  45.2083029  19.6944237  18.4563693  45.7962339
  11.4479929   8.8014165  47.4614081  10.8007844   9.5004114  47.3678557
  12.2180945   9.2350309  47.8290329  14.8558727  19.0663017  50.5364634
  14.7044233  18.8373569  49.6194718  14.8463407  20.0233618  50.5495979
  11.6244063  16.6394930  45.5210901  12.5536123  16.7906089  45.3479868
  11.2035093  16.7278950  44.6659547  10.4232395  20.6645594  43.2909438
  10.2843481  20.2964379  44.1635377   9.6346991  21.1793234  43.1193396
  11.0180547  25.7654691  34.6334975  11.1932303  25.2942734  35.4480598
  10.3313335  26.3920457  34.8616236  11.9737610  20.0427197  40.6798276
  11.6387443  20.0027967  41.5755926  11.4741556  19.3771913  40.2068686
   5.9481854  15.4494827  46.2050857   5.8101652  14.7175066  46.8062396
   6.8586778  15.3603727  45.9235045  14.9096802  17.3883231  30.9535336
  14.2925973  16.6630059  30.8568389  14.4413291  18.1492591  30.6102410
   8.5764155  15.1614786  45.6934537   9.2863774  14.5207978  45.6521155
   8.5333463  15.4127681  46.6160718  16.5650934  22.0982139  48.6141116
  16.5063480  21.4141360  47.9471699  16.9670452  22.8401130  48.1621742
   7.2893089  12.1480004  47.5130176   6.7530446  11.6970742  48.1651773
   6.7009797  12.2825913  46.7700641   5.5841633  28.9144053  41.4074835
   5.8238231  29.5462577  42.0853854   4.7410829  28.5632093  41.6940194
  16.5668341  20.0621723  46.8455096  15.6795120  19.7247645  46.9681495
  17.1366892  19.3304755  47.0823861  10.0969494  24.7223176  43.8116339
  10.0239666  25.5278147  44.3235644   9.6546887  24.9215142  42.9864360
   9.8859274  23.9594946  37.3219161   9.1026796  24.5016626  37.4157385
  10.5852019  24.4768925  37.7213402  13.1955924   9.7689575  39.9653366
  13.6924624   9.0159538  39.6454436  12.4242906   9.8053892  39.3996575
  21.0485682  15.4729941  41.6071658  21.0375558  16.3554656  41.2365591
  20.1803061  15.1201492  41.4126195  12.5568178  24.6210010  45.9674498
  13.2696150  25.2557475  45.8950399  12.0658207  24.7173876  45.1514500
  14.2785705  18.5261262  37.5391789  13.3441984  18.6462725  37.3696494
  14.4562373  17.6233729  37.2751799   9.7790893  11.9106958  39.6925051
   9.4088680  11.3577999  40.3805956  10.2749985  11.3065092  39.1400051
  17.6658256  14.3678582  38.0741824  18.1318708  15.2006573  38.0002126
  18.1165757  13.9023563  38.7787082   7.6080091  22.3704453  46.7880069
   8.3089551  23.0040936  46.9409463   7.1375206  22.7119185  46.0275708
  15.7334487  20.7122403  35.0727976  16.0094331  20.5978998  35.9821850
  14.8638986  20.3139888  35.0340149  15.6374919   6.7359169  42.1132725
  14.7237999   6.9663396  42.2814932  16.0668020   6.8197613  42.9646757
  15.4081377  14.9249061  44.6132619  14.7552828  15.1724968  43.9585072
  15.7861757  14.1113199  44.2795096  12.3688551  24.9608754  38.7160789
  12.5510946  24.1430410  39.1788542  13.1921537  25.1776446  38.2785679
  12.7030717  23.8876939  35.9775838  13.2318483  23.3769394  35.3646000
  12.9658936  23.5719469  36.8421371  11.4568950  15.6668872  51.0998656
  10.7809587  15.5663001  51.7701031  12.2796584  15.5108086  51.5634653
   3.2047809  21.9040808  43.7211171   3.7901246  21.1584496  43.8539075
   3.0072648  22.2144765  44.6047835   6.0586465  24.9392056  38.7373614
   5.3896840  25.4238183  38.2537654   5.9199334  25.1861276  39.6516992
  10.1991733  26.9735799  45.3356272  10.7510041  27.1367421  46.1005357
  10.5397927  27.5640237  44.6636297  15.0502608  21.7997057  51.1904926
  15.5942512  22.4127015  50.6959881  14.4689452  22.3576635  51.7071939
  13.3360121  24.9217775  42.3219954  13.2111260  24.1207515  41.8130900
  13.9939212  25.4163968  41.8333924  15.3995029  22.7226795  43.9499504
  14.4525364  22.6032146  43.8777831  15.7477802  21.8349293  44.0325766
  12.4041462  22.5179511  40.1503856  12.2566425  21.5896218  40.3311427
  13.2294956  22.5399602  39.6660932  16.0075584  23.3408070  41.2368729
  16.9322132  23.1350931  41.0993180  15.8390887  23.0924471  42.1458071
  12.4002977  10.3717349  35.1435974  12.6166591  11.2541987  34.8424802
  11.9197044   9.9803562  34.4141616   7.1402198  13.3303062  41.7206718
   6.9946779  13.6443365  42.6131000   6.6627402  13.9487962  41.1677617
  10.8524712  10.7542950  43.8140735  10.5942489  11.6760021  43.8125066
  10.3209752  10.3573385  44.5041199  15.7970900  23.8593737  36.5930821
  15.9707778  23.2940160  35.8404673  16.2899792  24.6594632  36.4110311
   1.6147860  15.8708406  44.6594380   1.0701328  16.6468214  44.7914654
   2.4927210  16.2179211  44.5013501  21.6510291  16.6230160  38.2121120
  22.0941438  15.8737485  37.8140244  20.7736802  16.6140297  37.8294852
  16.7846073  23.1760502  33.6927719  17.4796977  23.7967194  33.9115034
  17.1269223  22.3255853  33.9680097  18.6837496  20.6260207  35.2215050
  19.2088820  20.9647480  34.4964370  18.5959848  19.6907223  35.0378184
  10.3457545  24.5394281  47.3504926  10.6544671  24.2943428  48.2227626
  11.1433027  24.7440919  46.8623797  10.3678157  26.6932190  39.5810303
   9.9283147  26.2008569  40.2743160  11.1186274  26.1505158  39.3402378
   2.8470496  22.8843731  39.5834931   3.6728516  22.5847503  39.2033575
   2.4964548  22.1151354  40.0324720   7.8152029  22.2370200  41.6532605
   7.1932038  21.5740905  41.3534832   8.4856896  22.2631331  40.9706252
  18.3731402  21.2593111  50.5266248  17.5826946  21.2417250  49.9870747
  18.1364757  21.7981405  51.2815284  18.4929277  18.1085577  47.8398976
  18.5427282  17.9435585  48.7814499  18.3843200  17.2412836  47.4496857
   7.3765536  20.7874123  35.1291065   7.5253656  21.4709587  34.4757738
   8.1831979  20.7679213  35.6440521  15.7833039  14.0916505  49.1558283
  16.6842902  13.9522970  48.8642281  15.8581014  14.2570960  50.0956460
  10.1175845  11.4683360  48.0011469   9.2479154  11.7616926  47.7294058
  10.3535325  12.0523805  48.7218733  19.9947474  20.5282519  48.0840998
  19.7032282  20.8912499  48.9204459  19.3819605  19.8149527  47.9054330
  21.1943156  18.0935398  40.6043568  22.0290048  18.5325203  40.7681128
  21.3302285  17.6174052  39.7851814  18.2434662  15.6515133  46.5521056
  18.7188784  15.8442780  45.7439907  17.3200227  15.7074319  46.3064439
   5.1318169  16.8139301  36.1352134   4.8864211  15.9101631  36.3332344
   5.3014083  16.8156451  35.1931612  12.8214879   7.6862977  45.5176890
  13.3396822   8.4224004  45.1923378  12.4670011   7.9926970  46.3523649
  10.8760941  23.2822253  32.6002813  10.3034908  23.9012440  32.1473284
  11.4493735  23.8321615  33.1342735  16.9436331  12.5280893  44.7849361
  17.8953754  12.6278991  44.8061585  16.7739782  11.7359162  45.2947446
  14.9650711   9.6136477  44.9708762  14.3700643   9.8941489  44.2755251
  14.6800407  10.1030378  45.7425503  14.0958201  23.5659403  33.7311395
  15.0288874  23.5004965  33.9344270  14.0081414  24.4015670  33.2725928
  16.7246218  22.8825274  30.6915342  16.6459849  22.5485137  31.5851100
  17.5455884  23.3747042  30.6906815  19.4224409  15.7487013  43.8991661
  19.3900729  14.8103014  44.0851345  20.0325033  15.8271050  43.1657486
  11.2607740  14.6183066  29.9418865  12.2066844  14.4889274  30.0107283
  10.8821985  13.8797728  30.4188293  19.5718897  12.5398057  43.9449944
  19.0557946  11.7556513  43.7579873  20.4558846  12.2116773  44.1096464
  17.2329624   6.2839072  39.9045757  17.0354445   5.9754160  40.7889089
  17.8429330   7.0100711  40.0343687  25.2400959  16.8103020  43.0397698
  25.9704347  16.5488308  43.6005401  24.6307904  16.0731742  43.0799766
  23.3216256  14.9510883  43.6372149  22.5949419  14.8166847  43.0288641
  22.9063543  15.2587711  44.4428867  11.1446432  18.6700812  51.4019522
  12.0649442  18.8479411  51.5959569  11.1096015  17.7256858  51.2499221
   4.1408505  16.5801847  44.0442303   4.3594515  17.5118955  44.0630337
   4.5534279  16.2209821  44.8297107   9.0136370  12.1535053  53.4345052
   8.9133097  13.1029410  53.3657143   8.7957912  11.8253292  52.5621122
  16.3682078   8.2748504  37.1620952  15.7880747   8.9333308  36.7799005
  16.1018011   7.4525849  36.7508370  14.8185644   7.6753562  39.3642273
  15.3185423   7.7870096  38.5556592  15.4621252   7.3714615  40.0043081
   8.8767640  15.5832191  52.2510114   8.3934722  16.3832552  52.4574003
   8.9628579  15.5940136  51.2977558   2.1453600  17.4160571  40.1731933
   2.1224288  17.5148258  39.2213816   2.4554236  18.2625722  40.4949099
   4.8040978  19.4736726  44.2878548   5.7584231  19.4420669  44.2208479
   4.6053501  19.0127350  45.1028773   5.3940360  18.0437842  46.8549345
   6.2133249  18.5381921  46.8784183   5.6677168  17.1269810  46.8266913
  15.1506956  10.4348595  36.2177301  14.2632811  10.7198245  35.9997496
  15.5660945  10.2742358  35.3704578  18.5021492  10.4595116  39.9331640
  19.2781882  10.9491568  40.2056257  17.7769626  10.8853170  40.3903509
  20.9394051  11.1722735  40.9905581  21.5338542  10.9318471  40.2798889
  21.0120634  10.4529865  41.6179117   3.1591206  25.0156346  41.3048745
   3.0245674  24.2556747  40.7386743   2.7423269  25.7397246  40.8377534
  14.2950169  20.1993269  30.3125321  14.9986020  20.4043272  30.9282976
  13.5712818  20.7670031  30.5774404  15.1247980  15.9503130  36.4327591
  15.0683181  16.4071682  35.5935223  15.6776322  15.1893815  36.2550434
  18.9352786  11.7392862  37.2577710  18.6789720  11.3389498  38.0885918
  18.3105654  12.4536656  37.1327850  23.2465124  14.4788936  39.7649002
  22.6864682  14.5482125  40.5380564  22.6408627  14.3029920  39.0448498
   6.3160332  25.9125663  41.5167188   6.1992717  26.8571095  41.4145878
   5.4952779  25.6099224  41.9052987  16.2036867  20.6375798  32.3623781
  17.0382471  20.2056997  32.1801256  16.0421210  20.4657812  33.2900675
  15.8582759  17.1407912  33.7280120  15.8031563  16.9752183  32.7868564
  15.2328814  17.8483945  33.8842310  13.1728666  19.4456824  53.0533683
  14.0419826  19.6197476  52.6920318  12.6935418  20.2651240  52.9309412
   7.3414846  26.5653925  44.7323117   8.2442093  26.5977535  45.0489611
   7.1152217  25.6354376  44.7469452   9.0968448  25.3184911  41.3933195
   8.1464080  25.3186773  41.2797567   9.4000935  24.5717646  40.8769230
  24.8321142  31.1545450  42.4578958  25.4699552  31.0352197  41.7542298
  24.7141985  32.1026293  42.5166910  21.6410848  31.1072878  42.3940482
  21.3029360  30.9913942  41.5061017  22.5100616  30.7064043  42.3741488
  17.4997664  32.9608354  38.3837373  16.9362529  32.8698291  37.6153661
  17.3850059  32.1408258  38.8639866  22.1230631  32.2607729  48.3526688
  22.1119272  31.8660528  47.4807191  22.2851271  31.5273802  48.9460459
  15.0462096  34.4559546  41.2221594  15.8383388  34.1150370  40.8067893
  15.2858746  34.5654521  42.1423747  23.0797223  36.6279322  33.6951838
  22.4285202  37.2133402  33.3085852  23.8741585  37.1585517  33.7546876
  17.0052850  33.7168459  34.0938972  17.7783726  33.1697446  33.9551848
  17.3578249  34.5812708  34.3053434  18.8437892  35.0444841  47.3005872
  18.5527758  35.9490472  47.1852538  19.4794877  35.0861369  48.0149941
  19.7694099  32.4221690  43.8907231  20.3657672  32.1977712  43.1764194
  19.8269071  31.6806435  44.4932679  19.3419128  29.8761125  31.7257422
  19.5944648  29.3542646  30.9640885  18.4043687  29.7127270  31.8284106
  24.3862410  28.8796903  39.5332166  25.1725500  28.4616327  39.1822583
  24.6501115  29.7842996  39.7013814  24.5572488  34.3169754  34.2320822
  23.9218321  34.3904380  34.9441727  24.2269894  34.9063353  33.5539902
  29.7870838  28.8172137  40.4365144  30.5196010  28.2471353  40.6702974
  29.0310193  28.4293737  40.8771650  19.0615416  31.7789231  33.9281797
  18.9451674  31.1034134  34.5962882  19.1717676  31.2921605  33.1113950
  21.4046957  31.2399378  37.6328487  21.0405165  30.7129999  38.3441408
  22.2614073  30.8497847  37.4594972  27.3096258  22.5293711  44.8959753
  26.9779583  23.3989122  44.6720968  26.7141871  22.2129995  45.5753783
  21.0452444  26.2689278  32.6289835  21.2126847  27.1369514  32.9960306
  20.8549613  26.4316559  31.7051124  23.8027777  34.7306257  44.2955665
  23.5028501  35.6331295  44.1871473  23.4578837  34.4638440  45.1476818
  17.2540259  31.1820054  40.3292370  16.3290755  31.0496268  40.5370062
  17.5024672  31.9614273  40.8262312  27.2024921  27.2488797  41.9753103
  26.2941799  27.1804205  41.6811864  27.1512517  27.7260742  42.8034928
  21.0241665  28.7246935  33.6136502  20.9041290  29.1703986  34.4521982
  20.3294254  29.0732253  33.0550040  14.6149070  30.8253327  41.1636159
  14.7441451  31.0787806  42.0775571  13.9346521  31.4181035  40.8440814
  18.7848557  41.4950577  37.2626633  18.7072587  42.4458402  37.3415114
  18.1810201  41.1496450  37.9201559  21.2765787  28.6678442  49.9188000
  20.4999121  29.2272363  49.9090865  21.9156350  29.1535225  50.4402870
  29.0686568  25.4505235  43.7530977  28.4260948  25.7437768  43.1070771
  28.5641496  25.3358156  44.5584173  26.7226731  29.1968408  34.4416836
  27.6344587  29.4295795  34.2664533  26.2136378  29.7805453  33.8791915
  19.5312159  31.4763896  49.4805967  20.2726844  32.0148940  49.2040791
  18.8249145  32.1030185  49.6377519  25.0067499  33.6193036  48.0778129
  25.4150855  33.1775447  47.3332761  24.2844761  33.0445664  48.3312321
  21.3598569  28.5565643  45.4511685  22.2059764  28.9805057  45.5946334
  21.2997207  27.8999267  46.1450249  25.3296314  34.1794227  41.8330417
  24.7005176  34.3439941  41.1306485  24.9421976  34.5935836  42.6041381
  29.2085546  35.1148665  39.1874781  28.5236584  35.4947566  38.6371814
  29.2929395  35.7243991  39.9206729  24.5098014  26.2170011  47.1092859
  24.2658946  26.9712072  46.5727135  24.7857945  26.5955359  47.9440106
  26.4636477  32.7608624  45.7870125  26.6753372  33.4040384  45.1104506
  26.4166225  31.9270940  45.3192055  24.0662706  25.3726444  42.6906697
  23.2047185  25.6707698  42.9823434  24.0925141  25.5896843  41.7587729
  20.8824276  33.9168635  39.0980502  21.3462621  34.1956338  38.3085125
  20.6181074  33.0152080  38.9153593  17.7748357  33.4640117  42.0360266
  18.3449714  33.8927385  41.3977750  18.3656468  33.1822701  42.7344451
  19.8193162  30.0391787  35.9070068  20.5217205  30.4912831  36.3743994
  19.4873790  29.3975606  36.5349961  18.2673523  28.6303544  50.2821277
  17.6372184  29.3119825  50.5156674  18.1609611  28.5186626  49.3374415
  13.5618496  28.2975340  41.2087201  12.7717550  28.5532869  40.7327312
  14.0529743  29.1123678  41.3139242  27.5782305  35.6380579  43.9592482
  28.3999749  35.2360766  43.6775164  27.5744708  35.5348813  44.9108598
  15.5133241  28.6619919  38.1670678  14.7164404  28.7738614  38.6854174
  15.2858833  29.0006571  37.3011568  21.3438909  35.1864622  46.1153193
  21.4083341  35.6485030  46.9511364  20.6349832  34.5561987  46.2435502
  11.8456199  28.5505830  43.6402192  12.0964237  29.4352840  43.9059768
  12.3815747  28.3710432  42.8677284  35.6688298  31.9819328  40.3077453
  34.9152007  31.4126726  40.1521458  35.8035839  31.9481992  41.2548088
  21.0586926  36.8532730  35.9832173  20.9232601  37.6984266  36.4117021
  21.5996739  37.0552008  35.2198107  17.5454266  22.9324310  52.6446528
  17.1521211  22.3790508  53.3194172  18.3620406  23.2434888  53.0353046
  14.5116324  34.3708168  36.5560098  15.0240844  35.1651418  36.7065663
  15.1639036  33.6734458  36.4893699  16.3211208  37.4873924  38.6382851
  16.4977837  38.4091889  38.4503835  17.1168042  37.1732343  39.0677231
  20.4622227  24.3482189  50.2366785  21.2031940  24.9489342  50.1571247
  20.6940150  23.6059827  49.6784827  15.6063565  29.5338556  48.5145014
  15.4917080  28.6323813  48.8152113  14.7508083  29.7802253  48.1629831
  22.6855403  37.4756296  50.1132515  22.2419257  36.6892675  49.7953419
  23.3472616  37.6635447  49.4476406  17.4442524  39.0052098  44.6393193
  17.9949949  38.8769161  43.8670187  16.6054000  39.3046987  44.2888086
  24.7836641  37.7559096  48.1413916  24.7655116  38.5767977  47.6494185
  25.7056561  37.6313172  48.3664057  21.2409695  35.2703226  48.9837425
  21.7738032  34.5091514  48.7536733  20.7123776  34.9776878  49.7261579
  24.4079390  20.3763292  44.5131066  24.0643659  21.2664934  44.4370177
  24.7758352  20.1864949  43.6500651  12.4765240  32.6996822  37.3319668
  13.3140462  33.1093831  37.1153376  12.6543508  31.7596264  37.3019862
  24.3729672  30.3671903  33.0203501  23.8576296  31.1376508  33.2591889
  24.1006981  29.6937039  33.6436563  21.9576784  25.2121604  38.0788740
  21.1018380  24.8228454  37.8994378  22.3703735  25.2913565  37.2188525
  23.4875930  22.7467947  42.4780300  22.9840726  22.7098082  41.6648105
  23.7806537  23.6560690  42.5376956  19.7318816  22.8306677  41.4846481
  20.5971813  22.6349485  41.1252371  19.7996325  22.6017029  42.4115838
  29.3463947  33.1204258  34.9556675  28.5693389  32.7815417  34.5111837
  30.0255428  33.1256881  34.2811640  24.1615976  28.2398995  34.8463283
  23.8566111  28.5545144  35.6973426  25.1146418  28.3180415  34.8890616
  22.6062408  34.3989218  36.4956237  22.0783769  33.6641978  36.1829474
  22.1049910  35.1763895  36.2496205  27.5855254  32.5938239  41.6123283
  26.9278928  33.2837500  41.7003412  28.3895653  32.9834671  41.9557269
  17.3381135  25.0608885  38.8562848  17.9124887  24.8384066  38.1236041
  17.9252118  25.1297579  39.6091449  26.3960712  30.9482612  39.6627225
  26.9092594  31.5812603  40.1648934  27.0461936  30.3483807  39.2970585
  17.6650722  27.0913346  32.8758733  16.8288034  27.4288032  33.1968008
  17.5255492  26.9562325  31.9385870  19.6403803  21.9350134  37.5837918
  18.9868215  21.6199151  36.9594532  19.5984277  21.3125874  38.3097740
  20.7515008  32.2169429  29.4991210  19.8442069  31.9858682  29.6982359
  21.2486040  31.4207048  29.6865191  23.6583087  40.9266936  32.4187896
  22.9844785  41.2298633  33.0272854  24.0448909  41.7296016  32.0693353
  22.8741543  28.4232067  41.9085565  21.9564105  28.6447014  41.7507253
  23.2901687  28.4978378  41.0497272  23.6576591  29.8223483  37.0388245
  24.4048410  30.3344880  36.7295367  23.9268180  29.5007536  37.8992639
  21.9303241  32.3182024  34.0215200  21.0214460  32.0341056  34.1187669
  21.9598325  32.7381102  33.1618507  27.1622509  35.9288613  37.7906367
  26.7084836  35.0879523  37.8471558  26.5316475  36.5650011  38.1281147
  26.1055428  26.8580599  39.0207035  25.3678185  26.3457985  39.3517277
  26.3582202  26.4180981  38.2090312  25.6055448  37.7665110  38.7256185
  25.8978422  38.3270167  38.0068551  26.1154068  38.0593671  39.4809345
  26.2067055  19.6356851  39.6148804  26.5125932  18.7754214  39.3274719
  26.9319660  20.2274471  39.4147798  12.4991412  30.0387538  38.0030402
  12.3015811  29.4456898  37.2781468  11.9438075  29.7339748  38.7206341
  20.4788135  29.9310644  40.1224995  20.5336745  28.9784481  40.0467472
  19.6679337  30.0870083  40.6066293  21.6279329  33.8590767  31.3603278
  21.1898759  33.1426626  30.9008916  22.3689770  34.0866882  30.7988370
  18.4180495  28.5487704  37.8815374  17.6048361  28.8481874  38.2880566
  18.9139489  28.1543393  38.5989856  20.5689073  38.5445461  39.8149639
  20.5265252  38.7706307  38.8858171  21.4851772  38.3108835  39.9635440
  24.0154707  29.0129528  46.7130268  24.3704094  29.2401001  47.5724734
  24.6626838  29.3447905  46.0907523  29.7452444  32.1347964  37.4179597
  29.6070342  32.3249560  36.4900786  29.3888663  32.8967347  37.8747648
  17.9094570  26.1206059  43.4976609  18.5493949  25.9794818  42.7999572
  17.0772100  25.8340573  43.1215211  29.7721823  34.2024491  42.4290868
  30.2058330  34.1099780  43.2773922  30.4853404  34.1781992  41.7910884
  18.6854874  35.4208490  39.6111601  19.4795472  34.9258810  39.4094176
  17.9746566  34.8926353  39.2479307  23.5049718  37.8026585  43.9623969
  23.5586741  38.3717522  44.7301685  22.6364500  37.9728470  43.5978006
  14.9937637  29.5651572  35.6871354  14.0635225  29.5036027  35.9041316
  15.0895109  29.0427524  34.8907995  14.9123186  26.0906384  38.2749596
  15.1730004  27.0051718  38.1658756  15.7340359  25.6230827  38.4246208
  16.3848112  27.5044142  45.4448420  17.0571165  27.2961504  44.7961069
  15.5577898  27.3066228  45.0053652  30.6337373  34.2448192  44.9623754
  30.8273263  35.1494002  45.2083029  30.5337991  33.7855611  45.7962339
  22.2873684  24.1306082  47.4614081  21.6401599  24.8296032  47.3678557
  23.0574699  24.5642226  47.8290329  25.6952482  34.3954935  50.5364634
  25.5437988  34.1665486  49.6194718  25.6857161  35.3525536  50.5495979
  22.4637818  31.9686847  45.5210901  23.3929878  32.1198007  45.3479868
  22.0428848  32.0570868  44.6659547  21.2626150  35.9937512  43.2909438
  21.1237235  35.6256296  44.1635377  20.4740746  36.5085151  43.1193396
  21.8574302  41.0946608  34.6334975  22.0326057  40.6234651  35.4480598
  21.1707090  41.7212374  34.8616236  22.8131365  35.3719114  40.6798276
  22.4781197  35.3319884  41.5755926  22.3135311  34.7063830  40.2068686
  16.7875609  30.7786745  46.2050857  16.6495407  30.0466983  46.8062396
  17.6980532  30.6895645  45.9235045  25.7490557  32.7175149  30.9535336
  25.1319727  31.9921977  30.8568389  25.2807045  33.4784509  30.6102410
  19.4157910  30.4906704  45.6934537  20.1257528  29.8499896  45.6521155
  19.3727218  30.7419599  46.6160718  27.4044688  37.4274057  48.6141116
  27.3457234  36.7433277  47.9471699  27.8064207  38.1693047  48.1621742
  18.1286843  27.4771922  47.5130176  17.5924201  27.0262660  48.1651773
  17.5403552  27.6117831  46.7700641  16.4235387  44.2435971  41.4074835
  16.6631985  44.8754495  42.0853854  15.5804583  43.8924011  41.6940194
  17.5389102  26.9360573  30.0756640  16.6618569  26.8149374  29.7118887
  18.0146856  26.1446651  29.8235529  27.4062095  35.3913641  46.8455096
  26.5188874  35.0539563  46.9681495  27.9760647  34.6596672  47.0823861
   9.0591243  31.7237733  40.1698147   9.7462282  31.4099463  39.5819163
   8.9039371  32.6279097  39.8965399  20.9363249  40.0515093  43.8116339
  20.8633420  40.8570065  44.3235644  20.4940642  40.2507059  42.9864360
  20.7253028  39.2886863  37.3219161  19.9420550  39.8308544  37.4157385
  21.4245774  39.8060843  37.7213402  24.0349679  25.0981493  39.9653366
  24.5318378  24.3451455  39.6454436  23.2636660  25.1345810  39.3996575
  31.8879436  30.8021858  41.6071658  31.8769312  31.6846574  41.2365591
  31.0196815  30.4493409  41.4126195  23.3961932  39.9501927  45.9674498
  24.1089905  40.5849392  45.8950399  22.9051961  40.0465793  45.1514500
  25.1179459  33.8553180  37.5391789  24.1835738  33.9754643  37.3696494
  25.2956128  32.9525647  37.2751799  20.6184647  27.2398876  39.6925051
  20.2482435  26.6869916  40.3805956  21.1143740  26.6357009  39.1400051
  28.5052011  29.6970499  38.0741824  28.9712463  30.5298491  38.0002126
  28.9559511  29.2315481  38.7787082  18.4473846  37.6996371  46.7880069
  19.1483305  38.3332854  46.9409463  17.9768961  38.0411102  46.0275708
  26.5728242  36.0414321  35.0727976  26.8488086  35.9270915  35.9821850
  25.7032740  35.6431806  35.0340149  26.4768673  22.0651086  42.1132725
  25.5631753  22.2955313  42.2814932  26.9061775  22.1489531  42.9646757
  26.2475132  30.2540978  44.6132619  25.5946582  30.5016886  43.9585072
  26.6255512  29.4405117  44.2795096  23.2082306  40.2900672  38.7160789
  23.3904700  39.4722328  39.1788542  24.0315292  40.5068364  38.2785679
  23.5424471  39.2168857  35.9775838  24.0712238  38.7061311  35.3646000
  23.8052691  38.9011387  36.8421371  22.2962705  30.9960789  51.0998656
  21.6203342  30.8954919  51.7701031  23.1190339  30.8400003  51.5634653
  14.0441564  37.2332726  43.7211171  14.6295001  36.4876414  43.8539075
  13.8466402  37.5436683  44.6047835  16.8980219  40.2683973  38.7373614
  16.2290594  40.7530101  38.2537654  16.7593089  40.5153194  39.6516992
   8.6359219  29.8038326  42.4415614   8.6743318  29.2701917  43.2352733
   8.1299512  29.2773532  41.8226592  21.0385488  42.3027717  45.3356272
  21.5903796  42.4659338  46.1005357  21.3791681  42.8932155  44.6636297
  16.0149981  24.6502867  45.9378157  16.0791308  25.5117698  45.5255554
  15.9517101  24.0376868  45.2050515  15.4902254  26.7225999  49.5851191
  16.1174292  26.3403077  50.1988715  14.6330172  26.5040201  49.9506883
  25.8896362  37.1288974  51.1904926  26.4336266  37.7418933  50.6959881
  25.3083207  37.6868553  51.7071939  12.2667796  28.5302428  35.5169546
  12.5621237  27.6213107  35.4636600  11.3655832  28.5090168  35.1950548
  24.1753875  40.2509692  42.3219954  24.0505015  39.4499432  41.8130900
  24.8332966  40.7455886  41.8333924  15.7962043  26.6058425  41.4997094
  15.0748629  27.2194393  41.3604568  16.5855299  27.1416190  41.4213740
  26.2388783  38.0518713  43.9499504  25.2919119  37.9324064  43.8777831
  26.5871557  37.1641211  44.0325766  18.5988357  23.9412851  47.7737746
  19.1222759  24.1875148  48.5364055  18.3800690  24.7732886  47.3540883
  13.9955638  26.2116526  35.6408871  13.6668344  25.3313905  35.4583977
  14.3495009  26.1564195  36.5285260  23.2435217  37.8471429  40.1503856
  23.0960179  36.9188136  40.3311427  24.0688710  37.8691519  39.6660932
  17.1097461  26.4989496  36.0084349  17.4493534  27.0275417  35.2862957
  17.5569582  26.8369902  36.7842915  26.8469339  38.6699987  41.2368729
  27.7715886  38.4642849  41.0993180  26.6784642  38.4216389  42.1458071
  19.8040902  24.8826547  45.4587417  19.4637722  24.0834360  45.8608097
  19.0979908  25.1828257  44.8864250  20.4557374  21.9675859  43.9114740
  21.2783443  21.4936337  43.7893630  20.6995437  22.7466343  44.4113426
  19.0965608  24.9964117  34.2077641  19.8173971  25.3745370  33.7041358
  18.4730912  25.7152994  34.3112619  23.2396731  25.7009266  35.1435974
  23.4560345  26.5833904  34.8424802  22.7590798  25.3095480  34.4141616
  17.9795952  28.6594980  41.7206718  17.8340533  28.9735283  42.6131000
  17.5021156  29.2779880  41.1677617  19.8392335  25.6497528  41.7687608
  19.8253904  24.7538621  41.4319906  20.5564763  25.6568191  42.4025894
  21.6918466  26.0834868  43.8140735  21.4336244  27.0051938  43.8125066
  21.1603506  25.6865302  44.5041199  26.6364655  39.1885655  36.5930821
  26.8101532  38.6232077  35.8404673  27.1293546  39.9886550  36.4110311
  12.4541615  31.2000324  44.6594380  11.9095083  31.9760132  44.7914654
  13.3320964  31.5471128  44.5013501  19.2429231  24.5311908  37.0375178
  19.3645142  23.6028554  37.2366066  18.9531274  24.5450594  36.1253493
  22.1120422  22.2166818  40.1741898  22.1342118  22.2806151  39.2193877
  22.5288481  21.3771327  40.3682404  32.4904046  31.9522078  38.2121120
  32.9335192  31.2029403  37.8140244  31.6130556  31.9432214  37.8294852
  27.6239827  38.5052419  33.6927719  28.3190732  39.1259112  33.9115034
  27.9662977  37.6547771  33.9680097  13.2407636  30.3270220  47.5524536
  12.4989373  30.4752856  48.1389167  12.9200381  30.5878486  46.6891286
  29.5231250  35.9552125  35.2215050  30.0482574  36.2939398  34.4964370
  29.4353603  35.0199140  35.0378184  21.1851299  39.8686199  47.3504926
  21.4938426  39.6235345  48.2227626  21.9826781  40.0732837  46.8623797
  21.2071911  42.0224108  39.5810303  20.7676901  41.5300487  40.2743160
  21.9580028  41.4797076  39.3402378  13.6864250  38.2135649  39.5834931
  14.5122270  37.9139421  39.2033575  13.3358302  37.4443271  40.0324720
  18.6545783  37.5662117  41.6532605  18.0325793  36.9032822  41.3534832
  19.3250650  37.5923249  40.9706252  11.8872855  36.1321975  40.5423865
  11.0504763  35.7044150  40.3607866  11.8596501  36.3254419  41.4794656
  18.7270311  26.0443905  51.2465111  18.7758466  26.9206028  50.8642880
  19.2692825  25.5021298  50.6736754  29.2125156  36.5885028  50.5266248
  28.4220700  36.5709167  49.9870747  28.9758511  37.1273322  51.2815284
  29.3323032  33.4377495  47.8398976  29.3821036  33.2727502  48.7814499
  29.2236955  32.5704754  47.4496857  18.2159290  36.1166041  35.1291065
  18.3647411  36.8001505  34.4757738  19.0225734  36.0971131  35.6440521
  26.6226794  29.4208423  49.1558283  27.5236657  29.2814888  48.8642281
  26.6974768  29.5862878  50.0956460  20.9569599  26.7975278  48.0011469
  20.0872909  27.0908844  47.7294058  21.1929080  27.3815723  48.7218733
  30.8341228  35.8574436  48.0840998  30.5426037  36.2204417  48.9204459
  30.2213360  35.1441445  47.9054330  32.0336911  33.4227316  40.6043568
  32.8683802  33.8617120  40.7681128  32.1696039  32.9465969  39.7851814
  29.0828417  30.9807051  46.5521056  29.5582538  31.1734697  45.7439907
  28.1593982  31.0366237  46.3064439  15.9711923  32.1431218  36.1352134
  15.7257965  31.2393548  36.3332344  16.1407838  32.1448369  35.1931612
  23.6608633  23.0154895  45.5176890  24.1790577  23.7515922  45.1923378
  23.3063766  23.3218888  46.3523649  15.2407571  27.8759576  33.6338296
  14.5476816  27.9503931  32.9778331  14.9959323  27.1119919  34.1559812
  23.9121227  19.4355177  41.0377786  24.1922981  18.7678366  41.6638213
  24.6971834  19.6284273  40.5252450  21.7154696  38.6114171  32.6002813
  21.1428663  39.2304358  32.1473284  22.2887489  39.1613533  33.1342735
  27.7830086  27.8572811  44.7849361  28.7347508  27.9570909  44.8061585
  27.6133536  27.0651080  45.2947446  25.8044465  24.9428394  44.9708762
  25.2094397  25.2233407  44.2755251  25.5194162  25.4322295  45.7425503
  24.9351956  38.8951321  33.7311395  25.8682629  38.8296883  33.9344270
  24.8475168  39.7307588  33.2725928  27.5639972  38.2117191  30.6915342
  27.4853604  37.8777055  31.5851100  28.3849639  38.7038959  30.6906815
  30.2618163  31.0778931  43.8991661  30.2294483  30.1394932  44.0851345
  30.8718787  31.1562968  43.1657486  22.1001494  29.9474984  29.9418865
  23.0460599  29.8181192  30.0107283  21.7215739  29.2089646  30.4188293
  30.4112652  27.8689974  43.9449944  29.8951701  27.0848431  43.7579873
  31.2952600  27.5408691  44.1096464  28.0723379  21.6130990  39.9045757
  27.8748200  21.3046078  40.7889089  28.6823084  22.3392629  40.0343687
  36.0794713  32.1394938  43.0397698  36.8098102  31.8780226  43.6005401
  35.4701659  31.4023660  43.0799766  34.1610010  30.2802800  43.6372149
  33.4343174  30.1458765  43.0288641  33.7457297  30.5879629  44.4428867
  21.9840187  33.9992730  51.4019522  22.9043196  34.1771329  51.5959569
  21.9489770  33.0548775  51.2499221  20.2844411  27.8724960  29.8773750
  19.3775867  27.5758073  29.9536464  20.5620392  27.5754778  29.0108037
  11.2022352  29.1931324  40.3272797  10.8825136  28.3396632  40.0347171
  10.6555780  29.4079902  41.0830764  14.9802259  31.9093765  44.0442303
  15.1988269  32.8410872  44.0630337  15.3928033  31.5501739  44.8297107
  21.9006477  22.4161850  36.0317992  21.0907205  22.0708935  36.4073238
  22.5890894  22.1069394  36.6205603  23.8297025  21.4939897  37.6542288
  24.3828064  21.9135350  38.3132311  24.0667112  20.5675645  37.6965244
  19.8530125  27.4826970  53.4345052  19.7526852  28.4321327  53.3657143
  19.6351667  27.1545209  52.5621122  19.0543196  24.7311895  30.0185729
  19.9162360  25.0566794  30.2781547  19.2393540  23.9443391  29.5058795
  11.0710612  32.8134235  42.2965918  10.3774083  32.3988188  41.7835873
  11.8183603  32.8554772  41.6999337  27.2075832  23.6040422  37.1620952
  26.6274502  24.2625226  36.7799005  26.9411765  22.7817766  36.7508370
  25.6579399  23.0045480  39.3642273  26.1579177  23.1162014  38.5556592
  26.3015007  22.7006532  40.0043081  19.7161395  30.9124109  52.2510114
  19.2328476  31.7124469  52.4574003  19.8022334  30.9232054  51.2977558
  12.9847354  32.7452489  40.1731933  12.9618042  32.8440176  39.2213816
  13.2947991  33.5917640  40.4949099  15.6434732  34.8028644  44.2878548
  16.5977986  34.7712586  44.2208479  15.4447256  34.3419268  45.1028773
  16.2334114  33.3729760  46.8549345  17.0527003  33.8673839  46.8784183
  16.5070922  32.4561728  46.8266913  25.9900711  25.7640512  36.2177301
  25.1026566  26.0490163  35.9997496  26.4054700  25.6034276  35.3704578
  29.3415247  25.7887033  39.9331640  30.1175637  26.2783486  40.2056257
  28.6163381  26.2145087  40.3903509  31.7787805  26.5014652  40.9905581
  32.3732296  26.2610388  40.2798889  31.8514389  25.7821783  41.6179117
  13.9984961  40.3448263  41.3048745  13.8639429  39.5848664  40.7386743
  13.5817023  41.0689163  40.8377534  25.1343924  35.5285187  30.3125321
  25.8379774  35.7335189  30.9282976  24.4106573  36.0961949  30.5774404
  25.9641734  31.2795048  36.4327591  25.9076936  31.7363600  35.5935223
  26.5170077  30.5185733  36.2550434  29.7746540  27.0684780  37.2577710
  29.5183474  26.6681416  38.0885918  29.1499408  27.7828574  37.1327850
  34.0858878  29.8080853  39.7649002  33.5258436  29.8774043  40.5380564
  33.4802381  29.6321838  39.0448498  17.1554087  41.2417580  41.5167188
  17.0386471  42.1863013  41.4145878  16.3346533  40.9391142  41.9052987
  27.0430621  35.9667716  32.3623781  27.8776225  35.5348915  32.1801256
  26.8814964  35.7949730  33.2900675  26.6976514  32.4699829  33.7280120
  26.6425317  32.3044101  32.7868564  26.0722569  33.1775862  33.8842310
  11.4869029  27.7067894  47.5541542  12.1327892  27.1966848  48.0428767
  11.2786180  28.4436575  48.1284968  24.0122421  34.7748741  53.0533683
  24.8813580  34.9489394  52.6920318  23.5329172  35.5943158  52.9309412
  20.0072639  21.9707938  33.3065438  19.9951309  22.9149778  33.4633709
  20.8996061  21.7878084  33.0124900  18.1808601  41.8945842  44.7323117
  19.0835848  41.9269453  45.0489611  17.9545971  40.9646293  44.7469452
  19.9362203  40.6476829  41.3933195  18.9857834  40.6478690  41.2797567
  20.2394689  39.9009563  40.8769230  23.8224758  18.5650715  37.5611375
  23.0557154  18.0109202  37.7068058  24.2335463  18.6372584  38.4225527
  15.8266520  24.8535511  51.6516557  16.6897981  24.4972316  51.8619881
  15.2531930  24.5149406  52.3391961  32.4804603  46.4364795  42.3940482
  32.1423114  46.3205860  41.5061017  33.3494371  46.0355960  42.3741488
  28.3391418  48.2900272  38.3837373  27.7756284  48.1990209  37.6153661
  28.2243813  47.4700176  38.8639866  25.8855850  49.7851463  41.2221594
  26.6777142  49.4442288  40.8067893  26.1252501  49.8946438  42.1423747
  33.9190977  51.9571239  33.6951838  33.2678957  52.5425320  33.3085852
  34.7135340  52.4877434  33.7546876  27.8446604  49.0460377  34.0938972
  28.6177480  48.4989364  33.9551848  28.1972003  49.9104626  34.3053434
  29.6831647  50.3736759  47.3005872  29.3921513  51.2782390  47.1852538
  30.3188631  50.4153286  48.0149941  30.6087854  47.7513607  43.8907231
  31.2051426  47.5269630  43.1764194  30.6662825  47.0098353  44.4932679
  30.1812882  45.2053043  31.7257422  30.4338403  44.6834564  30.9640885
  29.2437441  45.0419188  31.8284106  35.2256165  44.2088821  39.5332166
  36.0119254  43.7908244  39.1822583  35.4894869  45.1134913  39.7013814
  35.3966242  49.6461671  34.2320822  34.7612075  49.7196298  34.9441727
  35.0663649  50.2355270  33.5539902  29.9009171  47.1081149  33.9281797
  29.7845429  46.4326052  34.5962882  30.0111431  46.6213523  33.1113950
  32.2440712  46.5691296  37.6328487  31.8798919  46.0421917  38.3441408
  33.1007828  46.1789765  37.4594972  31.8846199  41.5981195  32.6289835
  32.0520601  42.4661432  32.9960306  31.6943368  41.7608477  31.7051124
  28.0934013  46.5111971  40.3292370  27.1684510  46.3788185  40.5370062
  28.3418427  47.2906190  40.8262312  31.8635420  44.0538853  33.6136502
  31.7435045  44.4995904  34.4521982  31.1688008  44.4024171  33.0550040
  25.4542824  46.1545245  41.1636159  25.5835206  46.4079724  42.0775571
  24.7740276  46.7472953  40.8440814  29.6242312  56.8242495  37.2626633
  29.5466341  57.7750320  37.3415114  29.0203955  56.4788367  37.9201559
  36.1690068  49.5086145  41.8330417  35.5398931  49.6731859  41.1306485
  35.7815730  49.9227754  42.6041381  34.9056461  40.7018362  42.6906697
  34.0440940  40.9999616  42.9823434  34.9318895  40.9188761  41.7587729
  31.7218030  49.2460553  39.0980502  32.1856376  49.5248256  38.3085125
  31.4574828  48.3443997  38.9153593  28.6142111  48.7932034  42.0360266
  29.1843468  49.2219303  41.3977750  29.2050223  48.5114619  42.7344451
  30.6586916  45.3683705  35.9070068  31.3610959  45.8204749  36.3743994
  30.3267545  44.7267524  36.5349961  29.1067278  43.9595462  50.2821277
  28.4765938  44.6411743  50.5156674  29.0003365  43.8478543  49.3374415
  24.4012250  43.6267258  41.2087201  23.6111304  43.8824786  40.7327312
  24.8923497  44.4415596  41.3139242  26.3526995  43.9911837  38.1670678
  25.5558159  44.1030531  38.6854174  26.1252588  44.3298489  37.3011568
  32.1832663  50.5156540  46.1153193  32.2477096  50.9776947  46.9511364
  31.4743587  49.8853905  46.2435502  22.6849953  43.8797748  43.6402192
  22.9357991  44.7644758  43.9059768  23.2209501  43.7002350  42.8677284
  31.8980681  52.1824648  35.9832173  31.7626355  53.0276183  36.4117021
  32.4390493  52.3843925  35.2198107  28.3848020  38.2616228  52.6446528
  27.9914966  37.7082426  53.3194172  29.2014161  38.5726806  53.0353046
  25.3510078  49.7000086  36.5560098  25.8634599  50.4943336  36.7065663
  26.0032791  49.0026376  36.4893699  27.1604963  52.8165842  38.6382851
  27.3371591  53.7383807  38.4503835  27.9561796  52.5024261  39.0677231
  31.3015981  39.6774107  50.2366785  32.0425695  40.2781260  50.1571247
  31.5333904  38.9351744  49.6784827  26.4457319  44.8630474  48.5145014
  26.3310834  43.9615731  48.8152113  25.5901837  45.1094171  48.1629831
  28.2836278  54.3344016  44.6393193  28.8343703  54.2061079  43.8670187
  27.4447754  54.6338905  44.2888086  23.3158995  48.0288740  37.3319668
  24.1534217  48.4385748  37.1153376  23.4937263  47.0888182  37.3019862
  35.2123427  45.6963821  33.0203501  34.6970050  46.4668425  33.2591889
  34.9400735  45.0228957  33.6436563  32.7970538  40.5413521  38.0788740
  31.9412134  40.1520372  37.8994378  33.2097490  40.6205482  37.2188525
  34.3269685  38.0759865  42.4780300  33.8234480  38.0390000  41.6648105
  34.6200292  38.9852607  42.5376956  30.5712571  38.1598594  41.4846481
  31.4365567  37.9641403  41.1252371  30.6390079  37.9308946  42.4115838
  35.0009730  43.5690913  34.8463283  34.6959866  43.8837062  35.6973426
  35.9540172  43.6472333  34.8890616  33.4456162  49.7281136  36.4956237
  32.9177524  48.9933896  36.1829474  32.9443665  50.5055812  36.2496205
  28.1774890  40.3900802  38.8562848  28.7518642  40.1675984  38.1236041
  28.7645872  40.4589497  39.6091449  37.2354467  46.2774529  39.6627225
  37.7486349  46.9104521  40.1648934  37.8855691  45.6775725  39.2970585
  28.5044477  42.4205263  32.8758733  27.6681789  42.7579950  33.1968008
  28.3649246  42.2854243  31.9385870  30.4797557  37.2642051  37.5837918
  29.8261970  36.9491068  36.9594532  30.4378031  36.6417792  38.3097740
  31.5908762  47.5461346  29.4991210  30.6835824  47.3150600  29.6982359
  32.0879794  46.7498966  29.6865191  34.4976841  56.2558854  32.4187896
  33.8238540  56.5590550  33.0272854  34.8842663  57.0587934  32.0693353
  33.7135298  43.7523985  41.9085565  32.7957859  43.9738932  41.7507253
  34.1295441  43.8270295  41.0497272  34.4970345  45.1515400  37.0388245
  35.2442164  45.6636798  36.7295367  34.7661935  44.8299453  37.8992639
  32.7696996  47.6473941  34.0215200  31.8608215  47.3632974  34.1187669
  32.7992079  48.0673020  33.1618507  38.0016263  51.2580531  37.7906367
  37.5478590  50.4171441  37.8471558  37.3710230  51.8941929  38.1281147
  36.9449183  42.1872517  39.0207035  36.2071939  41.6749903  39.3517277
  37.1975956  41.7472898  38.2090312  36.4449202  53.0957027  38.7256185
  36.7372177  53.6562084  38.0068551  36.9547823  53.3885588  39.4809345
  37.0460810  34.9648769  39.6148804  37.3519687  34.1046132  39.3274719
  37.7713415  35.5566389  39.4147798  23.3385166  45.3679455  38.0030402
  23.1409566  44.7748816  37.2781468  22.7831830  45.0631665  38.7206341
  31.3181890  45.2602562  40.1224995  31.3730499  44.3076398  40.0467472
  30.5073092  45.4162001  40.6066293  32.4673083  49.1882685  31.3603278
  32.0292513  48.4718544  30.9008916  33.2083524  49.4158800  30.7988370
  29.2574250  43.8779622  37.8815374  28.4442115  44.1773792  38.2880566
  29.7533244  43.4835310  38.5989856  31.4082827  53.8737378  39.8149639
  31.3659006  54.0998225  38.8858171  32.3245526  53.6400753  39.9635440
  28.7488324  41.4497977  43.4976609  29.3887704  41.3086736  42.7999572
  27.9165855  41.1632490  43.1215211  29.5248628  50.7500407  39.6111601
  30.3189227  50.2550728  39.4094176  28.8140321  50.2218271  39.2479307
  34.3443473  53.1318503  43.9623969  34.3980495  53.7009439  44.7301685
  33.4758254  53.3020388  43.5978006  25.8331392  44.8943489  35.6871354
  24.9028980  44.8327945  35.9041316  25.9288864  44.3719442  34.8907995
  25.7516941  41.4198302  38.2749596  26.0123758  42.3343635  38.1658756
  26.5734113  40.9522745  38.4246208  27.2241866  42.8336059  45.4448420
  27.8964920  42.6253421  44.7961069  26.3971653  42.6358145  45.0053652
  32.1019904  51.3229429  43.2909438  31.9630990  50.9548214  44.1635377
  31.3134500  51.8377069  43.1193396  32.6968056  56.4238526  34.6334975
  32.8719812  55.9526569  35.4480598  32.0100844  57.0504292  34.8616236
  33.6525119  50.7011032  40.6798276  33.3174952  50.6611802  41.5755926
  33.1529065  50.0355748  40.2068686  27.6269363  46.1078662  46.2050857
  27.4889161  45.3758901  46.8062396  28.5374287  46.0187562  45.9235045
  36.5884311  48.0467066  30.9535336  35.9713482  47.3213895  30.8568389
  36.1200799  48.8076427  30.6102410  30.2551664  45.8198622  45.6934537
  30.9651283  45.1791814  45.6521155  30.2120972  46.0711516  46.6160718
  28.9680598  42.8063839  47.5130176  28.4317955  42.3554578  48.1651773
  28.3797306  42.9409748  46.7700641  27.2629141  59.5727889  41.4074835
  27.5025740  60.2046413  42.0853854  26.4198338  59.2215929  41.6940194
  28.3782857  42.2652491  30.0756640  27.5012323  42.1441292  29.7118887
  28.8540610  41.4738569  29.8235529  19.8984997  47.0529651  40.1698147
  20.5856037  46.7391381  39.5819163  19.7433126  47.9571015  39.8965399
  24.7019719  41.9419847  44.5983171  24.6177908  41.3345517  43.8633581
  23.8802426  42.4328865  44.5992667  31.7757003  55.3807011  43.8116339
  31.7027175  56.1861983  44.3235644  31.3334396  55.5798977  42.9864360
  31.5646783  54.6178781  37.3219161  30.7814305  55.1600461  37.4157385
  32.2639528  55.1352761  37.7213402  34.8743433  40.4273411  39.9653366
  35.3712133  39.6743373  39.6454436  34.1030415  40.4637727  39.3996575
  35.9573214  49.1845098  37.5391789  35.0229493  49.3046560  37.3696494
  36.1349882  48.2817565  37.2751799  31.4578402  42.5690794  39.6925051
  31.0876189  42.0161834  40.3805956  31.9537494  41.9648927  39.1400051
  29.2867600  53.0288289  46.7880069  29.9877060  53.6624772  46.9409463
  28.8162715  53.3703020  46.0275708  37.4121996  51.3706238  35.0727976
  37.6881840  51.2562833  35.9821850  36.5426495  50.9723723  35.0340149
  34.0476060  55.6192589  38.7160789  34.2298455  54.8014245  39.1788542
  34.8709046  55.8360282  38.2785679  34.3818226  54.5460774  35.9775838
  34.9105992  54.0353229  35.3646000  34.6446445  54.2303305  36.8421371
  24.8835318  52.5624644  43.7211171  25.4688755  51.8168332  43.8539075
  24.6860157  52.8728600  44.6047835  27.7373974  55.5975891  38.7373614
  27.0684349  56.0822019  38.2537654  27.5986843  55.8445112  39.6516992
  19.4752973  45.1330244  42.4415614  19.5137073  44.5993835  43.2352733
  18.9693266  44.6065449  41.8226592  31.8779242  57.6319635  45.3356272
  32.4297550  57.7951256  46.1005357  32.2185436  58.2224072  44.6636297
  26.8543735  39.9794784  45.9378157  26.9185062  40.8409615  45.5255554
  26.7910856  39.3668786  45.2050515  26.3296008  42.0517917  49.5851191
  26.9568047  41.6694994  50.1988715  25.4723927  41.8332119  49.9506883
  23.1061551  43.8594346  35.5169546  23.4014992  42.9505024  35.4636600
  22.2049587  43.8382085  35.1950548  35.0147630  55.5801610  42.3219954
  34.8898769  54.7791350  41.8130900  35.6726721  56.0747803  41.8333924
  26.6355798  41.9350343  41.4997094  25.9142384  42.5486310  41.3604568
  27.4249054  42.4708107  41.4213740  29.4382111  39.2704769  47.7737746
  29.9616513  39.5167066  48.5364055  29.2194445  40.1024804  47.3540883
  24.8349392  41.5408444  35.6408871  24.5062099  40.6605823  35.4583977
  25.1888763  41.4856112  36.5285260  34.0828971  53.1763346  40.1503856
  33.9353934  52.2480054  40.3311427  34.9082465  53.1983437  39.6660932
  27.9491216  41.8281413  36.0084349  28.2887288  42.3567335  35.2862957
  28.3963336  42.1661820  36.7842915  37.6863093  53.9991905  41.2368729
  38.6109641  53.7934766  41.0993180  37.5178396  53.7508306  42.1458071
  30.6434656  40.2118464  45.4587417  30.3031477  39.4126277  45.8608097
  29.9373663  40.5120175  44.8864250  31.2951128  37.2967777  43.9114740
  32.1177197  36.8228255  43.7893630  31.5389192  38.0758260  44.4113426
  29.9359363  40.3256035  34.2077641  30.6567725  40.7037288  33.7041358
  29.3124667  41.0444912  34.3112619  34.0790486  41.0301184  35.1435974
  34.2954100  41.9125822  34.8424802  33.5984553  40.6387397  34.4141616
  28.8189707  43.9886897  41.7206718  28.6734288  44.3027200  42.6131000
  28.3414911  44.6071798  41.1677617  30.6786090  40.9789445  41.7687608
  30.6647659  40.0830539  41.4319906  31.3958518  40.9860109  42.4025894
  32.5312221  41.4126785  43.8140735  32.2729998  42.3343856  43.8125066
  31.9997261  41.0157220  44.5041199  37.4758409  54.5177573  36.5930821
  37.6495287  53.9523995  35.8404673  37.9687301  55.3178467  36.4110311
  23.2935369  46.5292242  44.6594380  22.7488837  47.3052050  44.7914654
  24.1714719  46.8763046  44.5013501  30.0822986  39.8603826  37.0375178
  30.2038897  38.9320472  37.2366066  29.7925028  39.8742512  36.1253493
  32.9514176  37.5458736  40.1741898  32.9735873  37.6098069  39.2193877
  33.3682235  36.7063245  40.3682404  38.4633582  53.8344337  33.6927719
  39.1584486  54.4551030  33.9115034  38.8056732  52.9839688  33.9680097
  24.0801391  45.6562138  47.5524536  23.3383127  45.8044773  48.1389167
  23.7594135  45.9170404  46.6891286  40.3625005  51.2844043  35.2215050
  40.8876329  51.6231315  34.4964370  40.2747357  50.3491058  35.0378184
  32.0245054  55.1978116  47.3504926  32.3332180  54.9527263  48.2227626
  32.8220536  55.4024755  46.8623797  32.0465666  57.3516026  39.5810303
  31.6070656  56.8592405  40.2743160  32.7973783  56.8088993  39.3402378
  24.5258005  53.5427567  39.5834931  25.3516025  53.2431339  39.2033575
  24.1752057  52.7735189  40.0324720  29.4939538  52.8954035  41.6532605
  28.8719547  52.2324740  41.3534832  30.1644405  52.9215167  40.9706252
  22.7266610  51.4613893  40.5423865  21.8898518  51.0336067  40.3607866
  22.6990255  51.6546336  41.4794656  29.5664065  41.3735823  51.2465111
  29.6152221  42.2497946  50.8642880  30.1086579  40.8313216  50.6736754
  29.0553045  51.4457958  35.1291065  29.2041165  52.1293423  34.4757738
  29.8619488  51.4263048  35.6440521  26.8105678  47.4723136  36.1352134
  26.5651720  46.5685466  36.3332344  26.9801592  47.4740286  35.1931612
  26.0801325  43.2051493  33.6338296  25.3870570  43.2795848  32.9778331
  25.8353077  42.4411837  34.1559812  34.7514982  34.7647095  41.0377786
  35.0316736  34.0970284  41.6638213  35.5365589  34.9576190  40.5252450
  32.5548450  53.9406089  32.6002813  31.9822417  54.5596276  32.1473284
  33.1281244  54.4905450  33.1342735  35.7745710  54.2243239  33.7311395
  36.7076383  54.1588800  33.9344270  35.6868923  55.0599506  33.2725928
  38.4033727  53.5409109  30.6915342  38.3247358  53.2068973  31.5851100
  39.2243393  54.0330877  30.6906815  32.9395249  45.2766901  29.9418865
  33.8854353  45.1473110  30.0107283  32.5609494  44.5381563  30.4188293
  31.1238166  43.2016878  29.8773750  30.2169621  42.9049991  29.9536464
  31.4014147  42.9046696  29.0108037  22.0416106  44.5223241  40.3272797
  21.7218891  43.6688549  40.0347171  21.4949534  44.7371819  41.0830764
  25.8196014  47.2385682  44.0442303  26.0382024  48.1702790  44.0630337
  26.2321788  46.8793657  44.8297107  32.7400232  37.7453768  36.0317992
  31.9300960  37.4000853  36.4073238  33.4284649  37.4361311  36.6205603
  34.6690780  36.8231814  37.6542288  35.2221819  37.2427268  38.3132311
  34.9060866  35.8967562  37.6965244  29.8936951  40.0603813  30.0185729
  30.7556115  40.3858711  30.2781547  30.0787295  39.2735309  29.5058795
  21.9104366  48.1426153  42.2965918  21.2167838  47.7280106  41.7835873
  22.6577357  48.1846689  41.6999337  38.0469587  38.9332340  37.1620952
  37.4668256  39.5917144  36.7799005  37.7805520  38.1109684  36.7508370
  23.8241109  48.0744407  40.1731933  23.8011797  48.1732094  39.2213816
  24.1341745  48.9209557  40.4949099  26.4828487  50.1320562  44.2878548
  27.4371740  50.1004504  44.2208479  26.2841010  49.6711185  45.1028773
  27.0727869  48.7021678  46.8549345  27.8920758  49.1965756  46.8784183
  27.3464677  47.7853646  46.8266913  36.8294465  41.0932430  36.2177301
  35.9420320  41.3782081  35.9997496  37.2448454  40.9326193  35.3704578
  24.8378715  55.6740181  41.3048745  24.7033183  54.9140582  40.7386743
  24.4210778  56.3981081  40.8377534  35.9737678  50.8577105  30.3125321
  36.6773529  51.0627107  30.9282976  35.2500327  51.4253866  30.5774404
  36.8035489  46.6086966  36.4327591  36.7470690  47.0655517  35.5935223
  37.3563831  45.8477650  36.2550434  27.9947841  56.5709498  41.5167188
  27.8780225  57.5154931  41.4145878  27.1740288  56.2683060  41.9052987
  37.8824376  51.2959634  32.3623781  38.7169980  50.8640832  32.1801256
  37.7208719  51.1241647  33.2900675  37.5370268  47.7991747  33.7280120
  37.4819072  47.6336018  32.7868564  36.9116323  48.5067780  33.8842310
  22.3262783  43.0359811  47.5541542  22.9721647  42.5258765  48.0428767
  22.1179934  43.7728493  48.1284968  30.8466394  37.2999856  33.3065438
  30.8345063  38.2441696  33.4633709  31.7389815  37.1170001  33.0124900
  29.0202355  57.2237760  44.7323117  29.9229602  57.2561370  45.0489611
  28.7939726  56.2938211  44.7469452  30.7755957  55.9768746  41.3933195
  29.8251588  55.9770608  41.2797567  31.0788444  55.2301481  40.8769230
  34.6618513  33.8942633  37.5611375  33.8950909  33.3401119  37.7068058
  35.0729218  33.9664501  38.4225527  26.6660274  40.1827429  51.6516557
  27.5291736  39.8264233  51.8619881  26.0925685  39.8441323  52.3391961
  43.3198357  61.7656713  42.3940482  42.9816869  61.6497778  41.5061017
  44.1888125  61.3647878  42.3741488  39.1785173  63.6192189  38.3837373
  38.6150038  63.5282126  37.6153661  39.0637568  62.7992094  38.8639866
  36.7249605  65.1143381  41.2221594  37.5170897  64.7734206  40.8067893
  36.9646255  65.2238356  42.1423747  44.7584732  67.2863157  33.6951838
  44.1072711  67.8717238  33.3085852  45.5529094  67.8169352  33.7546876
  38.6840359  64.3752294  34.0938972  39.4571235  63.8281281  33.9551848
  39.0365758  65.2396544  34.3053434  41.0206637  60.5344960  31.7257422
  41.2732157  60.0126482  30.9640885  40.0831196  60.3711106  31.8284106
  46.0649919  59.5380739  39.5332166  46.8513009  59.1200162  39.1822583
  46.3288624  60.4426831  39.7013814  46.2359997  64.9753589  34.2320822
  45.6005830  65.0488216  34.9441727  45.9057403  65.5647188  33.5539902
  40.7402925  62.4373066  33.9281797  40.6239183  61.7617970  34.5962882
  40.8505185  61.9505440  33.1113950  43.0834466  61.8983213  37.6328487
  42.7192674  61.3713834  38.3441408  43.9401582  61.5081682  37.4594972
  42.7239953  56.9273113  32.6289835  42.8914356  57.7953350  32.9960306
  42.5337122  57.0900395  31.7051124  38.9327768  61.8403889  40.3292370
  38.0078264  61.7080103  40.5370062  39.1812181  62.6198108  40.8262312
  42.7029174  59.3830771  33.6136502  42.5828799  59.8287821  34.4521982
  42.0081763  59.7316088  33.0550040  36.2936579  61.4837162  41.1636159
  36.4228960  61.7371641  42.0775571  35.6134030  62.0764870  40.8440814
  40.4636066  72.1534412  37.2626633  40.3860096  73.1042237  37.3415114
  39.8597710  71.8080285  37.9201559  48.4014240  59.8552244  34.4416836
  49.3132096  60.0879631  34.2664533  47.8923887  60.4389288  33.8791915
  42.5611785  64.5752470  39.0980502  43.0250130  64.8540173  38.3085125
  42.2968583  63.6735915  38.9153593  39.4535866  64.1223952  42.0360266
  40.0237223  64.5511220  41.3977750  40.0443977  63.8406537  42.7344451
  41.4980671  60.6975623  35.9070068  42.2004714  61.1496666  36.3743994
  41.1661299  60.0559442  36.5349961  35.2406005  58.9559175  41.2087201
  34.4505059  59.2116704  40.7327312  35.7317252  59.7707513  41.3139242
  37.1920750  59.3203755  38.1670678  36.3951913  59.4322449  38.6854174
  36.9646342  59.6590407  37.3011568  33.5243708  59.2089666  43.6402192
  33.7751746  60.0936676  43.9059768  34.0603256  59.0294267  42.8677284
  42.7374435  67.5116565  35.9832173  42.6020110  68.3568101  36.4117021
  43.2784248  67.7135843  35.2198107  36.1903833  65.0292003  36.5560098
  36.7028353  65.8235254  36.7065663  36.8426545  64.3318294  36.4893699
  37.9998717  68.1457760  38.6382851  38.1765346  69.0675724  38.4503835
  38.7955551  67.8316179  39.0677231  39.1230033  69.6635933  44.6393193
  39.6737458  69.5352997  43.8670187  38.2841509  69.9630822  44.2888086
  34.1552749  63.3580658  37.3319668  34.9927971  63.7677666  37.1153376
  34.3331017  62.4180100  37.3019862  46.0517181  61.0255738  33.0203501
  45.5363805  61.7960343  33.2591889  45.7794490  60.3520874  33.6436563
  43.6364293  55.8705439  38.0788740  42.7805889  55.4812289  37.8994378
  44.0491244  55.9497400  37.2188525  51.0251456  63.7788093  34.9556675
  50.2480898  63.4399252  34.5111837  51.7042937  63.7840716  34.2811640
  45.8403485  58.8982830  34.8463283  45.5353620  59.2128980  35.6973426
  46.7933927  58.9764250  34.8890616  44.2849916  65.0573054  36.4956237
  43.7571278  64.3225813  36.1829474  43.7837419  65.8347730  36.2496205
  39.0168644  55.7192720  38.8562848  39.5912396  55.4967902  38.1236041
  39.6039627  55.7881415  39.6091449  48.0748221  61.6066447  39.6627225
  48.5880103  62.2396439  40.1648934  48.7249445  61.0067642  39.2970585
  39.3438231  57.7497181  32.8758733  38.5075543  58.0871868  33.1968008
  39.2043001  57.6146161  31.9385870  41.3191312  52.5933969  37.5837918
  40.6655724  52.2782986  36.9594532  41.2771786  51.9709709  38.3097740
  42.4302517  62.8753264  29.4991210  41.5229578  62.6442517  29.6982359
  42.9273549  62.0790883  29.6865191  45.3370596  71.5850771  32.4187896
  44.6632294  71.8882468  33.0272854  45.7236418  72.3879852  32.0693353
  45.3364100  60.4807318  37.0388245  46.0835919  60.9928715  36.7295367
  45.6055689  60.1591371  37.8992639  43.6090750  62.9765859  34.0215200
  42.7001969  62.6924892  34.1187669  43.6385834  63.3964937  33.1618507
  48.8410018  66.5872448  37.7906367  48.3872345  65.7463358  37.8471558
  48.2103984  67.2233847  38.1281147  47.2842957  68.4248945  38.7256185
  47.5765931  68.9854002  38.0068551  47.7941577  68.7177506  39.4809345
  34.1778920  60.6971373  38.0030402  33.9803320  60.1040734  37.2781468
  33.6225584  60.3923583  38.7206341  42.1575644  60.5894479  40.1224995
  42.2124254  59.6368316  40.0467472  41.3466846  60.7453919  40.6066293
  43.3066838  64.5174603  31.3603278  42.8686268  63.8010461  30.9008916
  44.0477279  64.7450717  30.7988370  40.0968004  59.2071539  37.8815374
  39.2835870  59.5065710  38.2880566  40.5926998  58.8127228  38.5989856
  42.2476582  69.2029296  39.8149639  42.2052761  69.4290142  38.8858171
  43.1639281  68.9692671  39.9635440  51.4239953  62.7931800  37.4179597
  51.2857851  62.9833396  36.4900786  51.0676172  63.5551182  37.8747648
  40.3642383  66.0792325  39.6111601  41.1582981  65.5842645  39.4094176
  39.6534075  65.5510188  39.2479307  36.6725146  60.2235407  35.6871354
  35.7422734  60.1619862  35.9041316  36.7682618  59.7011360  34.8907995
  36.5910695  56.7490220  38.2749596  36.8517513  57.6635553  38.1658756
  37.4127868  56.2814662  38.4246208  43.5361811  71.7530444  34.6334975
  43.7113566  71.2818487  35.4480598  42.8494599  72.3796210  34.8616236
  47.4278066  63.3758984  30.9535336  46.8107236  62.6505812  30.8568389
  46.9594554  64.1368344  30.6102410  39.2176611  57.5944408  30.0756640
  38.3406078  57.4733209  29.7118887  39.6934364  56.8030487  29.8235529
  30.7378752  62.3821568  40.1698147  31.4249791  62.0683298  39.5819163
  30.5826880  63.2862933  39.8965399  42.4040537  69.9470699  37.3219161
  41.6208059  70.4892379  37.4157385  43.1033283  70.4644678  37.7213402
  46.7966968  64.5137016  37.5391789  45.8623247  64.6338478  37.3696494
  46.9743637  63.6109482  37.2751799  42.2972156  57.8982711  39.6925051
  41.9269944  57.3453752  40.3805956  42.7931249  57.2940845  39.1400051
  50.1839520  60.3554335  38.0741824  50.6499972  61.1882326  38.0002126
  50.6347020  59.8899316  38.7787082  48.2515751  66.6998156  35.0727976
  48.5275595  66.5854751  35.9821850  47.3820249  66.3015641  35.0340149
  44.8869815  70.9484507  38.7160789  45.0692209  70.1306163  39.1788542
  45.7102801  71.1652199  38.2785679  45.2211980  69.8752692  35.9775838
  45.7499747  69.3645147  35.3646000  45.4840200  69.5595222  36.8421371
  35.7229073  67.8916561  43.7211171  36.3082510  67.1460249  43.8539075
  35.5253911  68.2020518  44.6047835  38.5767728  70.9267809  38.7373614
  37.9078103  71.4113936  38.2537654  38.4380598  71.1737029  39.6516992
  30.3146728  60.4622162  42.4415614  30.3530827  59.9285752  43.2352733
  29.8087021  59.9357367  41.8226592  33.9455305  59.1886264  35.5169546
  34.2408746  58.2796942  35.4636600  33.0443341  59.1674003  35.1950548
  37.4749552  57.2642260  41.4997094  36.7536138  57.8778228  41.3604568
  38.2642808  57.8000025  41.4213740  35.6743147  56.8700361  35.6408871
  35.3455853  55.9897740  35.4583977  36.0282518  56.8148030  36.5285260
  44.9222726  68.5055264  40.1503856  44.7747688  67.5771972  40.3311427
  45.7476219  68.5275355  39.6660932  38.7884970  57.1573331  36.0084349
  39.1281043  57.6859252  35.2862957  39.2357090  57.4953737  36.7842915
  48.5256848  69.3283823  41.2368729  49.4503395  69.1226684  41.0993180
  48.3572151  69.0800224  42.1458071  40.7753117  55.6547953  34.2077641
  41.4961480  56.0329206  33.7041358  40.1518421  56.3736830  34.3112619
  44.9184240  56.3593102  35.1435974  45.1347854  57.2417740  34.8424802
  44.4378307  55.9679315  34.4141616  39.6583461  59.3178815  41.7206718
  39.5128042  59.6319118  42.6131000  39.1808665  59.9363715  41.1677617
  48.3152164  69.8469490  36.5930821  48.4889041  69.2815913  35.8404673
  48.8081055  70.6470385  36.4110311  34.1329124  61.8584159  44.6594380
  33.5882592  62.6343967  44.7914654  35.0108473  62.2054964  44.5013501
  40.9216740  55.1895743  37.0375178  41.0432651  54.2612389  37.2366066
  40.6318783  55.2034429  36.1253493  49.3027336  69.1636255  33.6927719
  49.9978241  69.7842947  33.9115034  49.6450486  68.3131606  33.9680097
  51.2018759  66.6135960  35.2215050  51.7270083  66.9523233  34.4964370
  51.1141112  65.6782976  35.0378184  35.3651759  68.8719484  39.5834931
  36.1909779  68.5723256  39.2033575  35.0145811  68.1027107  40.0324720
  40.3333292  68.2245953  41.6532605  39.7113302  67.5616658  41.3534832
  41.0038159  68.2507084  40.9706252  33.5660364  66.7905811  40.5423865
  32.7292272  66.3627985  40.3607866  33.5384010  66.9838254  41.4794656
  39.8946799  66.7749876  35.1291065  40.0434920  67.4585340  34.4757738
  40.7013243  66.7554966  35.6440521  37.6499432  62.8015054  36.1352134
  37.4045474  61.8977384  36.3332344  37.8195347  62.8032204  35.1931612
  36.9195080  58.5343411  33.6338296  36.2264325  58.6087766  32.9778331
  36.6746832  57.7703755  34.1559812  43.3942205  69.2698006  32.6002813
  42.8216172  69.8888193  32.1473284  43.9674998  69.8197368  33.1342735
  46.6139465  69.5535156  33.7311395  47.5470138  69.4880718  33.9344270
  46.5262677  70.3891423  33.2725928  49.2427481  68.8701027  30.6915342
  49.1641113  68.5360890  31.5851100  50.0637148  69.3622795  30.6906815
  43.7789003  60.6058819  29.9418865  44.7248108  60.4765027  30.0107283
  43.4003248  59.8673481  30.4188293  41.9631920  58.5308796  29.8773750
  41.0563376  58.2341908  29.9536464  42.2407901  58.2338614  29.0108037
  32.8809861  59.8515159  40.3272797  32.5612645  58.9980467  40.0347171
  32.3343289  60.0663737  41.0830764  36.6589768  62.5677600  44.0442303
  36.8775778  63.4994708  44.0630337  37.0715542  62.2085574  44.8297107
  40.7330705  55.3895731  30.0185729  41.5949869  55.7150629  30.2781547
  40.9181049  54.6027227  29.5058795  32.7498121  63.4718070  42.2965918
  32.0561592  63.0572023  41.7835873  33.4971112  63.5138607  41.6999337
  34.6634863  63.4036324  40.1731933  34.6405551  63.5024011  39.2213816
  34.9735500  64.2501475  40.4949099  37.3222241  65.4612479  44.2878548
  38.2765495  65.4296422  44.2208479  37.1234765  65.0003103  45.1028773
  47.6688219  56.4224348  36.2177301  46.7814075  56.7073998  35.9997496
  48.0842209  56.2618111  35.3704578  35.6772470  71.0032099  41.3048745
  35.5426938  70.2432500  40.7386743  35.2604532  71.7272999  40.8377534
  46.8131433  66.1869022  30.3125321  47.5167283  66.3919025  30.9282976
  46.0894082  66.7545784  30.5774404  47.6429243  61.9378883  36.4327591
  47.5864445  62.3947435  35.5935223  48.1957586  61.1769568  36.2550434
  51.4534049  57.7268615  37.2577710  51.1970983  57.3265251  38.0885918
  50.8286917  58.4412409  37.1327850  48.7218130  66.6251551  32.3623781
  49.5563734  66.1932750  32.1801256  48.5602473  66.4533565  33.2900675
  48.3764023  63.1283665  33.7280120  48.3212826  62.9627936  32.7868564
  47.7510078  63.8359698  33.8842310  41.6860148  52.6291774  33.3065438
  41.6738818  53.5733614  33.4633709  42.5783570  52.4461919  33.0124900
  57.3502405  77.1421203  42.4578958  57.9880815  77.0227950  41.7542298
  57.2323248  78.0902047  42.5166910  54.1592112  77.0948631  42.3940482
  53.8210623  76.9789695  41.5061017  55.0281880  76.6939796  42.3741488
  50.0178927  78.9484107  38.3837373  49.4543793  78.8574044  37.6153661
  49.9031322  78.1284012  38.8639866  55.5978486  82.6155075  33.6951838
  54.9466466  83.2009155  33.3085852  56.3922849  83.1461270  33.7546876
  49.5234113  79.7044212  34.0938972  50.2964989  79.1573199  33.9551848
  49.8759512  80.5688461  34.3053434  51.8600391  75.8636878  31.7257422
  52.1125912  75.3418399  30.9640885  50.9224950  75.7003023  31.8284106
  56.9043674  74.8672656  39.5332166  57.6906763  74.4492080  39.1822583
  57.1682378  75.7718749  39.7013814  57.0753751  80.3045507  34.2320822
  56.4399584  80.3780133  34.9441727  56.7451158  80.8939106  33.5539902
  62.3052101  74.8047890  40.4365144  63.0377273  74.2347106  40.6702974
  61.5491457  74.4169490  40.8771650  51.5796680  77.7664984  33.9281797
  51.4632938  77.0909887  34.5962882  51.6898940  77.2797358  33.1113950
  53.9228221  77.2275131  37.6328487  53.5586428  76.7005752  38.3441408
  54.7795337  76.8373600  37.4594972  53.5633708  72.2565031  32.6289835
  53.7308110  73.1245267  32.9960306  53.3730877  72.4192312  31.7051124
  59.7206185  73.2364550  41.9753103  58.8123062  73.1679958  41.6811864
  59.6693781  73.7136495  42.8034928  53.5422929  74.7122688  33.6136502
  53.4222554  75.1579739  34.4521982  52.8475517  75.0608006  33.0550040
  51.3029821  87.4826330  37.2626633  51.2253850  88.4334155  37.3415114
  50.6991464  87.1372203  37.9201559  59.2407995  75.1844161  34.4416836
  60.1525851  75.4171548  34.2664533  58.7317642  75.7681206  33.8791915
  57.8477577  80.1669980  41.8330417  57.2186440  80.3315694  41.1306485
  57.4603239  80.5811589  42.6041381  61.7266809  81.1024418  39.1874781
  61.0417847  81.4823319  38.6371814  61.8110658  81.7119744  39.9206729
  53.4005539  79.9044388  39.0980502  53.8643885  80.1832091  38.3085125
  53.1362337  79.0027833  38.9153593  52.3374425  76.0267540  35.9070068
  53.0398468  76.4788584  36.3743994  52.0055054  75.3851359  36.5349961
  60.0963569  81.6256332  43.9592482  60.9181012  81.2236519  43.6775164
  60.0925971  81.5224566  44.9108598  48.0314504  74.6495672  38.1670678
  47.2345668  74.7614367  38.6854174  47.8040097  74.9882325  37.3011568
  68.1869562  77.9695081  40.3077453  67.4333270  77.4002479  40.1521458
  68.3217103  77.9357745  41.2548088  53.5768190  82.8408483  35.9832173
  53.4413864  83.6860019  36.4117021  54.1178002  83.0427761  35.2198107
  47.0297587  80.3583921  36.5560098  47.5422108  81.1527171  36.7065663
  47.6820300  79.6610211  36.4893699  48.8392472  83.4749677  38.6382851
  49.0159100  84.3967642  38.4503835  49.6349305  83.1608097  39.0677231
  44.9946504  78.6872575  37.3319668  45.8321726  79.0969584  37.1153376
  45.1724772  77.7472018  37.3019862  56.8910936  76.3547656  33.0203501
  56.3757559  77.1252261  33.2591889  56.6188244  75.6812792  33.6436563
  61.8645210  79.1080011  34.9556675  61.0874653  78.7691170  34.5111837
  62.5436691  79.1132634  34.2811640  56.6797239  74.2274748  34.8463283
  56.3747375  74.5420897  35.6973426  57.6327681  74.3056168  34.8890616
  55.1243671  80.3864971  36.4956237  54.5965033  79.6517731  36.1829474
  54.6231174  81.1639648  36.2496205  60.1036517  78.5813992  41.6123283
  59.4460191  79.2713253  41.7003412  60.9076916  78.9710424  41.9557269
  49.8562399  71.0484638  38.8562848  50.4306150  70.8259819  38.1236041
  50.4433381  71.1173332  39.6091449  58.9141976  76.9358365  39.6627225
  59.4273858  77.5688356  40.1648934  59.5643200  76.3359560  39.2970585
  50.1831986  73.0789099  32.8758733  49.3469298  73.4163785  33.1968008
  50.0436755  72.9438079  31.9385870  53.2696271  78.2045182  29.4991210
  52.3623333  77.9734435  29.6982359  53.7667303  77.4082801  29.6865191
  56.1764350  86.9142689  32.4187896  55.5026049  87.2174386  33.0272854
  56.5630172  87.7171769  32.0693353  55.3922807  74.4107820  41.9085565
  54.4745368  74.6322767  41.7507253  55.8082950  74.4854131  41.0497272
  56.1757854  75.8099236  37.0388245  56.9229673  76.3220633  36.7295367
  56.4449444  75.4883289  37.8992639  54.4484505  78.3057777  34.0215200
  53.5395724  78.0216809  34.1187669  54.4779588  78.7256855  33.1618507
  59.6803772  81.9164366  37.7906367  59.2266099  81.0755276  37.8471558
  59.0497739  82.5525764  38.1281147  58.6236692  72.8456352  39.0207035
  57.8859448  72.3333738  39.3517277  58.8763465  72.4056734  38.2090312
  58.1236711  83.7540863  38.7256185  58.4159686  84.3145920  38.0068551
  58.6335332  84.0469424  39.4809345  52.9969399  75.9186397  40.1224995
  53.0518008  74.9660234  40.0467472  52.1860601  76.0745836  40.6066293
  54.1460592  79.8466520  31.3603278  53.7080022  79.1302379  30.9008916
  54.8871033  80.0742635  30.7988370  50.9361759  74.5363457  37.8815374
  50.1229624  74.8357627  38.2880566  51.4320753  74.1419146  38.5989856
  53.0870336  84.5321214  39.8149639  53.0446515  84.7582060  38.8858171
  54.0033035  84.2984588  39.9635440  62.2633707  78.1223717  37.4179597
  62.1251606  78.3125313  36.4900786  61.9069926  78.8843100  37.8747648
  62.2903087  80.1900244  42.4290868  62.7239593  80.0975533  43.2773922
  63.0034667  80.1657745  41.7910884  47.5118901  75.5527325  35.6871354
  46.5816489  75.4911780  35.9041316  47.6076373  75.0303277  34.8907995
  47.4304450  72.0782137  38.2749596  47.6911267  72.9927471  38.1658756
  48.2521622  71.6106580  38.4246208  63.1518636  80.2323945  44.9623754
  63.3454526  81.1369755  45.2083029  63.0519255  79.7731364  45.7962339
  54.3755565  87.0822361  34.6334975  54.5507321  86.6110404  35.4480598
  53.6888353  87.7088127  34.8616236  55.3312628  81.3594868  40.6798276
  54.9962461  81.3195637  41.5755926  54.8316574  80.6939583  40.2068686
  58.2671820  78.7050902  30.9535336  57.6500991  77.9797730  30.8568389
  57.7988308  79.4660262  30.6102410  59.9225952  83.4149810  48.6141116
  59.8638498  82.7309030  47.9471699  60.3245470  84.1568800  48.1621742
  48.9416650  90.2311724  41.4074835  49.1813249  90.8630248  42.0853854
  48.0985847  89.8799764  41.6940194  50.0570366  72.9236326  30.0756640
  49.1799832  72.8025127  29.7118887  50.5328119  72.1322404  29.8235529
  53.4544512  86.0390846  43.8116339  53.3814684  86.8445818  44.3235644
  53.0121905  86.2382812  42.9864360  53.2434292  85.2762617  37.3219161
  52.4601814  85.8184297  37.4157385  53.9427037  85.7936596  37.7213402
  64.4060699  76.7897612  41.6071658  64.3950576  77.6722327  41.2365591
  63.5378079  76.4369162  41.4126195  57.6360723  79.8428933  37.5391789
  56.7017001  79.9630396  37.3696494  57.8137391  78.9401400  37.2751799
  61.0233274  75.6846252  38.0741824  61.4893726  76.5174244  38.0002126
  61.4740775  75.2191234  38.7787082  59.0909505  82.0290074  35.0727976
  59.3669349  81.9146668  35.9821850  58.2214004  81.6307559  35.0340149
  55.7263569  86.2776425  38.7160789  55.9085964  85.4598081  39.1788542
  56.5496555  86.4944117  38.2785679  56.0605735  85.2044610  35.9775838
  56.5893501  84.6937064  35.3646000  56.3233954  84.8887140  36.8421371
  49.4161483  86.2559726  38.7373614  48.7471858  86.7405854  38.2537654
  49.2774352  86.5028947  39.6516992  53.5566751  88.2903470  45.3356272
  54.1085059  88.4535091  46.1005357  53.8972945  88.8807908  44.6636297
  44.7849060  74.5178181  35.5169546  45.0802501  73.6088860  35.4636600
  43.8837096  74.4965921  35.1950548  56.6935139  86.2385445  42.3219954
  56.5686278  85.4375185  41.8130900  57.3514230  86.7331639  41.8333924
  46.5136901  72.1992279  35.6408871  46.1849608  71.3189658  35.4583977
  46.8676272  72.1439948  36.5285260  55.7616480  83.8347182  40.1503856
  55.6141443  82.9063889  40.3311427  56.5869974  83.8567272  39.6660932
  49.6278725  72.4865249  36.0084349  49.9674797  73.0151170  35.2862957
  50.0750845  72.8245655  36.7842915  59.3650602  84.6575740  41.2368729
  60.2897150  84.4518602  41.0993180  59.1965905  84.4092142  42.1458071
  51.6146872  70.9839870  34.2077641  52.3355234  71.3621123  33.7041358
  50.9912176  71.7028747  34.3112619  55.7577995  71.6885019  35.1435974
  55.9741609  72.5709657  34.8424802  55.2772062  71.2971233  34.4141616
  59.1545918  85.1761408  36.5930821  59.3282796  84.6107830  35.8404673
  59.6474810  85.9762303  36.4110311  51.7610495  70.5187661  37.0375178
  51.8826406  69.5904307  37.2366066  51.4712537  70.5326347  36.1253493
  65.0085309  77.9397831  38.2121120  65.4516455  77.1905156  37.8140244
  64.1311820  77.9307967  37.8294852  60.1421091  84.4928172  33.6927719
  60.8371995  85.1134865  33.9115034  60.4844241  83.6423524  33.9680097
  62.0412514  81.9427878  35.2215050  62.5663838  82.2815151  34.4964370
  61.9534866  81.0074893  35.0378184  53.7253175  88.0099861  39.5810303
  53.2858165  87.5176240  40.2743160  54.4761292  87.4672829  39.3402378
  46.2045514  84.2011402  39.5834931  47.0303534  83.9015174  39.2033575
  45.8539566  83.4319024  40.0324720  44.4054119  82.1197728  40.5423865
  43.5686027  81.6919903  40.3607866  44.3777764  82.3130172  41.4794656
  61.7306420  82.5760782  50.5266248  60.9401964  82.5584920  49.9870747
  61.4939775  83.1149075  51.2815284  50.7340554  82.1041794  35.1291065
  50.8828674  82.7877258  34.4757738  51.5406997  82.0846884  35.6440521
  63.3522492  81.8450189  48.0840998  63.0607300  82.2080170  48.9204459
  62.7394623  81.1317198  47.9054330  64.5518174  79.4103069  40.6043568
  65.3865066  79.8492873  40.7681128  64.6877303  78.9341722  39.7851814
  48.4893187  78.1306971  36.1352134  48.2439229  77.2269301  36.3332344
  48.6589101  78.1324122  35.1931612  47.7588834  73.8635329  33.6338296
  47.0658079  73.9379684  32.9778331  47.5140586  73.0995672  34.1559812
  54.2335959  84.5989924  32.6002813  53.6609926  85.2180111  32.1473284
  54.8068753  85.1489286  33.1342735  60.3011349  73.8448564  44.7849361
  61.2528772  73.9446662  44.8061585  60.1314799  73.0526833  45.2947446
  57.4533219  84.8827074  33.7311395  58.3863892  84.8172636  33.9344270
  57.3656432  85.7183341  33.2725928  60.0821236  84.1992945  30.6915342
  60.0034867  83.8652808  31.5851100  60.9030902  84.6914712  30.6906815
  62.7799427  77.0654684  43.8991661  62.7475747  76.1270685  44.0851345
  63.3900051  77.1438721  43.1657486  54.6182758  75.9350737  29.9418865
  55.5641862  75.8056945  30.0107283  54.2397003  75.1965399  30.4188293
  62.9293915  73.8565727  43.9449944  62.4132964  73.0724184  43.7579873
  63.8133864  73.5284444  44.1096464  68.5975977  78.1270691  43.0397698
  69.3279365  77.8655979  43.6005401  67.9882922  77.3899413  43.0799766
  66.6791274  76.2678553  43.6372149  65.9524437  76.1334518  43.0288641
  66.2638561  76.5755382  44.4428867  52.8025675  73.8600713  29.8773750
  51.8957130  73.5633826  29.9536464  53.0801656  73.5630531  29.0108037
  51.5724459  70.7187648  30.0185729  52.4343623  71.0442547  30.2781547
  51.7574804  69.9319144  29.5058795  59.7257096  69.5916175  37.1620952
  59.1455765  70.2500979  36.7799005  59.4593029  68.7693519  36.7508370
  58.5081974  71.7516265  36.2177301  57.6207829  72.0365916  35.9997496
  58.9235963  71.5910029  35.3704578  61.8596510  71.7762786  39.9331640
  62.6356900  72.2659239  40.2056257  61.1344644  72.2020840  40.3903509
  64.2969069  72.4890405  40.9905581  64.8913560  72.2486141  40.2798889
  64.3695652  71.7697536  41.6179117  46.5166224  86.3324016  41.3048745
  46.3820692  85.5724417  40.7386743  46.0998287  87.0564916  40.8377534
  57.6525187  81.5160940  30.3125321  58.3561038  81.7210942  30.9282976
  56.9287836  82.0837702  30.5774404  58.4822998  77.2670801  36.4327591
  58.4258199  77.7239353  35.5935223  59.0351340  76.5061486  36.2550434
  62.2927804  73.0560533  37.2577710  62.0364738  72.6557169  38.0885918
  61.6680672  73.7704327  37.1327850  66.6040141  75.7956606  39.7649002
  66.0439699  75.8649796  40.5380564  65.9983645  75.6197591  39.0448498
  49.6735350  87.2293333  41.5167188  49.5567734  88.1738766  41.4145878
  48.8527797  86.9266895  41.9052987  59.5611885  81.9543469  32.3623781
  60.3957489  81.5224668  32.1801256  59.3996228  81.7825483  33.2900675
  59.2157777  78.4575582  33.7280120  59.1606581  78.2919854  32.7868564
  58.5903832  79.1651615  33.8842310  52.5253903  67.9583691  33.3065438
  52.5132572  68.9025531  33.4633709  53.4177324  67.7753837  33.0124900
  50.6989864  87.8821595  44.7323117  51.6017111  87.9145206  45.0489611
  50.4727235  86.9522046  44.7469452  52.4543466  86.6352582  41.3933195
  51.5039097  86.6354443  41.2797567  52.7575953  85.8885316  40.8769230
  68.1896160  92.4713120  42.4578958  68.8274570  92.3519868  41.7542298
  68.0717003  93.4193964  42.5166910  64.9985866  92.4240548  42.3940482
  64.6604378  92.3081613  41.5061017  65.8675634  92.0231713  42.3741488
  60.8572682  94.2776025  38.3837373  60.2937547  94.1865962  37.6153661
  60.7425077  93.4575929  38.8639866  65.4805649  93.5775400  48.3526688
  65.4694290  93.1828198  47.4807191  65.6426289  92.8441473  48.9460459
  58.4037114  95.7727216  41.2221594  59.1958406  95.4318041  40.8067893
  58.6433764  95.8822191  42.1423747  66.4372241  97.9446992  33.6951838
  65.7860220  98.5301073  33.3085852  67.2316603  98.4753187  33.7546876
  60.3627868  95.0336130  34.0938972  61.1358744  94.4865117  33.9551848
  60.7153267  95.8980379  34.3053434  62.2012910  96.3612512  47.3005872
  61.9102776  97.2658143  47.1852538  62.8369895  96.4029039  48.0149941
  63.1269117  93.7389360  43.8907231  63.7232689  93.5145383  43.1764194
  63.1844089  92.9974106  44.4932679  62.6994146  91.1928796  31.7257422
  62.9519666  90.6710317  30.9640885  61.7618705  91.0294941  31.8284106
  67.7437428  90.1964574  39.5332166  68.5300518  89.7783997  39.1822583
  68.0076133  91.1010666  39.7013814  67.9147506  95.6337424  34.2320822
  67.2793339  95.7072051  34.9441727  67.5844912  96.2231023  33.5539902
  73.1445856  90.1339807  40.4365144  73.8771028  89.5639024  40.6702974
  72.3885211  89.7461408  40.8771650  62.4190434  93.0956902  33.9281797
  62.3026692  92.4201805  34.5962882  62.5292694  92.6089276  33.1113950
  64.7621975  92.5567049  37.6328487  64.3980183  92.0297670  38.3441408
  65.6189091  92.1665518  37.4594972  70.6671276  83.8461381  44.8959753
  70.3354601  84.7156792  44.6720968  70.0716889  83.5297665  45.5753783
  64.4027462  87.5856948  32.6289835  64.5701865  88.4537185  32.9960306
  64.2124631  87.7484230  31.7051124  67.1602795  96.0473927  44.2955665
  66.8603519  96.9498966  44.1871473  66.8153855  95.7806111  45.1476818
  60.6115277  92.4987724  40.3292370  59.6865773  92.3663938  40.5370062
  60.8599690  93.2781943  40.8262312  70.5599939  88.5656468  41.9753103
  69.6516817  88.4971876  41.6811864  70.5087535  89.0428412  42.8034928
  64.3816683  90.0414606  33.6136502  64.2616308  90.4871657  34.4521982
  63.6869272  90.3899924  33.0550040  57.9724088  92.1420998  41.1636159
  58.1016469  92.3955477  42.0775571  57.2921539  92.7348706  40.8440814
  62.1423575 102.8118248  37.2626633  62.0647605 103.7626073  37.3415114
  61.5385219 102.4664120  37.9201559  64.6340805  89.9846113  49.9188000
  63.8574139  90.5440033  49.9090865  65.2731368  90.4702896  50.4402870
  72.4261586  86.7672906  43.7530977  71.7835966  87.0605439  43.1070771
  71.9216514  86.6525826  44.5584173  70.0801749  90.5136079  34.4416836
  70.9919605  90.7463466  34.2664533  69.5711396  91.0973123  33.8791915
  62.8887177  92.7931567  49.4805967  63.6301862  93.3316610  49.2040791
  62.1824163  93.4197855  49.6377519  68.3642517  94.9360707  48.0778129
  68.7725873  94.4943117  47.3332761  67.6419778  94.3613334  48.3312321
  64.7173587  89.8733314  45.4511685  65.5634782  90.2972727  45.5946334
  64.6572225  89.2166938  46.1450249  68.6871332  95.4961898  41.8330417
  68.0580194  95.6607612  41.1306485  68.2996994  95.9103507  42.6041381
  72.5660564  96.4316335  39.1874781  71.8811602  96.8115237  38.6371814
  72.6504413  97.0411662  39.9206729  67.8673032  87.5337682  47.1092859
  67.6233964  88.2879743  46.5727135  68.1432963  87.9123030  47.9440106
  69.8211495  94.0776294  45.7870125  70.0328390  94.7208054  45.1104506
  69.7741243  93.2438611  45.3192055  67.4237724  86.6894115  42.6906697
  66.5622203  86.9875369  42.9823434  67.4500159  86.9064514  41.7587729
  64.2399293  95.2336306  39.0980502  64.7037639  95.5124009  38.3085125
  63.9756092  94.3319750  38.9153593  61.1323375  94.7807787  42.0360266
  61.7024732  95.2095056  41.3977750  61.7231486  94.4990372  42.7344451
  63.1768180  91.3559458  35.9070068  63.8792223  91.8080502  36.3743994
  62.8448808  90.7143277  36.5349961  61.6248541  89.9471215  50.2821277
  60.9947202  90.6287496  50.5156674  61.5184629  89.8354296  49.3374415
  56.9193513  89.6143011  41.2087201  56.1292567  89.8700539  40.7327312
  57.4104761  90.4291349  41.3139242  70.9357323  96.9548250  43.9592482
  71.7574767  96.5528437  43.6775164  70.9319726  96.8516484  44.9108598
  58.8708259  89.9787590  38.1670678  58.0739422  90.0906284  38.6854174
  58.6433851  90.3174242  37.3011568  64.7013927  96.5032293  46.1153193
  64.7658359  96.9652700  46.9511364  63.9924850  95.8729658  46.2435502
  55.2031216  89.8673501  43.6402192  55.4539255  90.7520511  43.9059768
  55.7390765  89.6878103  42.8677284  79.0263316  93.2986998  40.3077453
  78.2727024  92.7294396  40.1521458  79.1610857  93.2649663  41.2548088
  64.4161944  98.1700401  35.9832173  64.2807619  99.0151936  36.4117021
  64.9571757  98.3719678  35.2198107  57.8691342  95.6875839  36.5560098
  58.3815862  96.4819089  36.7065663  58.5214054  94.9902129  36.4893699
  59.6786226  98.8041595  38.6382851  59.8552855  99.7259560  38.4503835
  60.4743060  98.4900014  39.0677231  63.8197245  85.6649860  50.2366785
  64.5606958  86.2657013  50.1571247  64.0515168  84.9227497  49.6784827
  58.9638583  90.8506227  48.5145014  58.8492098  89.9491484  48.8152113
  58.1083101  91.0969924  48.1629831  66.0430421  98.7923967  50.1132515
  65.5994275  98.0060346  49.7953419  66.7047634  98.9803118  49.4476406
  60.8017542 100.3219769  44.6393193  61.3524967 100.1936832  43.8670187
  59.9629018 100.6214658  44.2888086  68.1411659  99.0726767  48.1413916
  68.1230134  99.8935648  47.6494185  69.0631579  98.9480842  48.3664057
  64.5984713  96.5870897  48.9837425  65.1313050  95.8259185  48.7536733
  64.0698794  96.2944548  49.7261579  67.7654408  81.6930963  44.5131066
  67.4218677  82.5832604  44.4370177  68.1333370  81.5032620  43.6500651
  55.8340258  94.0164493  37.3319668  56.6715480  94.4261501  37.1153376
  56.0118526  93.0763935  37.3019862  67.7304690  91.6839574  33.0203501
  67.2151314  92.4544178  33.2591889  67.4581999  91.0104710  33.6436563
  65.3151801  86.5289274  38.0788740  64.4593398  86.1396125  37.8994378
  65.7278753  86.6081235  37.2188525  66.8450948  84.0635618  42.4780300
  66.3415744  84.0265753  41.6648105  67.1381555  84.9728360  42.5376956
  63.0893834  84.1474347  41.4846481  63.9546831  83.9517156  41.1252371
  63.1571343  83.9184699  42.4115838  72.7038965  94.4371928  34.9556675
  71.9268407  94.0983088  34.5111837  73.3830446  94.4424551  34.2811640
  67.5190994  89.5566666  34.8463283  67.2141129  89.8712815  35.6973426
  68.4721436  89.6348086  34.8890616  65.9637425  95.7156889  36.4956237
  65.4358787  94.9809649  36.1829474  65.4624928  96.4931565  36.2496205
  70.9430271  93.9105910  41.6123283  70.2853946  94.6005171  41.7003412
  71.7470671  94.3002342  41.9557269  60.6956153  86.3776555  38.8562848
  61.2699905  86.1551737  38.1236041  61.2827136  86.4465250  39.6091449
  69.7535730  92.2650282  39.6627225  70.2667612  92.8980274  40.1648934
  70.4036954  91.6651478  39.2970585  61.0225740  88.4081016  32.8758733
  60.1863052  88.7455703  33.1968008  60.8830510  88.2729996  31.9385870
  62.9978821  83.2517804  37.5837918  62.3443233  82.9366821  36.9594532
  62.9559295  82.6293545  38.3097740  64.1090026  93.5337099  29.4991210
  63.2017087  93.3026353  29.6982359  64.6061058  92.7374719  29.6865191
  67.0158105 102.2434607  32.4187896  66.3419803 102.5466303  33.0272854
  67.4023926 103.0463687  32.0693353  66.2316561  89.7399738  41.9085565
  65.3139123  89.9614685  41.7507253  66.6476705  89.8146048  41.0497272
  67.0151609  91.1391153  37.0388245  67.7623428  91.6512551  36.7295367
  67.2843198  90.8175206  37.8992639  65.2878259  93.6349694  34.0215200
  64.3789478  93.3508727  34.1187669  65.3173343  94.0548773  33.1618507
  70.5197527  97.2456284  37.7906367  70.0659854  96.4047194  37.8471558
  69.8891493  97.8817682  38.1281147  69.4630446  88.1748270  39.0207035
  68.7253203  87.6625656  39.3517277  69.7157220  87.7348651  38.2090312
  68.9630466  99.0832780  38.7256185  69.2553440  99.6437838  38.0068551
  69.4729086  99.3761341  39.4809345  69.5642073  80.9524522  39.6148804
  69.8700950  80.0921885  39.3274719  70.2894678  81.5442142  39.4147798
  55.8566429  91.3555208  38.0030402  55.6590829  90.7624569  37.2781468
  55.3013093  91.0507419  38.7206341  63.8363153  91.2478315  40.1224995
  63.8911763  90.2952151  40.0467472  63.0254355  91.4037754  40.6066293
  64.9854347  95.1758438  31.3603278  64.5473777  94.4594297  30.9008916
  65.7264788  95.4034553  30.7988370  61.7755513  89.8655375  37.8815374
  60.9623379  90.1649545  38.2880566  62.2714507  89.4711063  38.5989856
  63.9264091  99.8613131  39.8149639  63.8840270 100.0873978  38.8858171
  64.8426790  99.6276506  39.9635440  67.3729725  90.3297199  46.7130268
  67.7279112  90.5568672  47.5724734  68.0201856  90.6615576  46.0907523
  73.1027462  93.4515635  37.4179597  72.9645360  93.6417231  36.4900786
  72.7463680  94.2135018  37.8747648  61.2669588  87.4373730  43.4976609
  61.9068967  87.2962489  42.7999572  60.4347118  87.1508243  43.1215211
  73.1296841  95.5192162  42.4290868  73.5633348  95.4267451  43.2773922
  73.8428422  95.4949662  41.7910884  62.0429892  96.7376160  39.6111601
  62.8370490  96.2426481  39.4094176  61.3321584  96.2094024  39.2479307
  66.8624736  99.1194256  43.9623969  66.9161758  99.6885192  44.7301685
  65.9939518  99.2896141  43.5978006  58.3512655  90.8819242  35.6871354
  57.4210243  90.8203698  35.9041316  58.4470127  90.3595195  34.8907995
  58.2698204  87.4074055  38.2749596  58.5305022  88.3219388  38.1658756
  59.0915377  86.9398498  38.4246208  59.7423130  88.8211812  45.4448420
  60.4146183  88.6129174  44.7961069  58.9152916  88.6233898  45.0053652
  73.9912391  95.5615863  44.9623754  74.1848281  96.4661673  45.2083029
  73.8913009  95.1023282  45.7962339  65.6448702  85.4473753  47.4614081
  64.9976617  86.1463703  47.3678557  66.4149717  85.8809897  47.8290329
  69.0527500  95.7122605  50.5364634  68.9013006  95.4833157  49.6194718
  69.0432179  96.6693207  50.5495979  65.8212836  93.2854518  45.5210901
  66.7504896  93.4365678  45.3479868  65.4003866  93.3738539  44.6659547
  64.6201168  97.3105182  43.2909438  64.4812253  96.9423967  44.1635377
  63.8315764  97.8252822  43.1193396  65.2149320 102.4114279  34.6334975
  65.3901075 101.9402322  35.4480598  64.5282108 103.0380045  34.8616236
  66.1706383  96.6886785  40.6798276  65.8356215  96.6487555  41.5755926
  65.6710329  96.0231501  40.2068686  60.1450627  92.0954415  46.2050857
  60.0070425  91.3634654  46.8062396  61.0555550  92.0063315  45.9235045
  69.1065575  94.0342820  30.9535336  68.4894745  93.3089648  30.8568389
  68.6382063  94.7952180  30.6102410  62.7732927  91.8074375  45.6934537
  63.4832546  91.1667567  45.6521155  62.7302236  92.0587269  46.6160718
  70.7619706  98.7441728  48.6141116  70.7032252  98.0600948  47.9471699
  71.1639225  99.4860718  48.1621742  61.4861861  88.7939592  47.5130176
  60.9499218  88.3430331  48.1651773  60.8978570  88.9285501  46.7700641
  59.7810405 105.5603642  41.4074835  60.0207003 106.1922166  42.0853854
  58.9379601 105.2091682  41.6940194  60.8964120  88.2528244  30.0756640
  60.0193587  88.1317045  29.7118887  61.3721873  87.4614322  29.8235529
  70.7637113  96.7081312  46.8455096  69.8763892  96.3707234  46.9681495
  71.3335664  95.9764343  47.0823861  52.4166261  93.0405404  40.1698147
  53.1037300  92.7267134  39.5819163  52.2614389  93.9446768  39.8965399
  57.2200983  87.9295600  44.5983171  57.1359171  87.3221270  43.8633581
  56.3983689  88.4204618  44.5992667  64.2938267 101.3682764  43.8116339
  64.2208438 102.1737736  44.3235644  63.8515660 101.5674730  42.9864360
  64.0828046 100.6054534  37.3219161  63.2995568 101.1476214  37.4157385
  64.7820792 101.1228514  37.7213402  67.3924697  86.4149164  39.9653366
  67.8893396  85.6619126  39.6454436  66.6211678  86.4513480  39.3996575
  75.2454454  92.1189529  41.6071658  75.2344330  93.0014245  41.2365591
  74.3771833  91.7661080  41.4126195  66.7536950 101.2669598  45.9674498
  67.4664923 101.9017063  45.8950399  66.2626979 101.3633464  45.1514500
  68.4754477  95.1720851  37.5391789  67.5410756  95.2922313  37.3696494
  68.6531146  94.2693318  37.2751799  63.9759665  88.5566547  39.6925051
  63.6057453  88.0037587  40.3805956  64.4718758  87.9524680  39.1400051
  71.8627029  91.0138170  38.0741824  72.3287481  91.8466162  38.0002126
  72.3134529  90.5483152  38.7787082  61.8048864  99.0164042  46.7880069
  62.5058323  99.6500525  46.9409463  61.3343979  99.3578773  46.0275708
  69.9303260  97.3581991  35.0727976  70.2063104  97.2438586  35.9821850
  69.0607758  96.9599476  35.0340149  69.8343691  83.3818757  42.1132725
  68.9206771  83.6122984  42.2814932  70.2636793  83.4657201  42.9646757
  69.6050150  91.5708649  44.6132619  68.9521600  91.8184557  43.9585072
  69.9830530  90.7572787  44.2795096  66.5657324 101.6068342  38.7160789
  66.7479718 100.7889998  39.1788542  67.3890310 101.8236035  38.2785679
  66.8999489 100.5336527  35.9775838  67.4287256 100.0228982  35.3646000
  67.1627709 100.2179058  36.8421371  65.6537723  92.3128460  51.0998656
  64.9778360  92.2122589  51.7701031  66.4765357  92.1567674  51.5634653
  57.4016582  98.5500397  43.7211171  57.9870019  97.8044085  43.8539075
  57.2041420  98.8604353  44.6047835  60.2555237 101.5851644  38.7373614
  59.5865612 102.0697772  38.2537654  60.1168107 101.8320865  39.6516992
  51.9934237  91.1205997  42.4415614  52.0318336  90.5869588  43.2352733
  51.4874529  90.5941202  41.8226592  64.3960506 103.6195388  45.3356272
  64.9478814 103.7827009  46.1005357  64.7366699 104.2099825  44.6636297
  59.3724999  85.9670537  45.9378157  59.4366325  86.8285368  45.5255554
  59.3092119  85.3544539  45.2050515  58.8477272  88.0393670  49.5851191
  59.4749310  87.6570747  50.1988715  57.9905190  87.8207872  49.9506883
  69.2471380  98.4456645  51.1904926  69.7911284  99.0586603  50.6959881
  68.6658225  99.0036224  51.7071939  55.6242814  89.8470099  35.5169546
  55.9196255  88.9380777  35.4636600  54.7230850  89.8257839  35.1950548
  67.5328893 101.5677363  42.3219954  67.4080032 100.7667103  41.8130900
  68.1907984 102.0623557  41.8333924  59.1537061  87.9226096  41.4997094
  58.4323647  88.5362063  41.3604568  59.9430317  88.4583860  41.4213740
  69.5963801  99.3686383  43.9499504  68.6494137  99.2491734  43.8777831
  69.9446575  98.4808881  44.0325766  61.9563375  85.2580522  47.7737746
  62.4797777  85.5042819  48.5364055  61.7375708  86.0900557  47.3540883
  57.3530656  87.5284197  35.6408871  57.0243362  86.6481576  35.4583977
  57.7070027  87.4731865  36.5285260  66.6010235  99.1639099  40.1503856
  66.4535197  98.2355807  40.3311427  67.4263728  99.1859190  39.6660932
  60.4672479  87.8157167  36.0084349  60.8068552  88.3443088  35.2862957
  60.9144599  88.1537573  36.7842915  70.2044357  99.9867658  41.2368729
  71.1290904  99.7810520  41.0993180  70.0359660  99.7384059  42.1458071
  63.1615920  86.1994217  45.4587417  62.8212740  85.4002030  45.8608097
  62.4554926  86.4995928  44.8864250  63.8132392  83.2843530  43.9114740
  64.6358461  82.8104008  43.7893630  64.0570455  84.0634013  44.4113426
  62.4540626  86.3131788  34.2077641  63.1748989  86.6913041  33.7041358
  61.8305930  87.0320665  34.3112619  66.5971749  87.0176937  35.1435974
  66.8135363  87.9001575  34.8424802  66.1165816  86.6263150  34.4141616
  61.3370970  89.9762650  41.7206718  61.1915551  90.2902953  42.6131000
  60.8596174  90.5947551  41.1677617  63.1967353  86.9665198  41.7687608
  63.1828922  86.0706292  41.4319906  63.9139781  86.9735862  42.4025894
  65.0493484  87.4002539  43.8140735  64.7911262  88.3219609  43.8125066
  64.5178524  87.0032973  44.5041199  69.9939673 100.5053326  36.5930821
  70.1676550  99.9399748  35.8404673  70.4868564 101.3054221  36.4110311
  55.8116633  92.5167995  44.6594380  55.2670101  93.2927803  44.7914654
  56.6895982  92.8638799  44.5013501  62.6004249  85.8479579  37.0375178
  62.7220160  84.9196225  37.2366066  62.3106292  85.8618265  36.1253493
  65.4695440  83.5334489  40.1741898  65.4917136  83.5973822  39.2193877
  65.8863499  82.6938998  40.3682404  75.8479064  93.2689749  38.2121120
  76.2910210  92.5197074  37.8140244  74.9705574  93.2599885  37.8294852
  70.9814845  99.8220090  33.6927719  71.6765750 100.4426783  33.9115034
  71.3237995  98.9715441  33.9680097  56.5982654  91.6437891  47.5524536
  55.8564390  91.7920526  48.1389167  56.2775399  91.9046157  46.6891286
  72.8806268  97.2719796  35.2215050  73.4057592  97.6107068  34.4964370
  72.7928621  96.3366811  35.0378184  64.5426317 101.1853869  47.3504926
  64.8513444 100.9403016  48.2227626  65.3401799 101.3900508  46.8623797
  64.5646929 103.3391779  39.5810303  64.1251919 102.8468158  40.2743160
  65.3155046 102.7964747  39.3402378  57.0439268  99.5303320  39.5834931
  57.8697288  99.2307092  39.2033575  56.6933320  98.7610942  40.0324720
  62.0120801  98.8829788  41.6532605  61.3900811  98.2200493  41.3534832
  62.6825668  98.9090920  40.9706252  55.2447873  97.4489646  40.5423865
  54.4079781  97.0211821  40.3607866  55.2171519  97.6422090  41.4794656
  62.0845329  87.3611576  51.2465111  62.1333484  88.2373699  50.8642880
  62.6267843  86.8188969  50.6736754  72.5700174  97.9052699  50.5266248
  71.7795718  97.8876838  49.9870747  72.3333529  98.4440993  51.2815284
  72.6898049  94.7545166  47.8398976  72.7396054  94.5895173  48.7814499
  72.5811973  93.8872425  47.4496857  61.5734308  97.4333711  35.1291065
  61.7222429  98.1169176  34.4757738  62.3800752  97.4138801  35.6440521
  69.9801812  90.7376094  49.1558283  70.8811675  90.5982558  48.8642281
  70.0549786  90.9030548  50.0956460  64.3144617  88.1142948  48.0011469
  63.4447927  88.4076514  47.7294058  64.5504098  88.6983393  48.7218733
  74.1916246  97.1742107  48.0840998  73.9001055  97.5372088  48.9204459
  73.5788378  96.4609115  47.9054330  75.3911929  94.7394987  40.6043568
  76.2258820  95.1784791  40.7681128  75.5271057  94.2633640  39.7851814
  72.4403435  92.2974722  46.5521056  72.9157556  92.4902368  45.7439907
  71.5169000  92.3533908  46.3064439  59.3286941  93.4598889  36.1352134
  59.0832983  92.5561219  36.3332344  59.4982856  93.4616039  35.1931612
  67.0183651  84.3322565  45.5176890  67.5365595  85.0683592  45.1923378
  66.6638784  84.6386559  46.3523649  58.5982589  89.1927246  33.6338296
  57.9051834  89.2671601  32.9778331  58.3534341  88.4287590  34.1559812
  67.2696245  80.7522848  41.0377786  67.5497999  80.0846037  41.6638213
  68.0546852  80.9451943  40.5252450  65.0729714  99.9281842  32.6002813
  64.5003681 100.5472029  32.1473284  65.6462507 100.4781203  33.1342735
  71.1405104  89.1740482  44.7849361  72.0922526  89.2738579  44.8061585
  70.9708554  88.3818750  45.2947446  69.1619483  86.2596065  44.9708762
  68.5669415  86.5401078  44.2755251  68.8769180  86.7489966  45.7425503
  68.2926973 100.2118992  33.7311395  69.2257647 100.1464554  33.9344270
  68.2050186 101.0475259  33.2725928  70.9214990  99.5284862  30.6915342
  70.8428622  99.1944726  31.5851100  71.7424657 100.0206630  30.6906815
  73.6193181  92.3946602  43.8991661  73.5869501  91.4562602  44.0851345
  74.2293805  92.4730638  43.1657486  65.4576512  91.2642654  29.9418865
  66.4035617  91.1348863  30.0107283  65.0790757  90.5257316  30.4188293
  73.7687670  89.1857645  43.9449944  73.2526718  88.4016102  43.7579873
  74.6527618  88.8576362  44.1096464  71.4298397  82.9298661  39.9045757
  71.2323218  82.6213749  40.7889089  72.0398102  83.6560299  40.0343687
  79.4369731  93.4562608  43.0397698  80.1673120  93.1947896  43.6005401
  78.8276677  92.7191330  43.0799766  77.5185028  91.5970471  43.6372149
  76.7918192  91.4626436  43.0288641  77.1032315  91.9047300  44.4428867
  65.3415205  95.3160401  51.4019522  66.2618214  95.4939000  51.5959569
  65.3064788  94.3716446  51.2499221  63.6419429  89.1892631  29.8773750
  62.7350885  88.8925744  29.9536464  63.9195410  88.8922449  29.0108037
  54.5597370  90.5098994  40.3272797  54.2400154  89.6564302  40.0347171
  54.0130798  90.7247572  41.0830764  58.3377277  93.2261435  44.0442303
  58.5563287  94.1578543  44.0630337  58.7503051  92.8669410  44.8297107
  65.2581495  83.7329521  36.0317992  64.4482223  83.3876606  36.4073238
  65.9465912  83.4237064  36.6205603  67.1872043  82.8107567  37.6542288
  67.7403082  83.2303021  38.3132311  67.4242130  81.8843315  37.6965244
  63.2105143  88.7994641  53.4345052  63.1101869  89.7488998  53.3657143
  62.9926685  88.4712880  52.5621122  62.4118214  86.0479566  30.0185729
  63.2737378  86.3734464  30.2781547  62.5968558  85.2611062  29.5058795
  54.4285630  94.1301906  42.2965918  53.7349101  93.7155859  41.7835873
  55.1758621  94.1722442  41.6999337  70.5650850  84.9208093  37.1620952
  69.9849520  85.5792897  36.7799005  70.2986783  84.0985437  36.7508370
  69.0154417  84.3213150  39.3642273  69.5154195  84.4329685  38.5556592
  69.6590025  84.0174203  40.0043081  63.0736413  92.2291780  52.2510114
  62.5903494  93.0292140  52.4574003  63.1597352  92.2399725  51.2977558
  56.3422372  94.0620160  40.1731933  56.3193060  94.1607847  39.2213816
  56.6523009  94.9085310  40.4949099  59.0009750  96.1196315  44.2878548
  59.9553004  96.0880257  44.2208479  58.8022274  95.6586938  45.1028773
  59.5909132  94.6897431  46.8549345  60.4102021  95.1841509  46.8784183
  59.8645940  93.7729399  46.8266913  69.3475728  87.0808183  36.2177301
  68.4601584  87.3657834  35.9997496  69.7629718  86.9201946  35.3704578
  72.6990265  87.1054704  39.9331640  73.4750655  87.5951156  40.2056257
  71.9738399  87.5312758  40.3903509  75.1362823  87.8182323  40.9905581
  75.7307314  87.5778059  40.2798889  75.2089407  87.0989454  41.6179117
  57.3559979 101.6615934  41.3048745  57.2214447 100.9016335  40.7386743
  56.9392041 102.3856834  40.8377534  68.4918942  96.8452858  30.3125321
  69.1954792  97.0502860  30.9282976  67.7681591  97.4129619  30.5774404
  69.3216752  92.5962719  36.4327591  69.2651954  93.0531270  35.5935223
  69.8745095  91.8353403  36.2550434  73.1321558  88.3852451  37.2577710
  72.8758492  87.9849086  38.0885918  72.5074426  89.0996245  37.1327850
  77.4433896  91.1248524  39.7649002  76.8833454  91.1941713  40.5380564
  76.8377399  90.9489509  39.0448498  60.5129105 102.5585251  41.5167188
  60.3961489 103.5030684  41.4145878  59.6921551 102.2558813  41.9052987
  70.4005639  97.2835387  32.3623781  71.2351243  96.8516585  32.1801256
  70.2389982  97.1117400  33.2900675  70.0551532  93.7867500  33.7280120
  70.0000335  93.6211772  32.7868564  69.4297587  94.4943533  33.8842310
  54.8444047  89.0235564  47.5541542  55.4902910  88.5134518  48.0428767
  54.6361198  89.7604246  48.1284968  67.3697439  96.0916412  53.0533683
  68.2388598  96.2657064  52.6920318  66.8904190  96.9110829  52.9309412
  63.3647657  83.2875609  33.3065438  63.3526327  84.2317449  33.4633709
  64.2571079  83.1045755  33.0124900  61.5383619 103.2113513  44.7323117
  62.4410866 103.2437123  45.0489611  61.3120989 102.2813964  44.7469452
  63.2937221 101.9644500  41.3933195  62.3432852 101.9646361  41.2797567
  63.5969707 101.2177234  40.8769230  67.1799776  79.8818386  37.5611375
  66.4132172  79.3276872  37.7068058  67.5910481  79.9540255  38.4225527
  59.1841538  86.1703182  51.6516557  60.0472999  85.8139986  51.8619881
  58.6106948  85.8317076  52.3391961  79.0289914 107.8005038  42.4578958
  79.6668324 107.6811785  41.7542298  78.9110757 108.7485882  42.5166910
  75.8379621 107.7532466  42.3940482  75.4998132 107.6373531  41.5061017
  76.7069389 107.3523631  42.3741488  71.6966436 109.6067942  38.3837373
  71.1331302 109.5157879  37.6153661  71.5818831 108.7867847  38.8639866
  76.3199404 108.9067318  48.3526688  76.3088044 108.5120116  47.4807191
  76.4820043 108.1733390  48.9460459  69.2430868 111.1019134  41.2221594
  70.0352160 110.7609959  40.8067893  69.4827519 111.2114109  42.1423747
  77.2765995 113.2738910  33.6951838  76.6253975 113.8592991  33.3085852
  78.0710358 113.8045105  33.7546876  71.2021622 110.3628047  34.0938972
  71.9752498 109.8157034  33.9551848  71.5547021 111.2272297  34.3053434
  73.0406665 111.6904430  47.3005872  72.7496531 112.5950060  47.1852538
  73.6763649 111.7320957  48.0149941  73.9662872 109.0681278  43.8907231
  74.5626444 108.8437300  43.1764194  74.0237843 108.3266024  44.4932679
  73.5387900 106.5220713  31.7257422  73.7913421 106.0002235  30.9640885
  72.6012459 106.3586859  31.8284106  78.5831183 105.5256492  39.5332166
  79.3694272 105.1075915  39.1822583  78.8469887 106.4302584  39.7013814
  78.7541260 110.9629342  34.2320822  78.1187093 111.0363969  34.9441727
  78.4238667 111.5522941  33.5539902  83.9839610 105.4631725  40.4365144
  84.7164782 104.8930942  40.6702974  83.2278966 105.0753325  40.8771650
  73.2584189 108.4248819  33.9281797  73.1420447 107.7493723  34.5962882
  73.3686449 107.9381193  33.1113950  75.6015730 107.8858966  37.6328487
  75.2373937 107.3589587  38.3441408  76.4582846 107.4957436  37.4594972
  81.5065030  99.1753299  44.8959753  81.1748355 100.0448710  44.6720968
  80.9110644  98.8589583  45.5753783  75.2421217 102.9148866  32.6289835
  75.4095619 103.7829103  32.9960306  75.0518386 103.0776148  31.7051124
  77.9996550 111.3765845  44.2955665  77.6997273 112.2790884  44.1871473
  77.6547609 111.1098028  45.1476818  71.4509031 107.8279642  40.3292370
  70.5259528 107.6955856  40.5370062  71.6993445 108.6073861  40.8262312
  81.3993694 103.8948385  41.9753103  80.4910571 103.8263794  41.6811864
  81.3481290 104.3720330  42.8034928  75.2210438 105.3706524  33.6136502
  75.1010063 105.8163574  34.4521982  74.5263026 105.7191841  33.0550040
  68.8117842 107.4712915  41.1636159  68.9410224 107.7247394  42.0775571
  68.1315294 108.0640623  40.8440814  75.4734560 105.3138031  49.9188000
  74.6967894 105.8731951  49.9090865  76.1125123 105.7994814  50.4402870
  83.2655340 102.0964824  43.7530977  82.6229720 102.3897357  43.1070771
  82.7610269 101.9817744  44.5584173  80.9195504 105.8427997  34.4416836
  81.8313360 106.0755384  34.2664533  80.4105151 106.4265041  33.8791915
  73.7280932 108.1223484  49.4805967  74.4695616 108.6608528  49.2040791
  73.0217917 108.7489773  49.6377519  79.2036271 110.2652625  48.0778129
  79.6119627 109.8235035  47.3332761  78.4813533 109.6905252  48.3312321
  75.5567342 105.2025231  45.4511685  76.4028537 105.6264645  45.5946334
  75.4965979 104.5458856  46.1450249  79.5265086 110.8253815  41.8330417
  78.8973949 110.9899529  41.1306485  79.1390748 111.2395425  42.6041381
  78.7066787 102.8629600  47.1092859  78.4627719 103.6171660  46.5727135
  78.9826717 103.2414947  47.9440106  80.6605250 109.4068212  45.7870125
  80.8722145 110.0499972  45.1104506  80.6134998 108.5730529  45.3192055
  78.2631479 102.0186033  42.6906697  77.4015958 102.3167286  42.9823434
  78.2893913 102.2356432  41.7587729  75.0793048 110.5628223  39.0980502
  75.5431394 110.8415926  38.3085125  74.8149846 109.6611668  38.9153593
  71.9717129 110.1099705  42.0360266  72.5418486 110.5386973  41.3977750
  72.5625241 109.8282290  42.7344451  74.0161934 106.6851376  35.9070068
  74.7185977 107.1372419  36.3743994  73.6842563 106.0435195  36.5349961
  72.4642296 105.2763132  50.2821277  71.8340956 105.9579413  50.5156674
  72.3578383 105.1646214  49.3374415  67.7587268 104.9434928  41.2087201
  66.9686322 105.1992457  40.7327312  68.2498515 105.7583266  41.3139242
  69.7102013 105.3079508  38.1670678  68.9133177 105.4198202  38.6854174
  69.4827606 105.6466160  37.3011568  75.5407681 111.8324211  46.1153193
  75.6052114 112.2944618  46.9511364  74.8318605 111.2021576  46.2435502
  66.0424971 105.1965419  43.6402192  66.2933009 106.0812429  43.9059768
  66.5784519 105.0170020  42.8677284  75.2555699 113.4992318  35.9832173
  75.1201373 114.3443854  36.4117021  75.7965511 113.7011596  35.2198107
  71.7423038  99.5783898  52.6446528  71.3489984  99.0250097  53.3194172
  72.5589179  99.8894477  53.0353046  68.7085096 111.0167756  36.5560098
  69.2209617 111.8111007  36.7065663  69.3607809 110.3194047  36.4893699
  70.5179981 114.1333513  38.6382851  70.6946609 115.0551477  38.4503835
  71.3136814 113.8191932  39.0677231  74.6590999 100.9941777  50.2366785
  75.4000713 101.5948930  50.1571247  74.8908922 100.2519415  49.6784827
  69.8032337 106.1798145  48.5145014  69.6885852 105.2783402  48.8152113
  68.9476855 106.4261841  48.1629831  71.6411296 115.6511686  44.6393193
  72.1918721 115.5228750  43.8670187  70.8022772 115.9506575  44.2888086
  75.4378467 111.9162814  48.9837425  75.9706804 111.1551102  48.7536733
  74.9092548 111.6236466  49.7261579  78.6048162  97.0222880  44.5131066
  78.2612432  97.9124522  44.4370177  78.9727125  96.8324538  43.6500651
  66.6734013 109.3456411  37.3319668  67.5109235 109.7553419  37.1153376
  66.8512281 108.4055853  37.3019862  78.5698445 107.0131491  33.0203501
  78.0545068 107.7836096  33.2591889  78.2975753 106.3396628  33.6436563
  76.1545556 101.8581192  38.0788740  75.2987152 101.4688043  37.8994378
  76.5672508 101.9373153  37.2188525  77.6844703  99.3927535  42.4780300
  77.1809498  99.3557671  41.6648105  77.9775309 100.3020278  42.5376956
  73.9287588  99.4766265  41.4846481  74.7940585  99.2809074  41.1252371
  73.9965097  99.2476617  42.4115838  78.3584748 104.8858583  34.8463283
  78.0534884 105.2004733  35.6973426  79.3115190 104.9640003  34.8890616
  76.8031180 111.0448807  36.4956237  76.2752542 110.3101566  36.1829474
  76.3018683 111.8223483  36.2496205  81.7824026 109.2397827  41.6123283
  81.1247700 109.9297089  41.7003412  82.5864425 109.6294259  41.9557269
  71.5349908 101.7068473  38.8562848  72.1093659 101.4843655  38.1236041
  72.1220890 101.7757168  39.6091449  80.5929485 107.5942200  39.6627225
  81.1061367 108.2272192  40.1648934  81.2430709 106.9943395  39.2970585
  71.8619495 103.7372934  32.8758733  71.0256807 104.0747621  33.1968008
  71.7224264 103.6021914  31.9385870  73.8372575  98.5809722  37.5837918
  73.1836988  98.2658739  36.9594532  73.7953049  97.9585462  38.3097740
  74.9483780 108.8629017  29.4991210  74.0410842 108.6318270  29.6982359
  75.4454812 108.0666636  29.6865191  77.0710316 105.0691655  41.9085565
  76.1532877 105.2906602  41.7507253  77.4870459 105.1437966  41.0497272
  77.8545363 106.4683071  37.0388245  78.6017182 106.9804468  36.7295367
  78.1236953 106.1467124  37.8992639  76.1272014 108.9641612  34.0215200
  75.2183233 108.6800645  34.1187669  76.1567097 109.3840690  33.1618507
  80.3024201 103.5040187  39.0207035  79.5646957 102.9917574  39.3517277
  80.5550974 103.0640569  38.2090312  80.4035828  96.2816439  39.6148804
  80.7094705  95.4213803  39.3274719  81.1288433  96.8734060  39.4147798
  66.6960184 106.6847126  38.0030402  66.4984584 106.0916487  37.2781468
  66.1406848 106.3799336  38.7206341  74.6756908 106.5770232  40.1224995
  74.7305517 105.6244069  40.0467472  73.8648110 106.7329672  40.6066293
  75.8248101 110.5050356  31.3603278  75.3867531 109.7886214  30.9008916
  76.5658542 110.7326470  30.7988370  72.6149268 105.1947292  37.8815374
  71.8017133 105.4941463  38.2880566  73.1108262 104.8002981  38.5989856
  74.7657845 115.1905049  39.8149639  74.7234024 115.4165895  38.8858171
  75.6820544 114.9568424  39.9635440  78.2123479 105.6589117  46.7130268
  78.5672867 105.8860590  47.5724734  78.8595610 105.9907493  46.0907523
  83.9421216 108.7807553  37.4179597  83.8039115 108.9709149  36.4900786
  83.5857435 109.5426935  37.8747648  72.1063342 102.7665648  43.4976609
  72.7462722 102.6254407  42.7999572  71.2740873 102.4800161  43.1215211
  72.8823646 112.0668078  39.6111601  73.6764245 111.5718398  39.4094176
  72.1715339 111.5385941  39.2479307  69.1906410 106.2111160  35.6871354
  68.2603998 106.1495615  35.9041316  69.2863882 105.6887113  34.8907995
  69.1091959 102.7365973  38.2749596  69.3698776 103.6511306  38.1658756
  69.9309131 102.2690415  38.4246208  70.5816884 104.1503730  45.4448420
  71.2539937 103.9421092  44.7961069  69.7546671 103.9525816  45.0053652
  76.4842456 100.7765671  47.4614081  75.8370371 101.4755620  47.3678557
  77.2543471 101.2101815  47.8290329  79.8921254 111.0414523  50.5364634
  79.7406760 110.8125075  49.6194718  79.8825933 111.9985124  50.5495979
  76.6606590 108.6146436  45.5210901  77.5898650 108.7657595  45.3479868
  76.2397620 108.7030457  44.6659547  75.4594922 112.6397100  43.2909438
  75.3206008 112.2715885  44.1635377  74.6709518 113.1544740  43.1193396
  77.0100137 112.0178703  40.6798276  76.6749970 111.9779473  41.5755926
  76.5104083 111.3523419  40.2068686  70.9844381 107.4246333  46.2050857
  70.8464179 106.6926572  46.8062396  71.8949305 107.3355233  45.9235045
  73.6126682 107.1366292  45.6934537  74.3226300 106.4959484  45.6521155
  73.5695990 107.3879187  46.6160718  72.3255616 104.1231510  47.5130176
  71.7892973 103.6722249  48.1651773  71.7372324 104.2577419  46.7700641
  71.7357875 103.5820162  30.0756640  70.8587341 103.4608962  29.7118887
  72.2115628 102.7906240  29.8235529  63.2560015 108.3697321  40.1698147
  63.9431055 108.0559051  39.5819163  63.1008144 109.2738686  39.8965399
  68.0594737 103.2587518  44.5983171  67.9752926 102.6513187  43.8633581
  67.2377444 103.7496536  44.5992667  78.2318451 101.7441081  39.9653366
  78.7287151 100.9911044  39.6454436  77.4605433 101.7805398  39.3996575
  79.3148232 110.5012769  37.5391789  78.3804510 110.6214231  37.3696494
  79.4924900 109.5985235  37.2751799  74.8153420 103.8858464  39.6925051
  74.4451207 103.3329505  40.3805956  75.3112512 103.2816598  39.1400051
  82.7020783 106.3430088  38.0741824  83.1681235 107.1758079  38.0002126
  83.1528284 105.8775069  38.7787082  72.6442618 114.3455959  46.7880069
  73.3452078 114.9792442  46.9409463  72.1737733 114.6870691  46.0275708
  80.6737446  98.7110675  42.1132725  79.7600526  98.9414902  42.2814932
  81.1030547  98.7949119  42.9646757  80.4443904 106.9000567  44.6132619
  79.7915355 107.1476474  43.9585072  80.8224284 106.0864705  44.2795096
  76.4931477 107.6420378  51.0998656  75.8172114 107.5414507  51.7701031
  77.3159111 107.4859592  51.5634653  68.2410336 113.8792314  43.7211171
  68.8263773 113.1336002  43.8539075  68.0435175 114.1896271  44.6047835
  62.8327991 106.4497915  42.4415614  62.8712091 105.9161505  43.2352733
  62.3268284 105.9233120  41.8226592  70.2118753 101.2962455  45.9378157
  70.2760080 102.1577286  45.5255554  70.1485874 100.6836457  45.2050515
  69.6871026 103.3685588  49.5851191  70.3143065 102.9862665  50.1988715
  68.8298945 103.1499790  49.9506883  66.4636569 105.1762017  35.5169546
  66.7590010 104.2672695  35.4636600  65.5624605 105.1549756  35.1950548
  69.9930816 103.2518013  41.4997094  69.2717402 103.8653981  41.3604568
  70.7824072 103.7875778  41.4213740  72.7957129 100.5872440  47.7737746
  73.3191531 100.8334736  48.5364055  72.5769463 101.4192475  47.3540883
  68.1924410 102.8576114  35.6408871  67.8637116 101.9773493  35.4583977
  68.5463781 102.8023783  36.5285260  71.3066233 103.1449084  36.0084349
  71.6462306 103.6735005  35.2862957  71.7538354 103.4829490  36.7842915
  74.0009674 101.5286135  45.4587417  73.6606495 100.7293948  45.8608097
  73.2948681 101.8287846  44.8864250  74.6526146  98.6135447  43.9114740
  75.4752215  98.1395926  43.7893630  74.8964210  99.3925931  44.4113426
  73.2934381 101.6423706  34.2077641  74.0142743 102.0204959  33.7041358
  72.6699685 102.3612583  34.3112619  77.4365504 102.3468855  35.1435974
  77.6529118 103.2293493  34.8424802  76.9559571 101.9555068  34.4141616
  72.1764725 105.3054568  41.7206718  72.0309306 105.6194871  42.6131000
  71.6989929 105.9239468  41.1677617  74.0361108 102.2957116  41.7687608
  74.0222677 101.3998209  41.4319906  74.7533536 102.3027780  42.4025894
  75.8887238 102.7294456  43.8140735  75.6305016 103.6511527  43.8125066
  75.3572279 102.3324891  44.5041199  66.6510387 107.8459912  44.6594380
  66.1063855 108.6219720  44.7914654  67.5289737 108.1930717  44.5013501
  73.4398004 101.1771496  37.0375178  73.5613915 100.2488142  37.2366066
  73.1500046 101.1910182  36.1253493  76.3089194  98.8626407  40.1741898
  76.3310891  98.9265740  39.2193877  76.7257253  98.0230915  40.3682404
  67.4376409 106.9729809  47.5524536  66.6958145 107.1212444  48.1389167
  67.1169153 107.2338074  46.6891286  67.8833023 114.8595237  39.5834931
  68.7091043 114.5599009  39.2033575  67.5327075 114.0902860  40.0324720
  72.8514556 114.2121706  41.6532605  72.2294565 113.5492411  41.3534832
  73.5219423 114.2382837  40.9706252  66.0841628 112.7781564  40.5423865
  65.2473536 112.3503738  40.3607866  66.0565273 112.9714007  41.4794656
  72.9239083 102.6903494  51.2465111  72.9727239 103.5665616  50.8642880
  73.4661597 102.1480887  50.6736754  72.4128063 112.7625629  35.1291065
  72.5616183 113.4461093  34.4757738  73.2194506 112.7430719  35.6440521
  80.8195566 106.0668011  49.1558283  81.7205429 105.9274476  48.8642281
  80.8943541 106.2322466  50.0956460  75.1538372 103.4434866  48.0011469
  74.2841681 103.7368432  47.7294058  75.3897852 104.0275311  48.7218733
  83.2797189 107.6266639  46.5521056  83.7551311 107.8194286  45.7439907
  82.3562754 107.6825825  46.3064439  70.1680696 108.7890807  36.1352134
  69.9226738 107.8853137  36.3332344  70.3376610 108.7907957  35.1931612
  77.8577406  99.6614483  45.5176890  78.3759349 100.3975510  45.1923378
  77.5032538  99.9678476  46.3523649  69.4376343 104.5219164  33.6338296
  68.7445588 104.5963519  32.9778331  69.1928095 103.7579508  34.1559812
  78.1090000  96.0814765  41.0377786  78.3891753  95.4137955  41.6638213
  78.8940607  96.2743861  40.5252450  81.9798858 104.5032399  44.7849361
  82.9316281 104.6030497  44.8061585  81.8102308 103.7110668  45.2947446
  80.0013238 101.5887983  44.9708762  79.4063170 101.8692995  44.2755251
  79.7162934 102.0781884  45.7425503  84.4586936 107.7238519  43.8991661
  84.4263256 106.7854520  44.0851345  85.0687559 107.8022556  43.1657486
  76.2970267 106.5934572  29.9418865  77.2429371 106.4640780  30.0107283
  75.9184512 105.8549234  30.4188293  84.6081424 104.5149563  43.9449944
  84.0920473 103.7308019  43.7579873  85.4921373 104.1868279  44.1096464
  82.2692151  98.2590578  39.9045757  82.0716972  97.9505666  40.7889089
  82.8791857  98.9852217  40.0343687  76.1808959 110.6452318  51.4019522
  77.1011969 110.8230917  51.5959569  76.1458542 109.7008364  51.2499221
  74.4813184 104.5184549  29.8773750  73.5744639 104.2217661  29.9536464
  74.7589165 104.2214367  29.0108037  65.3991124 105.8390912  40.3272797
  65.0793909 104.9856220  40.0347171  64.8524552 106.0539490  41.0830764
  69.1771032 108.5553353  44.0442303  69.3957042 109.4870461  44.0630337
  69.5896806 108.1961327  44.8297107  76.0975250  99.0621438  36.0317992
  75.2875978  98.7168523  36.4073238  76.7859667  98.7528982  36.6205603
  78.0265798  98.1399485  37.6542288  78.5796836  98.5594938  38.3132311
  78.2635884  97.2135233  37.6965244  74.0498897 104.1286559  53.4345052
  73.9495624 105.0780916  53.3657143  73.8320439 103.8004798  52.5621122
  73.2511968 101.3771484  30.0185729  74.1131132 101.7026382  30.2781547
  73.4362313 100.5902980  29.5058795  65.2679384 109.4593823  42.2965918
  64.5742856 109.0447776  41.7835873  66.0152375 109.5014360  41.6999337
  81.4044605 100.2500010  37.1620952  80.8243274 100.9084814  36.7799005
  81.1380538  99.4277355  36.7508370  79.8548171  99.6505068  39.3642273
  80.3547950  99.7621602  38.5556592  80.4983779  99.3466121  40.0043081
  73.9130167 107.5583698  52.2510114  73.4297249 108.3584058  52.4574003
  73.9991106 107.5691642  51.2977558  67.1816127 109.3912077  40.1731933
  67.1586815 109.4899764  39.2213816  67.4916763 110.2377228  40.4949099
  69.8403505 111.4488232  44.2878548  70.7946758 111.4172175  44.2208479
  69.6416028 110.9878856  45.1028773  70.4302887 110.0189348  46.8549345
  71.2495776 110.5133427  46.8784183  70.7039694 109.1021316  46.8266913
  80.1869483 102.4100101  36.2177301  79.2995338 102.6949751  35.9997496
  80.6023472 102.2493864  35.3704578  83.5384019 102.4346622  39.9331640
  84.3144409 102.9243074  40.2056257  82.8132153 102.8604676  40.3903509
  85.9756578 103.1474241  40.9905581  86.5701069 102.9069977  40.2798889
  86.0483161 102.4281371  41.6179117  80.1610507 107.9254637  36.4327591
  80.1045708 108.3823188  35.5935223  80.7138849 107.1645321  36.2550434
  83.9715313 103.7144368  37.2577710  83.7152247 103.3141004  38.0885918
  83.3468181 104.4288162  37.1327850  88.2827650 106.4540442  39.7649002
  87.7227208 106.5233631  40.5380564  87.6771154 106.2781426  39.0448498
  80.8945286 109.1159418  33.7280120  80.8394090 108.9503689  32.7868564
  80.2691341 109.8235451  33.8842310  65.6837801 104.3527482  47.5541542
  66.3296665 103.8426436  48.0428767  65.4754952 105.0896164  48.1284968
  78.2091193 111.4208330  53.0533683  79.0782353 111.5948982  52.6920318
  77.7297945 112.2402746  52.9309412  74.2041411  98.6167527  33.3065438
  74.1920081  99.5609367  33.4633709  75.0964833  98.4337672  33.0124900
  78.0193531  95.2110303  37.5611375  77.2525927  94.6568790  37.7068058
  78.4304236  95.2832172  38.4225527  70.0235292 101.4995099  51.6516557
  70.8866754 101.1431904  51.8619881  69.4500703 101.1608994  52.3391961
  24.8321143   8.1607572  29.1824264  25.4699553   8.0414319  28.4787604
  24.7141986   9.1088416  29.2412216  22.1230633   9.2669852  35.0771994
  22.1119273   8.8722650  34.2052498  22.2851272   8.5335925  35.6705766
  18.8437894  12.0506964  34.0251178  18.5527760  12.9552595  33.9097845
  19.4794878  12.0923491  34.7395248  19.7694101   9.4283812  30.6152538
  20.3657673   9.2039835  29.9009501  19.8269072   8.6868558  31.2177986
  29.7870839   5.8234259  27.1610451  30.5196011   5.2533476  27.3948280
  29.0310195   5.4355860  27.6016956  27.3096259  -0.4644167  31.6205059
  26.9779584   0.4051244  31.3966274  26.7141873  -0.7807883  32.2999090
  23.8027779  11.7368379  31.0200972  23.5028502  12.6393418  30.9116779
  23.4578838  11.4700562  31.8722125  18.7848559  18.5012700  23.9871940
  18.7072588  19.4520525  24.0660420  18.1810202  18.1558572  24.6446866
  21.2765788   5.6740565  36.6433307  20.4999122   6.2334485  36.6336171
  21.9156351   6.1597348  37.1648177  29.0686569   2.4567358  30.4776283
  28.4260949   2.7499891  29.8316078  28.5641497   2.3420278  31.2829480
  19.5312161   8.4826018  36.2051274  20.2726845   9.0211062  35.9286097
  18.8249146   9.1092307  36.3622825  25.0067500  10.6255159  34.8023435
  25.4150856  10.1837569  34.0578067  24.2844762  10.0507786  35.0557628
  21.3598570   5.5627766  32.1756992  22.2059766   5.9867179  32.3191641
  21.2997208   4.9061390  32.8695555  25.3296315  11.1856349  28.5575724
  24.7005177  11.3502064  27.8551792  24.9421977  11.5997959  29.3286688
  29.2085547  12.1210787  25.9120088  28.5236585  12.5009689  25.3617121
  29.2929396  12.7306114  26.6452036  24.5098016   3.2232134  33.8338166
  24.2658948   3.9774195  33.2972441  24.7857946   3.6017482  34.6685413
  26.4636478   9.7670746  32.5115431  26.6753374  10.4102506  31.8349812
  26.4166227   8.9333063  32.0437361  17.7748358  10.4702239  28.7605572
  18.3449715  10.8989507  28.1223057  18.3656470  10.1884824  29.4589758
  18.2673524   5.6365667  37.0066584  17.6372185   6.3181947  37.2401980
  18.1609612   5.5248748  36.0619722  27.5782306  12.6442702  30.6837789
  28.3999750  12.2422889  30.4020470  27.5744709  12.5410936  31.6353904
  21.3438910  12.1926745  32.8398499  21.4083342  12.6547152  33.6756671
  20.6349834  11.5624110  32.9680809  35.6688299   8.9881450  27.0322760
  34.9152008   8.4188848  26.8766765  35.8035841   8.9544115  27.9793395
  15.6063566   6.5400679  35.2390321  15.4917081   5.6385936  35.5397420
  14.7508084   6.7864376  34.8875137  22.6855404  14.4818419  36.8377822
  22.2419258  13.6954798  36.5198726  23.3472617  14.6697570  36.1721712
  17.4442525  16.0114221  31.3638500  17.9949950  15.8831284  30.5915494
  16.6054001  16.3109110  31.0133393  24.7836642  14.7621219  34.8659223
  24.7655117  15.5830100  34.3739492  25.7056562  14.6375294  35.0909364
  21.2409696  12.2765348  35.7082731  21.7738033  11.5153637  35.4782039
  20.7123777  11.9839000  36.4506886  27.5855255   9.6000361  28.3368590
  26.9278929  10.2899623  28.4248718  28.3895654   9.9896793  28.6802576
  27.1622510  12.9350736  24.5151674  26.7084837  12.0941645  24.5716864
  26.5316477  13.5712134  24.8526454  25.6055449  14.7727232  25.4501492
  25.8978423  15.3332289  24.7313858  26.1154070  15.0655793  26.2054651
  20.5689074  15.5507583  26.5394945  20.5265253  15.7768430  25.6103477
  21.4851773  15.3170958  26.6880746  24.0154708   6.0191651  33.4375574
  24.3704096   6.2463124  34.2970040  24.6626839   6.3510028  32.8152830
  29.7721825  11.2086614  29.1536175  30.2058331  11.1161903  30.0019229
  30.4853405  11.1844114  28.5156191  23.5049719  14.8088708  30.6869276
  23.5586742  15.3779644  31.4546991  22.6364501  14.9790593  30.3223313
  30.6337374  11.2510314  31.6869060  30.8273264  12.1556125  31.9328335
  30.5337992  10.7917734  32.5207645  22.2873685   1.1368205  34.1859388
  21.6401600   1.8358155  34.0923864  23.0574700   1.5704349  34.5535636
  25.6952483  11.4017057  37.2609941  25.5437989  11.1727609  36.3440025
  25.6857162  12.3587659  37.2741286  22.4637819   8.9748970  32.2456207
  23.3929879   9.1260130  32.0725175  22.0428849   9.0632991  31.3904854
  21.2626151  12.9999634  30.0154745  21.1237237  12.6318419  30.8880683
  20.4740747  13.5147274  29.8438703  22.8131366  12.3781237  27.4043583
  22.4781199  12.3382007  28.3001233  22.3135312  11.7125953  26.9313993
  16.7875610   7.7848867  32.9296164  16.6495408   7.0529106  33.5307703
  17.6980534   7.6957767  32.6480352  19.4157911   7.4968826  32.4179844
  20.1257529   6.8562019  32.3766462  19.3727219   7.7481721  33.3406024
  27.4044689  14.4336180  35.3386423  27.3457236  13.7495400  34.6717006
  27.8064208  15.1755170  34.8867049  18.1286845   4.4834044  34.2375483
  17.5924202   4.0324783  34.8897079  17.5403553   4.6179953  33.4945947
  16.4235388  21.2498094  28.1320142  16.6631986  21.8816618  28.8099160
  15.5804585  20.8986134  28.4185501  27.4062097  12.3975764  33.5700403
  26.5188875  12.0601685  33.6926801  27.9760648  11.6658795  33.8069168
  20.9363250  17.0577216  30.5361646  20.8633422  17.8632188  31.0480950
  20.4940643  17.2569182  29.7109667  20.7253030  16.2948986  24.0464467
  19.9420552  16.8370666  24.1402692  21.4245775  16.8122966  24.4458708
  31.8879437   7.8083981  28.3316964  31.8769314   8.6908697  27.9610897
  31.0196817   7.4555532  28.1371501  23.3961934  16.9564050  32.6919804
  24.1089906  17.5911515  32.6195706  22.9051962  17.0527916  31.8759806
  18.4473847  14.7058494  33.5125375  19.1483307  15.3394977  33.6654769
  17.9768962  15.0473225  32.7521014  26.2475133   7.2603101  31.3377926
  25.5946583   7.5079008  30.6830378  26.6255513   6.4467239  31.0040403
  23.2082307  17.2962794  25.4406096  23.3904702  16.4784450  25.9033848
  24.0315293  17.5130486  25.0030986  22.2962706   8.0022912  37.8243963
  21.6203343   7.9017041  38.4946338  23.1190340   7.8462126  38.2879960
  14.0441565  14.2394849  30.4456478  14.6295002  13.4938537  30.5784382
  13.8466404  14.5498805  31.3293142  16.8980220  17.2746096  25.4618920
  16.2290596  17.7592224  24.9782960  16.7593090  17.5215316  26.3762299
  21.0385489  19.3089840  32.0601579  21.5903797  19.4721461  32.8250664
  21.3791683  19.8994277  31.3881603  25.8896363  14.1351097  37.9150233
  26.4336267  14.7481055  37.4205188  25.3083208  14.6930675  38.4317246
  24.1753876  17.2571815  29.0465261  24.0505016  16.4561555  28.5376206
  24.8332967  17.7518008  28.5579231  26.2388785  15.0580835  30.6744811
  25.2919120  14.9386186  30.6023138  26.5871558  14.1703333  30.7571072
  23.2435218  14.8533551  26.8749163  23.0960180  13.9250259  27.0556733
  24.0688712  14.8753642  26.3906238  26.8469340  15.6762110  27.9614036
  27.7715887  15.4704971  27.8238487  26.6784643  15.4278511  28.8703377
  26.6364656  16.1947778  23.3176127  26.8101534  15.6294200  22.5649980
  27.1293547  16.9948672  23.1355617  32.4904047   8.9584200  24.9366427
  32.9335193   8.2091526  24.5385550  31.6130558   8.9494337  24.5540159
  21.1851300  16.8748321  34.0750233  21.4938427  16.6297468  34.9472933
  21.9826782  17.0794960  33.5869103  21.2071912  19.0286231  26.3055610
  20.7676903  18.5362609  26.9988466  21.9580029  18.4859198  26.0647685
  18.6545785  14.5724240  28.3777911  18.0325794  13.9094945  28.0780139
  19.3250651  14.5985372  27.6951559  29.2125158  13.5947151  37.2511554
  28.4220701  13.5771290  36.7116054  28.9758512  14.1335445  38.0060591
  29.3323033  10.4439617  34.5644283  29.3821038  10.2789625  35.5059806
  29.2236956   9.5766876  34.1742164  26.6226795   6.4270545  35.8803590
  27.5236658   6.2877010  35.5887587  26.6974770   6.5925000  36.8201767
  20.9569600   3.8037400  34.7256776  20.0872910   4.0970966  34.4539364
  21.1929081   4.3877845  35.4464040  30.8341230  12.8636559  34.8086304
  30.5426038  13.2266540  35.6449765  30.2213361  12.1503567  34.6299636
  32.0336912  10.4289439  27.3288875  32.8683803  10.8679243  27.4926435
  32.1696041   9.9528092  26.5097120  29.0828418   7.9869174  33.2766362
  29.5582539   8.1796820  32.4685214  28.1593983   8.0428359  33.0309746
  23.6608634   0.0217017  32.2422196  24.1790578   0.7578044  31.9168685
  23.3063767   0.3281010  33.0768955  27.7830087   4.8634934  31.5094668
  28.7347510   4.9633031  31.5306892  27.6133537   4.0713202  32.0192752
  25.8044466   1.9490517  31.6954069  25.2094398   2.2295530  31.0000558
  25.5194163   2.4384418  32.4670810  30.2618165   8.0841053  30.6236968
  30.2294485   7.1457054  30.8096651  30.8718788   8.1625090  29.8902793
  30.4112653   4.8752097  30.6695251  29.8951702   4.0910553  30.4825180
  31.2952602   4.5470813  30.8341770  36.0794714   9.1457060  29.7643004
  36.8098103   8.8842348  30.3250708  35.4701660   8.4085782  29.8045072
  34.1610012   7.2864923  30.3617456  33.4343175   7.1520888  29.7533947
  33.7457298   7.5941751  31.1674174  21.9840188  11.0054852  38.1264829
  22.9043197  11.1833451  38.3204875  21.9489771  10.0610898  37.9744528
  14.9802261   8.9155887  30.7687610  15.1988270   9.8472995  30.7875644
  15.3928034   8.5563862  31.5542414  19.8530126   4.4889093  40.1590359
  19.7526853   5.4383450  40.0902450  19.6351668   4.1607332  39.2866429
  19.7161396   7.9186232  38.9755420  19.2328478   8.7186592  39.1819309
  19.8022335   7.9294177  38.0222864  15.6434733  11.8090766  31.0123854
  16.5977987  11.7774709  30.9453786  15.4447257  11.3481390  31.8274080
  16.2334116  10.3791882  33.5794652  17.0527005  10.8735961  33.6029489
  16.5070923   9.4623851  33.5512219  31.7787807   3.5076775  27.7150887
  32.3732297   3.2672511  27.0044195  31.8514390   2.7883906  28.3424424
  13.9984962  17.3510386  28.0294052  13.8639430  16.5910787  27.4632050
  13.5817024  18.0751286  27.5622841  34.0858879   6.8142976  26.4894308
  33.5258437   6.8836165  27.2625870  33.4802383   6.6383960  25.7693805
  17.1554088  18.2479703  28.2412495  17.0386472  19.1925135  28.1391185
  16.3346534  17.9453265  28.6298294  24.0122422  11.7810864  39.7778989
  24.8813582  11.9551516  39.4165624  23.5329173  12.6005281  39.6554719
  18.1808602  18.9007965  31.4568423  19.0835849  18.9331575  31.7734918
  17.9545972  17.9708416  31.4714759  19.9362204  17.6538951  28.1178502
  18.9857835  17.6540813  28.0042874  20.2394690  16.9071686  27.6014536
  35.6714898  23.4899490  29.1824264  36.3093308  23.3706237  28.4787604
  35.5535741  24.4380334  29.2412216  32.4804604  23.4426918  29.1185789
  32.1423116  23.3267983  28.2306324  33.3494372  23.0418083  29.0986795
  28.3391420  25.2962394  25.1082680  27.7756285  25.2052331  24.3398968
  28.2243815  24.4762299  25.5885172  32.9624387  24.5961770  35.0771994
  32.9513028  24.2014568  34.2052498  33.1245026  23.8627842  35.6705766
  25.8855852  26.7913586  27.9466900  26.6777144  26.4504411  27.5313200
  26.1252502  26.9008561  28.8669054  33.9190978  28.9633362  20.4197145
  33.2678958  29.5487442  20.0331159  34.7135341  29.4939557  20.4792182
  27.8446606  26.0522499  20.8184279  28.6177482  25.5051486  20.6797155
  28.1972004  26.9166748  21.0298740  29.6831648  27.3798881  34.0251178
  29.3921514  28.2844512  33.9097845  30.3188633  27.4215409  34.7395248
  30.6087855  24.7575730  30.6152538  31.2051427  24.5331752  29.9009501
  30.6662827  24.0160475  31.2177986  30.1812883  22.2115165  18.4502729
  30.4338404  21.6896687  17.6886192  29.2437442  22.0481311  18.5529413
  35.2256166  21.2150944  26.2577472  36.0119255  20.7970367  25.9067889
  35.4894871  22.1197036  26.4259121  35.3966244  26.6523794  20.9566129
  34.7612077  26.7258420  21.6687034  35.0663650  27.2417393  20.2785208
  40.6264593  21.1526177  27.1610451  41.3589765  20.5825394  27.3948280
  39.8703949  20.7647777  27.6016956  29.9009172  24.1143271  20.6527104
  29.7845430  23.4388175  21.3208188  30.0111432  23.6275645  19.8359257
  32.2440713  23.5753418  24.3573793  31.8798920  23.0484039  25.0686715
  33.1007829  23.1851887  24.1840279  38.1490014  14.8647751  31.6205059
  37.8173338  15.7343162  31.3966274  37.5535627  14.5484035  32.2999090
  31.8846200  18.6043318  19.3535142  32.0520602  19.4723554  19.7205613
  31.6943369  18.7670600  18.4296431  34.6421533  27.0660297  31.0200972
  34.3422256  27.9685336  30.9116779  34.2972593  26.7992480  31.8722125
  28.0934015  23.5174094  27.0537676  27.1684511  23.3850308  27.2615368
  28.3418428  24.2968313  27.5507619  38.0418677  19.5842837  28.6998409
  37.1335554  19.5158246  28.4057170  37.9906273  20.0614782  29.5280235
  31.8635421  21.0600976  20.3381809  31.7435046  21.5058026  21.1767289
  31.1688009  21.4086293  19.7795347  25.4542826  23.1607367  27.8881466
  25.5835207  23.4141846  28.8020877  24.7740277  23.7535075  27.5686121
  29.6242313  33.8304617  23.9871940  29.5466343  34.7812442  24.0660420
  29.0203957  33.4850490  24.6446866  32.1159543  21.0032483  36.6433307
  31.3392877  21.5626403  36.6336171  32.7550106  21.4889266  37.1648177
  39.9080323  17.7859276  30.4776283  39.2654704  18.0791809  29.8316078
  39.4035252  17.6712196  31.2829480  37.5620487  21.5322449  21.1662143
  38.4738343  21.7649835  20.9909840  37.0530134  22.1159493  20.6037221
  30.3705915  23.8117936  36.2051274  31.1120599  24.3502980  35.9286097
  29.6642901  24.4384225  36.3622825  35.8461255  25.9547077  34.8023435
  36.2544611  25.5129487  34.0578067  35.1238516  25.3799704  35.0557628
  32.1992325  20.8919683  32.1756992  33.0453520  21.3159097  32.3191641
  32.1390962  20.2353308  32.8695555  36.1690069  26.5148267  28.5575724
  35.5398932  26.6793981  27.8551792  35.7815731  26.9289877  29.3286688
  40.0479301  27.4502705  25.9120088  39.3630339  27.8301606  25.3617121
  40.1323151  28.0598032  26.6452036  35.3491770  18.5524052  33.8338166
  35.1052702  19.3066112  33.2972441  35.6251701  18.9309399  34.6685413
  37.3030233  25.0962664  32.5115431  37.5147128  25.7394424  31.8349812
  37.2559981  24.2624981  32.0437361  34.9056462  17.7080485  29.4152003
  34.0440941  18.0061738  29.7068741  34.9318897  17.9250884  28.4833036
  31.7218031  26.2522675  25.8225809  32.1856377  26.5310378  25.0330432
  31.4574829  25.3506120  25.6398900  28.6142112  25.7994157  28.7605572
  29.1843469  26.2281425  28.1223057  29.2050224  25.5176741  29.4589758
  30.6586917  22.3745828  22.6315374  31.3610961  22.8266871  23.0989301
  30.3267546  21.7329646  23.2595267  29.1067279  20.9657584  37.0066584
  28.4765939  21.6473865  37.2401980  29.0003367  20.8540666  36.0619722
  24.4012251  20.6329380  27.9332508  23.6111305  20.8886909  27.4572618
  24.8923499  21.4477718  28.0384548  38.4176061  27.9734619  30.6837789
  39.2393505  27.5714807  30.4020470  38.4138464  27.8702854  31.6353904
  26.3526997  20.9973960  24.8915985  25.5558160  21.1092654  25.4099480
  26.1252589  21.3360612  24.0256875  32.1832664  27.5218663  32.8398499
  32.2477097  27.9839070  33.6756671  31.4743588  26.8916028  32.9680809
  22.6849954  20.8859871  30.3647499  22.9357993  21.7706881  30.6305075
  23.2209503  20.7064472  29.5922590  46.5082054  24.3173368  27.0322760
  45.7545762  23.7480766  26.8766765  46.6429595  24.2836032  27.9793395
  31.8980682  29.1886770  22.7077479  31.7626357  30.0338306  23.1362327
  32.4390494  29.3906048  21.9443413  28.3848022  15.2678350  39.3691835
  27.9914967  14.7144549  40.0439479  29.2014162  15.5788929  39.7598352
  25.3510079  26.7062208  23.2805405  25.8634600  27.5005459  23.4310969
  26.0032792  26.0088499  23.2139006  27.1604964  29.8227965  25.3628158
  27.3371592  30.7445929  25.1749142  27.9561798  29.5086384  25.7922538
  31.3015983  16.6836229  36.9612091  32.0425696  17.2843382  36.8816554
  31.5333905  15.9413867  36.4030134  26.4457321  21.8692596  35.2390321
  26.3310836  20.9677854  35.5397420  25.5901838  22.1156293  34.8875137
  33.5249158  29.8110337  36.8377822  33.0813013  29.0246715  36.5198726
  34.1866372  29.9989487  36.1721712  28.2836280  31.3406138  31.3638500
  28.8343705  31.2123202  30.5915494  27.4447755  31.6401027  31.0133393
  35.6230396  30.0913137  34.8659223  35.6048872  30.9122018  34.3739492
  36.5450316  29.9667212  35.0909364  32.0803451  27.6057266  35.7082731
  32.6131787  26.8445554  35.4782039  31.5517532  27.3130918  36.4506886
  35.2473146  12.7117332  31.2376373  34.9037415  13.6018974  31.1615484
  35.6152108  12.5218990  30.3745958  23.3158996  25.0350863  24.0564975
  24.1534218  25.4447871  23.8398683  23.4937264  24.0950305  24.0265169
  35.2123428  22.7025943  19.7448808  34.6970052  23.4730548  19.9837195
  34.9400737  22.0291079  20.3681869  32.7970539  17.5475644  24.8034046
  31.9412136  17.1582494  24.6239685  33.2097491  17.6267605  23.9433832
  34.3269686  15.0821987  29.2025606  33.8234481  15.0452122  28.3893411
  34.6200293  15.9914730  29.2622263  30.5712572  15.1660717  28.2091788
  31.4365569  14.9703526  27.8497677  30.6390081  14.9371069  29.1361145
  40.1857702  25.4558298  21.6801982  39.4087145  25.1169457  21.2357144
  40.8649183  25.4610921  21.0056947  35.0009731  20.5753035  21.5708589
  34.6959867  20.8899185  22.4218732  35.9540174  20.6534455  21.6135922
  33.4456163  26.7343259  23.2201543  32.9177525  25.9996018  22.9074781
  32.9443666  27.5117935  22.9741512  38.4249009  24.9292279  28.3368590
  37.7672684  25.6191541  28.4248718  39.2289408  25.3188711  28.6802576
  28.1774891  17.3962925  25.5808155  28.7518643  17.1738106  24.8481348
  28.7645873  17.4651619  26.3336756  37.2354468  23.2836652  26.3872531
  37.7486350  23.9166644  26.8894241  37.8855692  22.6837847  26.0215891
  30.4797559  14.2704174  24.3083224  29.8261971  13.9553191  23.6839839
  30.4378033  13.6479914  25.0343047  31.5908763  24.5523469  16.2236516
  30.6835825  24.3212722  16.4227665  32.0879795  23.7561088  16.4110498
  34.4976842  33.2620976  19.1433202  33.8238541  33.5652673  19.7518160
  34.8842664  34.0650056  18.7938659  33.7135299  20.7586107  28.6330872
  32.7957860  20.9801054  28.4752560  34.1295443  20.8332418  27.7742579
  34.4970347  22.1577523  23.7633552  35.2442166  22.6698920  23.4540674
  34.7661936  21.8361576  24.6237946  32.7696997  24.6536064  20.7460506
  31.8608216  24.3695097  20.8432976  32.7992081  25.0735142  19.8863813
  38.0016264  28.2642653  24.5151674  37.5478591  27.4233563  24.5716864
  37.3710231  28.9004052  24.8526454  36.9449184  19.1934639  25.7452341
  36.2071941  18.6812026  26.0762584  37.1975957  18.7535021  24.9335618
  36.4449204  30.1019150  25.4501492  36.7372178  30.6624207  24.7313858
  36.9547824  30.3947711  26.2054651  37.0460811  11.9710891  26.3394111
  37.3519688  11.1108255  26.0520026  37.7713416  12.5628512  26.1393105
  23.3385167  22.3741578  24.7275709  23.1409567  21.7810939  24.0026775
  22.7831831  22.0693788  25.4451647  31.3181891  22.2664684  26.8470302
  31.3730501  21.3138521  26.7712778  30.5073093  22.4224123  27.3311600
  32.4673085  26.1944807  18.0848585  32.0292515  25.4780666  17.6254222
  33.2083526  26.4220922  17.5233676  29.2574251  20.8841744  24.6060681
  28.4442116  21.1835915  25.0125873  29.7533245  20.4897433  25.3235163
  31.4082829  30.8799501  26.5394945  31.3659008  31.1060347  25.6103477
  32.3245528  30.6462876  26.6880746  34.8548463  21.3483569  33.4375574
  35.2097850  21.5755042  34.2970040  35.5020594  21.6801945  32.8152830
  40.5846199  24.4702004  24.1424903  40.4464098  24.6603600  23.2146093
  40.2282418  25.2321387  24.5992955  28.7488326  18.4560100  30.2221916
  29.3887705  18.3148859  29.5244879  27.9165856  18.1694613  29.8460517
  40.6115579  26.5378531  29.1536175  41.0452086  26.4453821  30.0019229
  41.3247160  26.5136032  28.5156191  29.5248629  27.7562530  26.3356908
  30.3189228  27.2612850  26.1339483  28.8140322  27.2280393  25.9724614
  34.3443474  30.1380626  30.6869276  34.3980496  30.7071562  31.4546991
  33.4758255  30.3082511  30.3223313  25.8331393  21.9005612  22.4116661
  24.9028981  21.8390067  22.6286623  25.9288865  21.3781565  21.6153302
  25.7516942  18.4260425  24.9994902  26.0123759  19.3405758  24.8904063
  26.5734114  17.9584867  25.1491515  27.2241867  19.8398182  32.1693727
  27.8964921  19.6315544  31.5206376  26.3971654  19.6420268  31.7298959
  41.4731129  26.5802232  31.6869060  41.6667019  27.4848043  31.9328335
  41.3731747  26.1209651  32.5207645  33.1267439  16.4660123  34.1859388
  32.4795354  17.1650072  34.0923864  33.8968455  16.8996267  34.5535636
  36.5346237  26.7308975  37.2609941  36.3831744  26.5019527  36.3440025
  36.5250917  27.6879576  37.2741286  33.3031574  24.3040888  32.2456207
  34.2323634  24.4552047  32.0725175  32.8822604  24.3924908  31.3904854
  32.1019905  28.3291552  30.0154745  31.9630991  27.9610336  30.8880683
  31.3134502  28.8439191  29.8438703  32.6968057  33.4300649  21.3580282
  32.8719813  32.9588692  22.1725904  32.0100845  34.0566415  21.5861542
  33.6525121  27.7073155  27.4043583  33.3174953  27.6673925  28.3001233
  33.1529066  27.0417871  26.9313993  27.6269365  23.1140785  32.9296164
  27.4889163  22.3821024  33.5307703  28.5374288  23.0249685  32.6480352
  36.5884312  25.0529189  17.6780643  35.9713483  24.3276017  17.5813695
  36.1200801  25.8138549  17.3347717  30.2551665  22.8260744  32.4179844
  30.9651284  22.1853936  32.3766462  30.2120973  23.0773639  33.3406024
  38.2438444  29.7628097  35.3386423  38.1850990  29.0787318  34.6717006
  38.6457962  30.5047087  34.8867049  28.9680599  19.8125962  34.2375483
  28.4317956  19.3616700  34.8897079  28.3797308  19.9471871  33.4945947
  27.2629143  36.5790011  28.1320142  27.5025741  37.2108535  28.8099160
  26.4198339  36.2278051  28.4185501  38.2455851  27.7267681  33.5700403
  37.3582630  27.3893603  33.6926801  38.8154402  26.9950713  33.8069168
  19.8984998  24.0591773  26.8943454  20.5856038  23.7453503  26.3064469
  19.7433127  24.9633138  26.6210705  24.7019720  18.9481970  31.3228478
  24.6177909  18.3407639  30.5878888  23.8802427  19.4390988  31.3237974
  31.7757005  32.3869134  30.5361646  31.7027176  33.1924105  31.0480950
  31.3334398  32.5861100  29.7109667  31.5646784  31.6240904  24.0464467
  30.7814306  32.1662584  24.1402692  32.2639529  32.1414883  24.4458708
  34.8743434  17.4335533  26.6898673  35.3712134  16.6805496  26.3699743
  34.1030416  17.4699850  26.1241882  42.7273192  23.1375899  28.3316964
  42.7163068  24.0200614  27.9610897  41.8590571  22.7847450  28.1371501
  34.2355688  32.2855968  32.6919804  34.9483660  32.9203433  32.6195706
  33.7445717  32.3819834  31.8759806  35.9573215  26.1907220  24.2637096
  35.0229494  26.3108683  24.0941800  36.1349884  25.2879687  23.9997106
  31.4578403  19.5752916  26.4170357  31.0876191  19.0223957  27.1051263
  31.9537496  18.9711050  25.8645357  39.3445766  22.0324540  24.7987130
  39.8106219  22.8652531  24.7247433  39.7953267  21.5669521  25.5032389
  29.2867602  30.0350411  33.5125375  29.9877061  30.6686894  33.6654769
  28.8162717  30.3765143  32.7521014  37.4121998  28.3768361  21.7973282
  37.6881841  28.2624956  22.7067156  36.5426496  27.9785846  21.7585455
  37.3162429  14.4005127  28.8378032  36.4025509  14.6309354  29.0060238
  37.7455531  14.4843571  29.6892064  37.0868888  22.5895019  31.3377926
  36.4340338  22.8370926  30.6830378  37.4649268  21.7759157  31.0040403
  34.0476062  32.6254712  25.4406096  34.2298456  31.8076368  25.9033848
  34.8709048  32.8422404  25.0030986  34.3818227  31.5522897  22.7021144
  34.9105993  31.0415352  22.0891306  34.6446447  31.2365427  23.5666677
  33.1356461  23.3314830  37.8243963  32.4597098  23.2308959  38.4946338
  33.9584095  23.1754043  38.2879960  24.8835320  29.5686766  30.4456478
  25.4688757  28.8230454  30.5784382  24.6860158  29.8790723  31.3293142
  27.7373975  32.6038014  25.4618920  27.0684350  33.0884141  24.9782960
  27.5986845  32.8507234  26.3762299  19.4752974  22.1392366  29.1660921
  19.5137074  21.6055957  29.9598039  18.9693267  21.6127572  28.5471898
  31.8779244  34.6381757  32.0601579  32.4297552  34.8013379  32.8250664
  32.2185437  35.2286195  31.3881603  26.8543737  16.9856907  32.6623463
  26.9185063  17.8471738  32.2500861  26.7910857  16.3730909  31.9295822
  26.3296009  19.0580040  36.3096498  26.9568048  18.6757117  36.9234022
  25.4723928  18.8394241  36.6752190  36.7290118  29.4643015  37.9150233
  37.2730022  30.0772973  37.4205188  36.1476963  30.0222593  38.4317246
  23.1061552  20.8656469  22.2414852  23.4014993  19.9567147  22.1881906
  22.2049588  20.8444208  21.9195855  35.0147631  32.5863733  29.0465261
  34.8898770  31.7853473  28.5376206  35.6726722  33.0809926  28.5579231
  26.6355799  18.9412465  28.2242401  25.9142385  19.5548433  28.0849874
  27.4249055  19.4770230  28.1459047  37.0782539  30.3872753  30.6744811
  36.1312875  30.2678104  30.6023138  37.4265312  29.4995251  30.7571072
  29.4382113  16.2766892  34.4983053  29.9616514  16.5229188  35.2609362
  29.2194446  17.1086927  34.0786190  24.8349394  18.5470566  22.3654178
  24.5062100  17.6667945  22.1829284  25.1888764  18.4918235  23.2530567
  34.0828973  30.1825469  26.8749163  33.9353935  29.2542176  27.0556733
  34.9082466  30.2045560  26.3906238  27.9491217  18.8343536  22.7329655
  28.2887289  19.3629457  22.0108264  28.3963337  19.1723942  23.5088222
  37.6863094  31.0054028  27.9614036  38.6109642  30.7996889  27.8238487
  37.5178398  30.7570429  28.8703377  30.6434658  17.2180587  32.1832723
  30.3031478  16.4188400  32.5853403  29.9373664  17.5182298  31.6109557
  31.2951129  14.3029899  30.6360046  32.1177199  13.8290377  30.5138937
  31.5389193  15.0820383  31.1358733  29.9359364  17.3318158  20.9322948
  30.6567726  17.7099410  20.4286665  29.3124668  18.0507034  21.0357926
  34.0790487  18.0363307  21.8681280  34.2954101  18.9187945  21.5670109
  33.5984554  17.6449520  21.1386922  28.8189708  20.9949020  28.4452025
  28.6734289  21.3089323  29.3376306  28.3414912  21.6133920  27.8922924
  30.6786091  17.9851568  28.4932915  30.6647660  17.0892661  28.1565212
  31.3958519  17.9922232  29.1271201  32.5312222  18.4188908  30.5386042
  32.2730000  19.3405979  30.5370372  31.9997262  18.0219343  31.2286506
  37.4758411  31.5239695  23.3176127  37.6495288  30.9586118  22.5649980
  37.9687302  32.3240590  23.1355617  23.2935370  23.5354364  31.3839686
  22.7488838  24.3114172  31.5159960  24.1714720  23.8825169  31.2258808
  30.0822987  16.8665948  23.7620485  30.2038898  15.9382594  23.9611372
  29.7925029  16.8804634  22.8498800  32.9514177  14.5520859  26.8987204
  32.9735874  14.6160192  25.9439184  33.3682236  13.7125367  27.0927711
  43.3297802  24.2876118  24.9366427  43.7728948  23.5383443  24.5385550
  42.4524312  24.2786254  24.5540159  38.4633583  30.8406460  20.4173026
  39.1584488  31.4613152  20.6360340  38.8056733  29.9901811  20.6925403
  24.0801392  22.6624261  34.2769843  23.3383128  22.8106896  34.8634473
  23.7594136  22.9232526  33.4136592  40.3625006  28.2906165  21.9460356
  40.8876330  28.6293438  21.2209676  40.2747359  27.3553180  21.7623491
  32.0245055  32.2040239  34.0750233  32.3332181  31.9589386  34.9472933
  32.8220537  32.4086877  33.5869103  32.0465667  34.3578148  26.3055610
  31.6070657  33.8654527  26.9988466  32.7973784  33.8151116  26.0647685
  24.5258006  30.5489689  26.3080238  25.3516026  30.2493461  25.9278881
  24.1752058  29.7797312  26.7570026  29.4939539  29.9016157  28.3777911
  28.8719548  29.2386863  28.0780139  30.1644406  29.9277289  27.6951559
  22.7266611  28.4676016  27.2669171  21.8898519  28.0398190  27.0853172
  22.6990256  28.6608459  28.2039962  29.5664067  18.3797946  37.9710417
  29.6152222  19.2560068  37.5888187  30.1086581  17.8375339  37.3982060
  40.0518912  28.9239069  37.2511554  39.2614456  28.9063208  36.7116054
  39.8152267  29.4627362  38.0060591  40.1716787  25.7731535  34.5644283
  40.2214792  25.6081543  35.5059806  40.0630711  24.9058794  34.1742164
  29.0553046  28.4520081  21.8536372  29.2041166  29.1355545  21.2003045
  29.8619489  28.4325171  22.3685828  37.4620550  21.7562463  35.8803590
  38.3630412  21.6168928  35.5887587  37.5368524  21.9216918  36.8201767
  31.7963355  19.1329318  34.7256776  30.9266664  19.4262884  34.4539364
  32.0322835  19.7169763  35.4464040  41.6734984  28.1928477  34.8086304
  41.3819792  28.5558457  35.6449765  41.0607115  27.4795485  34.6299636
  42.8730666  25.7581356  27.3288875  43.7077558  26.1971161  27.4926435
  43.0089795  25.2820010  26.5097120  39.9222172  23.3161091  33.2766362
  40.3976294  23.5088738  32.4685214  38.9987738  23.3720277  33.0309746
  26.8105679  24.4785258  22.8597441  26.5651721  23.5747588  23.0577651
  26.9801593  24.4802409  21.9176919  34.5002389  15.3508935  32.2422196
  35.0184333  16.0869962  31.9168685  34.1457522  15.6572928  33.0768955
  34.7514983  11.7709217  27.7623093  35.0316737  11.1032406  28.3883519
  35.5365590  11.9638313  27.2497757  32.5548451  30.9468211  19.3248119
  31.9822419  31.5658398  18.8718591  33.1281245  31.4967573  19.8588041
  38.6223841  20.1926851  31.5094668  39.5741264  20.2924949  31.5306892
  38.4527292  19.4005120  32.0192752  36.6438221  17.2782435  31.6954069
  36.0488153  17.5587447  31.0000558  36.3587918  17.7676336  32.4670810
  35.7745711  31.2305361  20.4556701  36.7076384  31.1650923  20.6589577
  35.6868924  32.0661628  19.9971234  38.4033728  30.5471232  17.4160649
  38.3247359  30.2131095  18.3096407  39.2243395  31.0393000  17.4152121
  41.1011919  23.4132971  30.6236968  41.0688239  22.4748972  30.8096651
  41.7112543  23.4917008  29.8902793  32.9395250  22.2829024  16.6664172
  33.8854355  22.1535232  16.7352590  32.5609495  21.5443686  17.1433600
  41.2506408  20.2044014  30.6695251  40.7345456  19.4202471  30.4825180
  42.1346356  19.8762731  30.8341770  38.9117135  13.9485030  26.6291064
  38.7141956  13.6400118  27.5134395  39.5216840  14.6746669  26.7588993
  46.9188469  24.4748978  29.7643004  47.6491857  24.2134266  30.3250708
  46.3095414  23.7377700  29.8045072  45.0003766  22.6156840  30.3617456
  44.2736930  22.4812805  29.7533947  44.5851053  22.9233669  31.1674174
  32.8233943  26.3346770  38.1264829  33.7436952  26.5125369  38.3204875
  32.7883526  25.3902816  37.9744528  22.0416108  21.5285364  27.0518103
  21.7218892  20.6750672  26.7592477  21.4949536  21.7433942  27.8076071
  25.8196015  24.2447805  30.7687610  26.0382025  25.1764913  30.7875644
  26.2321789  23.8855779  31.5542414  32.7400233  14.7515890  22.7563298
  31.9300961  14.4062975  23.1318544  33.4284650  14.4423434  23.3450910
  34.6690781  13.8293937  24.3787595  35.2221820  14.2489390  25.0377618
  34.9060868  12.9029685  24.4210551  30.6923880  19.8181011  40.1590359
  30.5920607  20.7675368  40.0902450  30.4745422  19.4899249  39.2866429
  21.9104368  25.1488275  29.0211225  21.2167839  24.7342228  28.5081179
  22.6577359  25.1908812  28.4244644  38.0469588  15.9394462  23.8866259
  37.4668257  16.5979266  23.5044312  37.7805521  15.1171807  23.4753677
  36.4973155  15.3399520  26.0887579  36.9972933  15.4516054  25.2801898
  37.1408763  15.0360573  26.7288388  30.5555150  23.2478149  38.9755420
  30.0722232  24.0478510  39.1819309  30.6416089  23.2586094  38.0222864
  23.8241110  25.0806529  26.8977240  23.8011798  25.1794216  25.9459123
  24.1341747  25.9271680  27.2194406  26.4828488  27.1382684  31.0123854
  27.4371741  27.1066626  30.9453786  26.2841012  26.6773308  31.8274080
  27.0727870  25.7083800  33.5794652  27.8920759  26.2027879  33.6029489
  27.3464678  24.7915768  33.5512219  36.8294466  18.0994552  22.9422607
  35.9420321  18.3844203  22.7242802  37.2448455  17.9388316  22.0949884
  40.1809002  18.1241073  26.6576947  40.9569393  18.6137526  26.9301563
  39.4557137  18.5499128  27.1148816  42.6181561  18.8368693  27.7150887
  43.2126052  18.5964429  27.0044195  42.6908145  18.1175823  28.3424424
  24.8378717  32.6802304  28.0294052  24.7033185  31.9202705  27.4632050
  24.4210779  33.4043203  27.5622841  35.9737680  27.8639227  17.0370627
  36.6773530  28.0689230  17.6528283  35.2500328  28.4315989  17.3019711
  36.8035490  23.6149088  23.1572898  36.7470691  24.0717640  22.3180530
  37.3563832  22.8539773  22.9795740  40.6140296  19.4038820  23.9823017
  40.3577230  19.0035456  24.8131225  39.9893164  20.1182614  23.8573156
  44.9252634  22.1434894  26.4894308  44.3652192  22.2128083  27.2625870
  44.3196137  21.9675878  25.7693805  27.9947843  33.5771621  28.2412495
  27.8780227  34.5217053  28.1391185  27.1740289  33.2745182  28.6298294
  37.8824377  28.3021756  19.0869087  38.7169981  27.8702955  18.9046562
  37.7208720  28.1303770  20.0145982  37.5370269  24.8053870  20.4525427
  37.4819073  24.6398141  19.5113871  36.9116325  25.5129903  20.6087616
  22.3262784  20.0421934  34.2786849  22.9721648  19.5320888  34.7674074
  22.1179935  20.7790616  34.8530274  34.8516176  27.1102782  39.7778989
  35.7207336  27.2843434  39.4165624  34.3722928  27.9297198  39.6554719
  29.0202357  34.2299883  31.4568423  29.9229603  34.2623493  31.7734918
  28.7939727  33.3000333  31.4714759  30.7755959  32.9830869  28.1178502
  29.8251590  32.9832731  28.0042874  31.0788445  32.2363604  27.6014536
  34.6618514  10.9004755  24.2856682  33.8950910  10.3463242  24.4313364
  35.0729219  10.9726624  25.1470834  26.6660275  17.1889551  38.3761863
  27.5291737  16.8326356  38.5865188  26.0925686  16.8503446  39.0637267
  39.1785174  40.6254312  25.1082680  38.6150039  40.5344249  24.3398968
  39.0637569  39.8054216  25.5885172  36.7249606  42.1205504  27.9466900
  37.5170898  41.7796328  27.5313200  36.9646256  42.2300479  28.8669054
  44.7584733  44.2925280  20.4197145  44.1072713  44.8779360  20.0331159
  45.5529096  44.8231475  20.4792182  38.6840360  41.3814417  20.8184279
  39.4571236  40.8343404  20.6797155  39.0365759  42.2458666  21.0298740
  41.4481609  40.0867648  30.6152538  42.0445182  39.8623670  29.9009501
  41.5056581  39.3452393  31.2177986  41.0206638  37.5407083  18.4502729
  41.2732159  37.0188604  17.6886192  40.0831197  37.3773228  18.5529413
  46.0649921  36.5442861  26.2577472  46.8513010  36.1262284  25.9067889
  46.3288625  37.4488954  26.4259121  46.2359998  41.9815712  20.9566129
  45.6005831  42.0550338  21.6687034  45.9057404  42.5709310  20.2785208
  51.4658348  36.4818095  27.1610451  52.1983520  35.9117311  27.3948280
  50.7097704  36.0939695  27.6016956  40.7402927  39.4435189  20.6527104
  40.6239185  38.7680092  21.3208188  40.8505187  38.9567563  19.8359257
  43.0834468  38.9045336  24.3573793  42.7192675  38.3775957  25.0686715
  43.9401583  38.5143805  24.1840279  48.9883768  30.1939669  31.6205059
  48.6567093  31.0635080  31.3966274  48.3929382  29.8775953  32.2999090
  42.7239955  33.9335236  19.3535142  42.8914357  34.8015472  19.7205613
  42.5337124  34.0962517  18.4296431  38.9327769  38.8466011  27.0537676
  38.0078266  38.7142226  27.2615368  39.1812182  39.6260231  27.5507619
  48.8812432  34.9134755  28.6998409  47.9729309  34.8450163  28.4057170
  48.8300027  35.3906700  29.5280235  42.7029175  36.3892893  20.3381809
  42.5828801  36.8349944  21.1767289  42.0081764  36.7378211  19.7795347
  36.2936580  38.4899285  27.8881466  36.4228961  38.7433764  28.8020877
  35.6134032  39.0826993  27.5686121  40.4636068  49.1596535  23.9871940
  40.3860097  50.1104360  24.0660420  39.8597711  48.8142407  24.6446866
  50.7474078  33.1151193  30.4776283  50.1048458  33.4083726  29.8316078
  50.2429006  33.0004114  31.2829480  48.4014242  36.8614366  21.1662143
  49.3132098  37.0941753  20.9909840  47.8923889  37.4451411  20.6037221
  46.1885525  33.8815969  33.8338166  45.9446456  34.6358030  33.2972441
  46.4645455  34.2601317  34.6685413  45.7450216  33.0372402  29.4152003
  44.8834695  33.3353656  29.7068741  45.7712651  33.2542801  28.4833036
  42.5611786  41.5814593  25.8225809  43.0250131  41.8602296  25.0330432
  42.2968584  40.6798038  25.6398900  39.4535867  41.1286074  28.7605572
  40.0237224  41.5573343  28.1223057  40.0443979  40.8468659  29.4589758
  41.4980672  37.7037745  22.6315374  42.2004715  38.1558789  23.0989301
  41.1661300  37.0621564  23.2595267  39.9461033  36.2949502  37.0066584
  39.3159694  36.9765783  37.2401980  39.8397121  36.1832584  36.0619722
  35.2406006  35.9621298  27.9332508  34.4505060  36.2178826  27.4572618
  35.7317253  36.7769636  28.0384548  37.1920751  36.3265877  24.8915985
  36.3951914  36.4384571  25.4099480  36.9646343  36.6652529  24.0256875
  33.5243709  36.2151788  30.3647499  33.7751747  37.0998798  30.6305075
  34.0603257  36.0356390  29.5922590  42.7374436  44.5178688  22.7077479
  42.6020111  45.3630224  23.1362327  43.2784249  44.7197966  21.9443413
  39.2241776  30.5970268  39.3691835  38.8308722  30.0436466  40.0439479
  40.0407916  30.9080846  39.7598352  36.1903834  42.0354126  23.2805405
  36.7028354  42.8297376  23.4310969  36.8426547  41.3380416  23.2139006
  37.9998719  45.1519882  25.3628158  38.1765347  46.0737847  25.1749142
  38.7955552  44.8378301  25.7922538  42.1409737  32.0128147  36.9612091
  42.8819450  32.6135300  36.8816554  42.3727660  31.2705785  36.4030134
  37.2851075  37.1984514  35.2390321  37.1704590  36.2969771  35.5397420
  36.4295593  37.4448211  34.8875137  46.0866900  28.0409250  31.2376373
  45.7431169  28.9310891  31.1615484  46.4545863  27.8510907  30.3745958
  34.1552751  40.3642780  24.0564975  34.9927973  40.7739789  23.8398683
  34.3331018  39.4242222  24.0265169  46.0517183  38.0317861  19.7448808
  45.5363806  38.8022466  19.9837195  45.7794491  37.3582997  20.3681869
  43.6364294  32.8767562  24.8034046  42.7805890  32.4874412  24.6239685
  44.0491246  32.9559522  23.9433832  45.1663440  30.4113905  29.2025606
  44.6628236  30.3744040  28.3893411  45.4594047  31.3206648  29.2622263
  41.4106326  30.4952635  28.2091788  42.2759323  30.2995443  27.8497677
  41.4783835  30.2662986  29.1361145  45.8403486  35.9044953  21.5708589
  45.5353621  36.2191102  22.4218732  46.7933928  35.9826373  21.6135922
  44.2849918  42.0635176  23.2201543  43.7571279  41.3287936  22.9074781
  43.7837420  42.8409853  22.9741512  39.0168645  32.7254843  25.5808155
  39.5912397  32.5030024  24.8481348  39.6039628  32.7943537  26.3336756
  48.0748223  38.6128569  26.3872531  48.5880104  39.2458561  26.8894241
  48.7249446  38.0129765  26.0215891  39.3438232  34.7559304  19.6004040
  38.5075545  35.0933990  19.9213315  39.2043002  34.6208283  18.6631177
  41.3191313  29.5996092  24.3083224  40.6655725  29.2845109  23.6839839
  41.2771787  28.9771832  25.0343047  42.4302518  39.8815387  16.2236516
  41.5229580  39.6504640  16.4227665  42.9273550  39.0853006  16.4110498
  45.3370597  48.5912894  19.1433202  44.6632296  48.8944591  19.7518160
  45.7236419  49.3941974  18.7938659  45.3364101  37.4869441  23.7633552
  46.0835920  37.9990838  23.4540674  45.6055691  37.1653493  24.6237946
  43.6090751  39.9827981  20.7460506  42.7001971  39.6987014  20.8432976
  43.6385835  40.4027060  19.8863813  48.8410019  43.5934571  24.5151674
  48.3872346  42.7525481  24.5716864  48.2103985  44.2295969  24.8526454
  47.7842938  34.5226557  25.7452341  47.0465695  34.0103943  26.0762584
  48.0369712  34.0826939  24.9335618  47.2842958  45.4311068  25.4501492
  47.5765932  45.9916125  24.7313858  47.7941579  45.7239629  26.2054651
  47.8854566  27.3002809  26.3394111  48.1913442  26.4400172  26.0520026
  48.6107170  27.8920429  26.1393105  34.1778922  37.7033496  24.7275709
  33.9803322  37.1102856  24.0026775  33.6225586  37.3985706  25.4451647
  42.1575645  37.5956602  26.8470302  42.2124255  36.6430438  26.7712778
  41.3466847  37.7516041  27.3311600  43.3066839  41.5236725  18.0848585
  42.8686269  40.8072584  17.6254222  44.0477280  41.7512840  17.5233676
  40.0968005  36.2133662  24.6060681  39.2835871  36.5127832  25.0125873
  40.5927000  35.8189351  25.3235163  42.2476583  46.2091419  26.5394945
  42.2052762  46.4352265  25.6103477  43.1639282  45.9754793  26.6880746
  39.5882080  33.7852017  30.2221916  40.2281459  33.6440776  29.5244879
  38.7559611  33.4986531  29.8460517  40.3642384  43.0854448  26.3356908
  41.1582982  42.5904768  26.1339483  39.6534076  42.5572311  25.9724614
  36.6725147  37.2297529  22.4116661  35.7422736  37.1681985  22.6286623
  36.7682619  36.7073482  21.6153302  36.5910697  33.7552342  24.9994902
  36.8517514  34.6697676  24.8904063  37.4127869  33.2876785  25.1491515
  38.0635622  35.1690099  32.1693727  38.7358675  34.9607462  31.5206376
  37.2365408  34.9712185  31.7298959  43.9661194  31.7952040  34.1859388
  43.3189109  32.4941990  34.0923864  44.7362209  32.2288184  34.5535636
  43.5361812  48.7592566  21.3580282  43.7113568  48.2880609  22.1725904
  42.8494600  49.3858332  21.5861542  44.4918875  43.0365072  27.4043583
  44.1568708  42.9965842  28.3001233  43.9922821  42.3709788  26.9313993
  38.4663119  38.4432702  32.9296164  38.3282917  37.7112941  33.5307703
  39.3768043  38.3541603  32.6480352  47.4278067  40.3821107  17.6780643
  46.8107237  39.6567935  17.5813695  46.9594555  41.1430467  17.3347717
  39.8074354  35.1417880  34.2375483  39.2711711  34.6908618  34.8897079
  39.2191062  35.2763788  33.4945947  38.1022897  51.9081929  28.1320142
  38.3419495  52.5400453  28.8099160  37.2592094  51.5569969  28.4185501
  39.2176613  34.6006531  16.8001947  38.3406079  34.4795332  16.4364193
  39.6934366  33.8092609  16.5480835  30.7378753  39.3883691  26.8943454
  31.4249793  39.0745421  26.3064469  30.5826882  40.2925055  26.6210705
  35.5413475  34.2773887  31.3228478  35.4571664  33.6699557  30.5878888
  34.7196181  34.7682906  31.3237974  42.4040539  46.9532821  24.0464467
  41.6208061  47.4954502  24.1402692  43.1033284  47.4706801  24.4458708
  45.7137189  32.7627451  26.6898673  46.2105888  32.0097413  26.3699743
  44.9424170  32.7991768  26.1241882  46.7966970  41.5199138  24.2637096
  45.8623248  41.6400601  24.0941800  46.9743638  40.6171605  23.9997106
  42.2972158  34.9044834  26.4170357  41.9269945  34.3515874  27.1051263
  42.7931250  34.3002967  25.8645357  50.1839521  37.3616457  24.7987130
  50.6499973  38.1944449  24.7247433  50.6347021  36.8961439  25.5032389
  48.2515752  43.7060279  21.7973282  48.5275596  43.5916873  22.7067156
  47.3820251  43.3077764  21.7585455  48.1556184  29.7297044  28.8378032
  47.2419263  29.9601271  29.0060238  48.5849285  29.8135488  29.6892064
  44.8869816  47.9546630  25.4406096  45.0692211  47.1368285  25.9033848
  45.7102802  48.1714322  25.0030986  45.2211982  46.8814815  22.7021144
  45.7499748  46.3707269  22.0891306  45.4840201  46.5657345  23.5666677
  35.7229074  44.8978684  30.4456478  36.3082511  44.1522372  30.5784382
  35.5253913  45.2082641  31.3293142  38.5767729  47.9329931  25.4618920
  37.9078105  48.4176059  24.9782960  38.4380599  48.1799152  26.3762299
  30.3146729  37.4684284  29.1660921  30.3530828  36.9347875  29.9598039
  29.8087022  36.9419490  28.5471898  42.7172998  49.9673675  32.0601579
  43.2691306  50.1305296  32.8250664  43.0579191  50.5578113  31.3881603
  37.6937491  32.3148825  32.6623463  37.7578818  33.1763656  32.2500861
  37.6304611  31.7022826  31.9295822  37.1689764  34.3871957  36.3096498
  37.7961803  34.0049035  36.9234022  36.3117683  34.1686159  36.6752190
  33.9455307  36.1948386  22.2414852  34.2408748  35.2859065  22.1881906
  33.0443342  36.1736126  21.9195855  45.8541385  47.9155650  29.0465261
  45.7292525  47.1145390  28.5376206  46.5120476  48.4101844  28.5579231
  37.4749554  34.2704383  28.2242401  36.7536139  34.8840351  28.0849874
  38.2642809  34.8062148  28.1459047  40.2775867  31.6058809  34.4983053
  40.8010269  31.8521106  35.2609362  40.0588200  32.4378844  34.0786190
  35.6743148  33.8762484  22.3654178  35.3455854  32.9959863  22.1829284
  36.0282519  33.8210153  23.2530567  44.9222727  45.5117387  26.8749163
  44.7747689  44.5834094  27.0556733  45.7476220  45.5337477  26.3906238
  38.7884971  34.1635454  22.7329655  39.1281044  34.6921375  22.0108264
  39.2357092  34.5015860  23.5088222  41.4828412  32.5472505  32.1832723
  41.1425232  31.7480318  32.5853403  40.7767418  32.8474215  31.6109557
  42.1344884  29.6321817  30.6360046  42.9570953  29.1582295  30.5138937
  42.3782947  30.4112301  31.1358733  40.7753118  32.6610075  20.9322948
  41.4961481  33.0391328  20.4286665  40.1518423  33.3798952  21.0357926
  44.9184241  33.3655224  21.8681280  45.1347856  34.2479862  21.5670109
  44.4378308  32.9741438  21.1386922  39.6583463  36.3240938  28.4452025
  39.5128043  36.6381241  29.3376306  39.1808666  36.9425838  27.8922924
  41.5179846  33.3143486  28.4932915  41.5041414  32.4184579  28.1565212
  42.2352274  33.3214149  29.1271201  48.3152165  46.8531613  23.3176127
  48.4889043  46.2878035  22.5649980  48.8081056  47.6532508  23.1355617
  34.1329125  38.8646282  31.3839686  33.5882593  39.6406090  31.5159960
  35.0108475  39.2117086  31.2258808  40.9216741  32.1957866  23.7620485
  41.0432653  31.2674512  23.9611372  40.6318784  32.2096552  22.8498800
  43.7907932  29.8812776  26.8987204  43.8129629  29.9452109  25.9439184
  44.2075991  29.0417285  27.0927711  49.3027338  46.1698377  20.4173026
  49.9978242  46.7905070  20.6360340  49.6450488  45.3193728  20.6925403
  34.9195147  37.9916178  34.2769843  34.1776883  38.1398814  34.8634473
  34.5987891  38.2524444  33.4136592  51.2018761  43.6198083  21.9460356
  51.7270085  43.9585356  21.2209676  51.1141113  42.6845098  21.7623491
  42.8859421  49.6870066  26.3055610  42.4464412  49.1946445  26.9988466
  43.6367538  49.1443034  26.0647685  35.3651760  45.8781607  26.3080238
  36.1909780  45.5785379  25.9278881  35.0145812  45.1089229  26.7570026
  40.3333294  45.2308075  28.3777911  39.7113303  44.5678780  28.0780139
  41.0038160  45.2569207  27.6951559  33.5660365  43.7967933  27.2669171
  32.7292274  43.3690108  27.0853172  33.5384011  43.9900377  28.2039962
  40.4057821  33.7089863  37.9710417  40.4545977  34.5851986  37.5888187
  40.9480335  33.1667256  37.3982060  39.8946800  43.7811999  21.8536372
  40.0434921  44.4647463  21.2003045  40.7013244  43.7617089  22.3685828
  42.6357109  34.4621236  34.7256776  41.7660419  34.7554802  34.4539364
  42.8716590  35.0461681  35.4464040  37.6499433  39.8077176  22.8597441
  37.4045475  38.9039506  23.0577651  37.8195348  39.8094327  21.9176919
  45.3396143  30.6800853  32.2422196  45.8578087  31.4161879  31.9168685
  44.9851276  30.9864846  33.0768955  36.9195081  35.5405534  20.3583602
  36.2264326  35.6149889  19.7023638  36.6746833  34.7765877  20.8805119
  45.5908737  27.1001135  27.7623093  45.8710491  26.4324324  28.3883519
  46.3759344  27.2930231  27.2497757  43.3942206  46.2760129  19.3248119
  42.8216173  46.8950316  18.8718591  43.9675000  46.8259491  19.8588041
  47.4831975  32.6074352  31.6954069  46.8881907  32.8879365  31.0000558
  47.1981672  33.0968253  32.4670810  46.6139466  46.5597279  20.4556701
  47.5470139  46.4942841  20.6589577  46.5262679  47.3953546  19.9971234
  49.2427482  45.8763149  17.4160649  49.1641114  45.5423013  18.3096407
  50.0637149  46.3684917  17.4152121  43.7789004  37.6120942  16.6664172
  44.7248109  37.4827150  16.7352590  43.4003249  36.8735604  17.1433600
  49.7510889  29.2776948  26.6291064  49.5535710  28.9692036  27.5134395
  50.3610595  30.0038587  26.7588993  41.9631922  35.5370918  16.6019057
  41.0563377  35.2404031  16.6781771  42.2407903  35.2400736  15.7353343
  32.8809862  36.8577282  27.0518103  32.5612646  36.0042590  26.7592477
  32.3343290  37.0725860  27.8076071  36.6589770  39.5739723  30.7687610
  36.8775779  40.5056830  30.7875644  37.0715543  39.2147697  31.5542414
  43.5793987  30.0807808  22.7563298  42.7694716  29.7354893  23.1318544
  44.2678404  29.7715352  23.3450910  45.5084536  29.1585855  24.3787595
  46.0615574  29.5781308  25.0377618  45.7454622  28.2321603  24.4210551
  41.5317635  35.1472928  40.1590359  41.4314362  36.0967285  40.0902450
  41.3139177  34.8191167  39.2866429  40.7330706  32.3957853  16.7431036
  41.5949870  32.7212752  17.0026853  40.9181050  31.6089349  16.2304102
  32.7498122  40.4780193  29.0211225  32.0561593  40.0634146  28.5081179
  33.4971113  40.5200730  28.4244644  48.8863343  31.2686380  23.8866259
  48.3062012  31.9271184  23.5044312  48.6199275  30.4463724  23.4753677
  47.3366909  30.6691437  26.0887579  47.8366687  30.7807972  25.2801898
  47.9802517  30.3652490  26.7288388  34.6634865  40.4098447  26.8977240
  34.6405553  40.5086134  25.9459123  34.9735501  41.2563598  27.2194406
  37.3222242  42.4674602  31.0123854  38.2765496  42.4358544  30.9453786
  37.1234766  42.0065226  31.8274080  37.9121625  41.0375718  33.5794652
  38.7314514  41.5319797  33.6029489  38.1858432  40.1207686  33.5512219
  47.6688221  33.4286470  22.9422607  46.7814076  33.7136121  22.7242802
  48.0842210  33.2680234  22.0949884  51.0202757  33.4532991  26.6576947
  51.7963147  33.9429444  26.9301563  50.2950891  33.8791045  27.1148816
  53.4575316  34.1660610  27.7150887  54.0519806  33.9256346  27.0044195
  53.5301899  33.4467741  28.3424424  35.6772471  48.0094221  28.0294052
  35.5426939  47.2494622  27.4632050  35.2604533  48.7335121  27.5622841
  46.8131434  43.1931145  17.0370627  47.5167284  43.3981147  17.6528283
  46.0894083  43.7607907  17.3019711  47.6429244  38.9441006  23.1572898
  47.5864446  39.4009558  22.3180530  48.1957587  38.1831691  22.9795740
  51.4534050  34.7330738  23.9823017  51.1970985  34.3327374  24.8131225
  50.8286918  35.4474532  23.8573156  38.8341597  48.9063538  28.2412495
  38.7173981  49.8508971  28.1391185  38.0134043  48.6037100  28.6298294
  48.7218132  43.6313674  19.0869087  49.5563736  43.1994873  18.9046562
  48.5602475  43.4595688  20.0145982  48.3764024  40.1345787  20.4525427
  48.3212828  39.9690059  19.5113871  47.7510079  40.8421820  20.6087616
  33.1656539  35.3713852  34.2786849  33.8115402  34.8612806  34.7674074
  32.9573690  36.1082533  34.8530274  41.6860149  29.6353896  20.0310745
  41.6738819  30.5795736  20.1879016  42.5783571  29.4524042  19.7370206
  39.8596111  49.5591800  31.4568423  40.7623358  49.5915410  31.7734918
  39.6333481  48.6292251  31.4714759  41.6149713  48.3122787  28.1178502
  40.6645344  48.3124648  28.0042874  41.9182199  47.5655521  27.6014536
  45.5012269  26.2296673  24.2856682  44.7344665  25.6755160  24.4313364
  45.9122974  26.3018542  25.1470834  37.5054030  32.5181469  38.3761863
  38.3685491  32.1618274  38.5865188  36.9319440  32.1795364  39.0637267
  50.0178929  55.9546230  25.1082680  49.4543794  55.8636167  24.3398968
  49.9031324  55.1346134  25.5885172  47.5643361  57.4497421  27.9466900
  48.3564653  57.1088246  27.5313200  47.8040011  57.5592396  28.8669054
  55.5978487  59.6217197  20.4197145  54.9466467  60.2071278  20.0331159
  56.3922850  60.1523392  20.4792182  49.5234115  56.7106335  20.8184279
  50.2964991  56.1635322  20.6797155  49.8759513  57.5750584  21.0298740
  51.3619157  58.0382717  34.0251178  51.0709023  58.9428348  33.9097845
  51.9976141  58.0799244  34.7395248  51.8600392  52.8699001  18.4502729
  52.1125913  52.3480522  17.6886192  50.9224951  52.7065146  18.5529413
  57.0753753  57.3107629  20.9566129  56.4399586  57.3842256  21.6687034
  56.7451159  57.9001228  20.2785208  51.5796681  54.7727107  20.6527104
  51.4632939  54.0972010  21.3208188  51.6898941  54.2859481  19.8359257
  53.5633709  49.2627153  19.3535142  53.7308111  50.1307390  19.7205613
  53.3730878  49.4254435  18.4296431  49.7721524  54.1757929  27.0537676
  48.8472020  54.0434143  27.2615368  50.0205937  54.9552148  27.5507619
  53.5422930  51.7184811  20.3381809  53.4222555  52.1641862  21.1767289
  52.8475518  52.0670129  19.7795347  47.1330335  53.8191203  27.8881466
  47.2622716  54.0725682  28.8020877  46.4527786  54.4118911  27.5686121
  51.3029822  64.4888453  23.9871940  51.2253852  65.4396278  24.0660420
  50.6991466  64.1434325  24.6446866  59.2407996  52.1906284  21.1662143
  60.1525852  52.4233671  20.9909840  58.7317643  52.7743328  20.6037221
  57.8477578  57.1732103  28.5575724  57.2186441  57.3377817  27.8551792
  57.4603240  57.5873712  29.3286688  53.4005540  56.9106511  25.8225809
  53.8643886  57.1894214  25.0330432  53.1362338  56.0089955  25.6398900
  50.2929621  56.4577992  28.7605572  50.8630978  56.8865261  28.1223057
  50.8837733  56.1760577  29.4589758  46.0799760  51.2913216  27.9332508
  45.2898814  51.5470744  27.4572618  46.5711008  52.1061553  28.0384548
  48.0314506  51.6557795  24.8915985  47.2345669  51.7676489  25.4099480
  47.8040098  51.9944447  24.0256875  44.3637463  51.5443706  30.3647499
  44.6145502  52.4290716  30.6305075  44.8997012  51.3648308  29.5922590
  53.5768191  59.8470606  22.7077479  53.4413866  60.6922141  23.1362327
  54.1178003  60.0489883  21.9443413  47.0297588  57.3646044  23.2805405
  47.5422109  58.1589294  23.4310969  47.6820301  56.6672334  23.2139006
  48.8392473  60.4811800  25.3628158  49.0159101  61.4029765  25.1749142
  49.6349307  60.1670219  25.7922538  49.9623788  61.9989974  31.3638500
  50.5131214  61.8707037  30.5915494  49.1235264  62.2984863  31.0133393
  44.9946505  55.6934698  24.0564975  45.8321727  56.1031706  23.8398683
  45.1724773  54.7534140  24.0265169  56.8910937  53.3609779  19.7448808
  56.3757561  54.1314383  19.9837195  56.6188246  52.6874915  20.3681869
  52.2500081  45.8244552  28.2091788  53.1153078  45.6287361  27.8497677
  52.3177590  45.5954904  29.1361145  61.8645211  56.1142133  21.6801982
  61.0874654  55.7753293  21.2357144  62.5436692  56.1194756  21.0056947
  55.1243672  57.3927094  23.2201543  54.5965034  56.6579854  22.9074781
  54.6231175  58.1701770  22.9741512  49.8562400  48.0546760  25.5808155
  50.4306152  47.8321942  24.8481348  50.4433382  48.1235455  26.3336756
  50.1831987  50.0851221  19.6004040  49.3469299  50.4225908  19.9213315
  50.0436757  49.9500201  18.6631177  53.2696272  55.2107304  16.2236516
  52.3623334  54.9796558  16.4227665  53.7667304  54.4144924  16.4110498
  56.1764351  63.9204811  19.1433202  55.5026050  64.2236508  19.7518160
  56.5630173  64.7233892  18.7938659  54.4484506  55.3119899  20.7460506
  53.5395725  55.0278932  20.8432976  54.4779590  55.7318978  19.8863813
  58.1236713  60.7602985  25.4501492  58.4159687  61.3208042  24.7313858
  58.6335333  61.0531546  26.2054651  45.0172676  53.0325413  24.7275709
  44.8197076  52.4394774  24.0026775  44.4619340  52.7277623  25.4451647
  54.1460594  56.8528643  18.0848585  53.7080024  56.1364502  17.6254222
  54.8871035  57.0804758  17.5233676  50.9361760  51.5425579  24.6060681
  50.1229625  51.8419750  25.0125873  51.4320754  51.1481268  25.3235163
  53.0870338  61.5383336  26.5394945  53.0446516  61.7644183  25.6103477
  54.0033037  61.3046711  26.6880746  51.2036138  58.4146365  26.3356908
  51.9976737  57.9196686  26.1339483  50.4927831  57.8864229  25.9724614
  47.5118902  52.5589447  22.4116661  46.5816490  52.4973903  22.6286623
  47.6076374  52.0365400  21.6153302  47.4304451  49.0844260  24.9994902
  47.6911268  49.9989593  24.8904063  48.2521623  48.6168703  25.1491515
  54.3755566  64.0884484  21.3580282  54.5507322  63.6172527  22.1725904
  53.6888354  64.7150250  21.5861542  55.3312630  58.3656990  27.4043583
  54.9962462  58.3257760  28.3001233  54.8316575  57.7001706  26.9313993
  58.2671821  55.7113024  17.6780643  57.6500992  54.9859853  17.5813695
  57.7988310  56.4722385  17.3347717  48.9416652  67.2373847  28.1320142
  49.1813250  67.8692371  28.8099160  48.0985848  66.8861887  28.4185501
  50.0570367  49.9298449  16.8001947  49.1799834  49.8087250  16.4364193
  50.5328120  49.1384527  16.5480835  41.5772507  54.7175608  26.8943454
  42.2643547  54.4037339  26.3064469  41.4220636  55.6216973  26.6210705
  53.4544514  63.0452969  30.5361646  53.3814685  63.8507941  31.0480950
  53.0121907  63.2444935  29.7109667  53.2434293  62.2824739  24.0464467
  52.4601815  62.8246419  24.1402692  53.9427038  62.7998719  24.4458708
  57.6360724  56.8491056  24.2637096  56.7017003  56.9692518  24.0941800
  57.8137392  55.9463523  23.9997106  50.9655111  60.6934247  33.5125375
  51.6664570  61.3270730  33.6654769  50.4950226  61.0348978  32.7521014
  59.0909506  59.0352196  21.7973282  59.3669350  58.9208791  22.7067156
  58.2214005  58.6369681  21.7585455  55.7263570  63.2838547  25.4406096
  55.9085965  62.4660203  25.9033848  56.5496557  63.5006239  25.0030986
  56.0605736  62.2106732  22.7021144  56.5893502  61.6999187  22.0891306
  56.3233956  61.8949263  23.5666677  46.5622829  60.2270602  30.4456478
  47.1476266  59.4814290  30.5784382  46.3647667  60.5374558  31.3293142
  49.4161484  63.2621849  25.4618920  48.7471859  63.7467977  24.9782960
  49.2774354  63.5091069  26.3762299  41.1540483  52.7976202  29.1660921
  41.1924583  52.2639793  29.9598039  40.6480776  52.2711407  28.5471898
  53.5566753  65.2965593  32.0601579  54.1085061  65.4597214  32.8250664
  53.8972946  65.8870030  31.3881603  44.7849061  51.5240304  22.2414852
  45.0802502  50.6150982  22.1881906  43.8837097  51.5028043  21.9195855
  46.5136903  49.2054402  22.3654178  46.1849609  48.3251781  22.1829284
  46.8676273  49.1502070  23.2530567  55.7616481  60.8409304  26.8749163
  55.6141444  59.9126012  27.0556733  56.5869975  60.8629395  26.3906238
  49.6278726  49.4927371  22.7329655  49.9674798  50.0213293  22.0108264
  50.0750846  49.8307778  23.5088222  59.3650603  61.6637863  27.9614036
  60.2897151  61.4580724  27.8238487  59.1965907  61.4154264  28.8703377
  51.6146873  47.9901993  20.9322948  52.3355235  48.3683246  20.4286665
  50.9912177  48.7090870  21.0357926  52.3573600  48.6435403  28.4932915
  52.3435169  47.7476497  28.1565212  53.0746028  48.6506067  29.1271201
  59.1545920  62.1823531  23.3176127  59.3282797  61.6169953  22.5649980
  59.6474811  62.9824425  23.1355617  44.9722879  54.1938200  31.3839686
  44.4276347  54.9698008  31.5159960  45.8502229  54.5409004  31.2258808
  51.7610496  47.5249784  23.7620485  51.8826407  46.5966430  23.9611372
  51.4712538  47.5388469  22.8498800  60.1421092  61.4990295  20.4173026
  60.8371997  62.1196988  20.6360340  60.4844242  60.6485646  20.6925403
  62.0412515  58.9490000  21.9460356  62.5663839  59.2877273  21.2209676
  61.9534868  58.0137016  21.7623491  53.7253176  65.0161984  26.3055610
  53.2858166  64.5238362  26.9988466  54.4761293  64.4734951  26.0647685
  46.2045515  61.2073525  26.3080238  47.0303535  60.9077296  25.9278881
  45.8539567  60.4381147  26.7570026  51.1727048  60.5599993  28.3777911
  50.5507057  59.8970698  28.0780139  51.8431915  60.5861125  27.6951559
  44.4054120  59.1259851  27.2669171  43.5686028  58.6982025  27.0853172
  44.3777765  59.3192294  28.2039962  50.7340555  59.1103916  21.8536372
  50.8828675  59.7939381  21.2003045  51.5406998  59.0909006  22.3685828
  48.4893188  55.1369094  22.8597441  48.2439230  54.2331424  23.0577651
  48.6589102  55.1386244  21.9176919  47.7588835  50.8697451  20.3583602
  47.0658080  50.9441806  19.7023638  47.5140587  50.1057795  20.8805119
  54.2335960  61.6052047  19.3248119  53.6609928  62.2242234  18.8718591
  54.8068754  62.1551408  19.8588041  57.4533220  61.8889197  20.4556701
  58.3863893  61.8234758  20.6589577  57.3656433  62.7245464  19.9971234
  60.0821237  61.2055067  17.4160649  60.0034868  60.8714931  18.3096407
  60.9030904  61.6976835  17.4152121  54.6182759  52.9412859  16.6664172
  55.5641864  52.8119067  16.7352590  54.2397004  52.2027521  17.1433600
  52.8025676  50.8662836  16.6019057  51.8957132  50.5695948  16.6781771
  53.0801657  50.5692654  15.7353343  43.7203617  52.1869199  27.0518103
  43.4006401  51.3334507  26.7592477  43.1737045  52.4017777  27.8076071
  47.4983524  54.9031640  30.7687610  47.7169534  55.8348748  30.7875644
  47.9109298  54.5439615  31.5542414  54.4187742  45.4099725  22.7563298
  53.6088470  45.0646810  23.1318544  55.1072159  45.1007269  23.3450910
  51.5724461  47.7249771  16.7431036  52.4343625  48.0504669  17.0026853
  51.7574805  46.9381267  16.2304102  43.5891877  55.8072111  29.0211225
  42.8955348  55.3926063  28.5081179  44.3364868  55.8492647  28.4244644
  45.5028619  55.7390364  26.8977240  45.4799307  55.8378052  25.9459123
  45.8129256  56.5855515  27.2194406  48.1615997  57.7966519  31.0123854
  49.1159250  57.7650462  30.9453786  47.9628520  57.3357143  31.8274080
  48.7515379  56.3667636  33.5794652  49.5708268  56.8611714  33.6029489
  49.0252187  55.4499604  33.5512219  46.5166226  63.3386139  28.0294052
  46.3820694  62.5786540  27.4632050  46.0998288  64.0627039  27.5622841
  57.6525189  58.5223063  17.0370627  58.3561039  58.7273065  17.6528283
  56.9287837  59.0899824  17.3019711  58.4822999  54.2732924  23.1572898
  58.4258200  54.7301475  22.3180530  59.0351341  53.5123608  22.9795740
  49.6735352  64.2355456  28.2412495  49.5567736  65.1800888  28.1391185
  48.8527798  63.9329018  28.6298294  59.5611886  58.9605592  19.0869087
  60.3957490  58.5286790  18.9046562  59.3996229  58.7887605  20.0145982
  59.2157778  55.4637705  20.4525427  59.1606582  55.2981976  19.5113871
  58.5903834  56.1713738  20.6087616  52.5253904  44.9645814  20.0310745
  52.5132574  45.9087654  20.1879016  53.4177326  44.7815959  19.7370206
  50.6989866  64.8883718  31.4568423  51.6017112  64.9207328  31.7734918
  50.4727236  63.9584169  31.4714759  52.4543468  63.6414704  28.1178502
  51.5039099  63.6416566  28.0042874  52.7575954  62.8947439  27.6014536
  68.1896161  69.4775243  29.1824264  68.8274571  69.3581990  28.4787604
  68.0717004  70.4256087  29.2412216  64.9985867  69.4302671  29.1185789
  64.6604379  69.3143736  28.2306324  65.8675636  69.0293836  29.0986795
  60.8572683  71.2838147  25.1082680  60.2937548  71.1928084  24.3398968
  60.7425078  70.4638052  25.5885172  65.4805650  70.5837523  35.0771994
  65.4694291  70.1890321  34.2052498  65.6426290  69.8503595  35.6705766
  58.4037115  72.7789339  27.9466900  59.1958407  72.4380164  27.5313200
  58.6433765  72.8884314  28.8669054  66.4372242  74.9509115  20.4197145
  65.7860222  75.5363195  20.0331159  67.2316605  75.4815310  20.4792182
  60.3627869  72.0398252  20.8184279  61.1358745  71.4927239  20.6797155
  60.7153268  72.9042502  21.0298740  62.2012912  73.3674634  34.0251178
  61.9102778  74.2720265  33.9097845  62.8369896  73.4091162  34.7395248
  63.1269118  70.7451483  30.6152538  63.7232691  70.5207505  29.9009501
  63.1844090  70.0036228  31.2177986  62.6994147  68.1990918  18.4502729
  62.9519668  67.6772440  17.6886192  61.7618706  68.0357064  18.5529413
  67.7437430  67.2026697  26.2577472  68.5300519  66.7846120  25.9067889
  68.0076134  68.1072789  26.4259121  67.9147507  72.6399547  20.9566129
  67.2793340  72.7134173  21.6687034  67.5844913  73.2293146  20.2785208
  73.1445857  67.1401930  27.1610451  73.8771029  66.5701147  27.3948280
  72.3885213  66.7523530  27.6016956  62.4190436  70.1019024  20.6527104
  62.3026694  69.4263928  21.3208188  62.5292696  69.6151398  19.8359257
  64.7621977  69.5629171  24.3573793  64.3980184  69.0359792  25.0686715
  65.6189092  69.1727640  24.1840279  64.4027464  64.5919071  19.3535142
  64.5701866  65.4599307  19.7205613  64.2124633  64.7546353  18.4296431
  67.1602797  73.0536050  31.0200972  66.8603520  73.9561089  30.9116779
  66.8153856  72.7868233  31.8722125  60.6115278  69.5049847  27.0537676
  59.6865775  69.3726061  27.2615368  60.8599691  70.2844066  27.5507619
  70.5599941  65.5718590  28.6998409  69.6516818  65.5033999  28.4057170
  70.5087536  66.0490535  29.5280235  64.3816684  67.0476729  20.3381809
  64.2616310  67.4933779  21.1767289  63.6869273  67.3962046  19.7795347
  57.9724089  69.1483120  27.8881466  58.1016470  69.4017599  28.8020877
  57.2921541  69.7410828  27.5686121  62.1423577  79.8180370  23.9871940
  62.0647606  80.7688195  24.0660420  61.5385220  79.4726243  24.6446866
  64.6340806  66.9908236  36.6433307  63.8574140  67.5502156  36.6336171
  65.2731369  67.4765019  37.1648177  70.0801751  67.5198202  21.1662143
  70.9919607  67.7525588  20.9909840  69.5711398  68.1035246  20.6037221
  62.8887179  69.7993689  36.2051274  63.6301863  70.3378733  35.9286097
  62.1824164  70.4259978  36.3622825  68.3642518  71.9422830  34.8023435
  68.7725874  71.5005240  34.0578067  67.6419780  71.3675457  35.0557628
  64.7173588  66.8795436  32.1756992  65.5634783  67.3034850  32.3191641
  64.6572226  66.2229061  32.8695555  68.6871333  72.5024020  28.5575724
  68.0580195  72.6669734  27.8551792  68.2996995  72.9165630  29.3286688
  72.5660565  73.4378458  25.9120088  71.8811603  73.8177359  25.3617121
  72.6504414  74.0473785  26.6452036  69.8211496  71.0838417  32.5115431
  70.0328392  71.7270177  31.8349812  69.7741245  70.2500734  32.0437361
  67.4237725  63.6956238  29.4152003  66.5622204  63.9937491  29.7068741
  67.4500160  63.9126637  28.4833036  64.2399295  72.2398428  25.8225809
  64.7037640  72.5186131  25.0330432  63.9756093  71.3381873  25.6398900
  61.1323376  71.7869910  28.7605572  61.7024733  72.2157178  28.1223057
  61.7231488  71.5052495  29.4589758  63.1768181  68.3621581  22.6315374
  63.8792224  68.8142624  23.0989301  62.8448809  67.7205400  23.2595267
  61.6248542  66.9533337  37.0066584  60.9947203  67.6349618  37.2401980
  61.5184630  66.8416419  36.0619722  56.9193515  66.6205133  27.9332508
  56.1292569  66.8762662  27.4572618  57.4104762  67.4353471  28.0384548
  70.9357324  73.9610372  30.6837789  71.7574768  73.5590560  30.4020470
  70.9319727  73.8578607  31.6353904  58.8708260  66.9849713  24.8915985
  58.0739423  67.0968407  25.4099480  58.6433852  67.3236365  24.0256875
  64.7013928  73.5094416  32.8398499  64.7658360  73.9714823  33.6756671
  63.9924852  72.8791781  32.9680809  55.2031218  66.8735624  30.3647499
  55.4539256  67.7582634  30.6305075  55.7390766  66.6940225  29.5922590
  79.0263317  70.3049121  27.0322760  78.2727026  69.7356519  26.8766765
  79.1610859  70.2711785  27.9793395  64.4161945  75.1762523  22.7077479
  64.2807620  76.0214059  23.1362327  64.9571758  75.3781801  21.9443413
  57.8691343  72.6937961  23.2805405  58.3815863  73.4881212  23.4310969
  58.5214056  71.9964252  23.2139006  59.6786228  75.8103718  25.3628158
  59.8552856  76.7321682  25.1749142  60.4743061  75.4962137  25.7922538
  58.9638584  67.8568349  35.2390321  58.8492099  66.9553607  35.5397420
  58.1083102  68.1032046  34.8875137  66.0430422  75.7986090  36.8377822
  65.5994276  75.0122468  36.5198726  66.7047635  75.9865240  36.1721712
  60.8017543  77.3281891  31.3638500  61.3524968  77.1998955  30.5915494
  59.9629019  77.6276780  31.0133393  68.1411660  76.0788890  34.8659223
  68.1230135  76.8997771  34.3739492  69.0631580  75.9542965  35.0909364
  64.5984714  73.5933019  35.7082731  65.1313051  72.8321307  35.4782039
  64.0698795  73.3006671  36.4506886  55.8340260  71.0226616  24.0564975
  56.6715482  71.4323624  23.8398683  56.0118527  70.0826058  24.0265169
  67.7304692  68.6901696  19.7448808  67.2151315  69.4606301  19.9837195
  67.4582000  68.0166832  20.3681869  65.3151803  63.5351397  24.8034046
  64.4593399  63.1458247  24.6239685  65.7278755  63.6143358  23.9433832
  72.7038966  71.4434051  21.6801982  71.9268409  71.1045210  21.2357144
  73.3830447  71.4486674  21.0056947  67.5190995  66.5628788  21.5708589
  67.2141130  66.8774938  22.4218732  68.4721437  66.6410208  21.6135922
  65.9637427  72.7219012  23.2201543  65.4358788  71.9871771  22.9074781
  65.4624929  73.4993688  22.9741512  70.9430273  70.9168032  28.3368590
  70.2853947  71.6067294  28.4248718  71.7470672  71.3064464  28.6802576
  60.6956154  63.3838678  25.5808155  61.2699906  63.1613859  24.8481348
  61.2827137  63.4527372  26.3336756  69.7535732  69.2712405  26.3872531
  70.2667613  69.9042397  26.8894241  70.4036955  68.6713600  26.0215891
  61.0225741  65.4143139  19.6004040  60.1863054  65.7517826  19.9213315
  60.8830511  65.2792119  18.6631177  64.1090027  70.5399222  16.2236516
  63.2017089  70.3088475  16.4227665  64.6061059  69.7436841  16.4110498
  67.0158106  79.2496729  19.1433202  66.3419805  79.5528426  19.7518160
  67.4023928  80.0525809  18.7938659  66.2316562  66.7461860  28.6330872
  65.3139124  66.9676807  28.4752560  66.6476706  66.8208171  27.7742579
  67.0151610  68.1453276  23.7633552  67.7623429  68.6574673  23.4540674
  67.2843200  67.8237329  24.6237946  65.2878260  70.6411817  20.7460506
  64.3789480  70.3570850  20.8432976  65.3173344  71.0610895  19.8863813
  70.5197528  74.2518406  24.5151674  70.0659855  73.4109316  24.5716864
  69.8891494  74.8879805  24.8526454  69.4630447  65.1810392  25.7452341
  68.7253204  64.6687779  26.0762584  69.7157221  64.7410774  24.9335618
  68.9630467  76.0894903  25.4501492  69.2553441  76.6499960  24.7313858
  69.4729088  76.3823464  26.2054651  55.8566431  68.3617331  24.7275709
  55.6590831  67.7686692  24.0026775  55.3013095  68.0569541  25.4451647
  63.8363154  68.2540437  26.8470302  63.8911764  67.3014274  26.7712778
  63.0254356  68.4099877  27.3311600  64.9854348  72.1820560  18.0848585
  64.5473778  71.4656419  17.6254222  65.7264789  72.4096675  17.5233676
  61.7755514  66.8717497  24.6060681  60.9623380  67.1711668  25.0125873
  62.2714508  66.4773186  25.3235163  63.9264092  76.8675254  26.5394945
  63.8840271  77.0936100  25.6103477  64.8426791  76.6338629  26.6880746
  73.1027463  70.4577758  24.1424903  72.9645362  70.6479353  23.2146093
  72.7463682  71.2197140  24.5992955  61.2669589  64.4435853  30.2221916
  61.9068968  64.3024612  29.5244879  60.4347120  64.1570366  29.8460517
  73.1296843  72.5254285  29.1536175  73.5633349  72.4329574  30.0019229
  73.8428423  72.5011785  28.5156191  62.0429893  73.7438283  26.3356908
  62.8370491  73.2488603  26.1339483  61.3321585  73.2156146  25.9724614
  66.8624737  76.1256379  30.6869276  66.9161760  76.6947315  31.4546991
  65.9939519  76.2958264  30.3223313  58.3512656  67.8881365  22.4116661
  57.4210245  67.8265820  22.6286623  58.4470128  67.3657318  21.6153302
  58.2698205  64.4136178  24.9994902  58.5305023  65.3281511  24.8904063
  59.0915378  63.9460620  25.1491515  73.9912392  72.5677985  31.6869060
  74.1848282  73.4723796  31.9328335  73.8913010  72.1085404  32.5207645
  69.0527501  72.7184728  37.2609941  68.9013007  72.4895280  36.3440025
  69.0432180  73.6755329  37.2741286  65.8212837  70.2916641  32.2456207
  66.7504897  70.4427800  32.0725175  65.4003867  70.3800661  31.3904854
  64.6201169  74.3167305  30.0154745  64.4812255  73.9486089  30.8880683
  63.8315765  74.8314945  29.8438703  65.2149321  79.4176402  21.3580282
  65.3901077  78.9464445  22.1725904  64.5282109  80.0442168  21.5861542
  66.1706384  73.6948908  27.4043583  65.8356217  73.6549678  28.3001233
  65.6710330  73.0293624  26.9313993  60.1450628  69.1016538  32.9296164
  60.0070426  68.3696777  33.5307703  61.0555552  69.0125438  32.6480352
  69.1065576  71.0404942  17.6780643  68.4894746  70.3151770  17.5813695
  68.6382064  71.8014302  17.3347717  62.7732929  68.8136497  32.4179844
  63.4832547  68.1729689  32.3766462  62.7302237  69.0649392  33.3406024
  70.7619707  75.7503850  35.3386423  70.7032254  75.0663071  34.6717006
  71.1639226  76.4922840  34.8867049  61.4861863  65.8001715  34.2375483
  60.9499220  65.3492453  34.8897079  60.8978571  65.9347624  33.4945947
  59.7810406  82.5665764  28.1320142  60.0207004  83.1984288  28.8099160
  58.9379603  82.2153804  28.4185501  60.8964122  65.2590366  16.8001947
  60.0193588  65.1379167  16.4364193  61.3721875  64.4676445  16.5480835
  70.7637115  73.7143434  33.5700403  69.8763893  73.3769356  33.6926801
  71.3335666  72.9826466  33.8069168  52.4166262  70.0467526  26.8943454
  53.1037302  69.7329256  26.3064469  52.2614390  70.9508891  26.6210705
  64.2938268  78.3744887  30.5361646  64.2208440  79.1799858  31.0480950
  63.8515661  78.5736853  29.7109667  64.0828048  77.6116657  24.0464467
  63.2995570  78.1538337  24.1402692  64.7820793  78.1290636  24.4458708
  67.3924698  63.4211286  26.6898673  67.8893397  62.6681249  26.3699743
  66.6211679  63.4575603  26.1241882  75.2454455  69.1251652  28.3316964
  75.2344331  70.0076367  27.9610897  74.3771835  68.7723203  28.1371501
  66.7536952  78.2731721  32.6919804  67.4664924  78.9079186  32.6195706
  66.2626980  78.3695587  31.8759806  68.4754479  72.1782973  24.2637096
  67.5410757  72.2984436  24.0941800  68.6531147  71.2755440  23.9997106
  63.9759667  65.5628669  26.4170357  63.6057454  65.0099710  27.1051263
  64.4718759  64.9586803  25.8645357  71.8627030  68.0200293  24.7987130
  72.3287482  68.8528284  24.7247433  72.3134530  67.5545274  25.5032389
  61.8048865  76.0226164  33.5125375  62.5058325  76.6562647  33.6654769
  61.3343980  76.3640896  32.7521014  69.9303261  74.3644114  21.7973282
  70.2063105  74.2500709  22.7067156  69.0607760  73.9661599  21.7585455
  69.6050151  68.5770772  31.3377926  68.9521601  68.8246679  30.6830378
  69.9830531  67.7634910  31.0040403  66.5657325  78.6130465  25.4406096
  66.7479720  77.7952121  25.9033848  67.3890311  78.8298157  25.0030986
  66.8999490  77.5398650  22.7021144  67.4287257  77.0291105  22.0891306
  67.1627710  77.2241180  23.5666677  57.4016583  75.5562519  30.4456478
  57.9870020  74.8106207  30.5784382  57.2041422  75.8666476  31.3293142
  60.2555238  78.5913767  25.4618920  59.5865614  79.0759894  24.9782960
  60.1168108  78.8382987  26.3762299  51.9934238  68.1268120  29.1660921
  52.0318337  67.5931710  29.9598039  51.4874531  67.6003325  28.5471898
  64.3960507  80.6257510  32.0601579  64.9478815  80.7889132  32.8250664
  64.7366700  81.2161948  31.3881603  69.2471381  75.4518768  37.9150233
  69.7911285  76.0648726  37.4205188  68.6658226  76.0098346  38.4317246
  55.6242816  66.8532222  22.2414852  55.9196257  65.9442900  22.1881906
  54.7230851  66.8319961  21.9195855  67.5328894  78.5739486  29.0465261
  67.4080034  77.7729226  28.5376206  68.1907985  79.0685679  28.5579231
  59.1537063  64.9288218  28.2242401  58.4323648  65.5424186  28.0849874
  59.9430318  65.4645983  28.1459047  69.5963803  76.3748506  30.6744811
  68.6494138  76.2553857  30.6023138  69.9446576  75.4871004  30.7571072
  57.3530657  64.5346319  22.3654178  57.0243363  63.6543698  22.1829284
  57.7070028  64.4793988  23.2530567  66.6010236  76.1701222  26.8749163
  66.4535198  75.2417929  27.0556733  67.4263729  76.1921313  26.3906238
  60.4672480  64.8219289  22.7329655  60.8068553  65.3505210  22.0108264
  60.9144601  65.1599695  23.5088222  70.2044358  76.9929781  27.9614036
  71.1290905  76.7872642  27.8238487  70.0359661  76.7446182  28.8703377
  62.4540627  63.3193911  20.9322948  63.1748990  63.6975164  20.4286665
  61.8305932  64.0382788  21.0357926  66.5971750  64.0239060  21.8681280
  66.8135365  64.9063698  21.5670109  66.1165817  63.6325273  21.1386922
  61.3370972  66.9824773  28.4452025  61.1915552  67.2965076  29.3376306
  60.8596175  67.6009673  27.8922924  65.0493485  64.4064661  30.5386042
  64.7911263  65.3281732  30.5370372  64.5178526  64.0095096  31.2286506
  69.9939674  77.5115448  23.3176127  70.1676552  76.9461871  22.5649980
  70.4868565  78.3116343  23.1355617  55.8116634  69.5230117  31.3839686
  55.2670102  70.2989925  31.5159960  56.6895984  69.8700922  31.2258808
  62.6004250  62.8541701  23.7620485  62.7220162  61.9258347  23.9611372
  62.3106293  62.8680387  22.8498800  75.8479065  70.2751871  24.9366427
  76.2910211  69.5259196  24.5385550  74.9705575  70.2662008  24.5540159
  70.9814847  76.8282213  20.4173026  71.6765751  77.4488905  20.6360340
  71.3237997  75.9777564  20.6925403  56.5982656  68.6500014  34.2769843
  55.8564392  68.7982649  34.8634473  56.2775400  68.9108279  33.4136592
  72.8806270  74.2781918  21.9460356  73.4057594  74.6169191  21.2209676
  72.7928622  73.3428933  21.7623491  64.5426318  78.1915992  34.0750233
  64.8513445  77.9465139  34.9472933  65.3401800  78.3962630  33.5869103
  64.5646930  80.3453901  26.3055610  64.1251921  79.8530280  26.9988466
  65.3155047  79.8026869  26.0647685  57.0439269  76.5365442  26.3080238
  57.8697289  76.2369214  25.9278881  56.6933321  75.7673065  26.7570026
  62.0120803  75.8891911  28.3777911  61.3900812  75.2262616  28.0780139
  62.6825669  75.9153042  27.6951559  55.2447874  74.4551769  27.2669171
  54.4079783  74.0273943  27.0853172  55.2171520  74.6484212  28.2039962
  72.5700176  74.9114822  37.2511554  71.7795719  74.8938961  36.7116054
  72.3333530  75.4503115  38.0060591  72.6898051  71.7607288  34.5644283
  72.7396056  71.5957296  35.5059806  72.5811974  70.8934547  34.1742164
  61.5734309  74.4395834  21.8536372  61.7222430  75.1231298  21.2003045
  62.3800753  74.4200924  22.3685828  64.3144618  65.1205071  34.7256776
  63.4447928  65.4138637  34.4539364  64.5504099  65.7045516  35.4464040
  74.1916248  74.1804230  34.8086304  73.9001056  74.5434210  35.6449765
  73.5788379  73.4671238  34.6299636  75.3911930  71.7457109  27.3288875
  76.2258821  72.1846914  27.4926435  75.5271059  71.2695763  26.5097120
  72.4403436  69.3036844  33.2766362  72.9157557  69.4964491  32.4685214
  71.5169001  69.3596030  33.0309746  59.3286942  70.4661011  22.8597441
  59.0832984  69.5623341  23.0577651  59.4982857  70.4678162  21.9176919
  58.5982590  66.1989369  20.3583602  57.9051835  66.2733724  19.7023638
  58.3534342  65.4349713  20.8805119  65.0729715  76.9343964  19.3248119
  64.5003682  77.5534151  18.8718591  65.6462509  77.4843326  19.8588041
  68.2926975  77.2181114  20.4556701  69.2257648  77.1526676  20.6589577
  68.2050188  78.0537381  19.9971234  70.9214991  76.5346985  17.4160649
  70.8428623  76.2006848  18.3096407  71.7424658  77.0268753  17.4152121
  73.6193183  69.4008724  30.6236968  73.5869503  68.4624725  30.8096651
  74.2293806  69.4792761  29.8902793  65.4576513  68.2704777  16.6664172
  66.4035618  68.1410985  16.7352590  65.0790758  67.5319439  17.1433600
  73.7687671  66.1919768  30.6695251  73.2526720  65.4078224  30.4825180
  74.6527620  65.8638484  30.8341770  79.4369732  70.4624731  29.7643004
  80.1673121  70.2010019  30.3250708  78.8276678  69.7253453  29.8045072
  77.5185030  68.6032594  30.3617456  76.7918193  68.4688558  29.7533947
  77.1032316  68.9109422  31.1674174  65.3415206  72.3222523  38.1264829
  66.2618215  72.5001122  38.3204875  65.3064789  71.3778569  37.9744528
  63.6419431  66.1954753  16.6019057  62.7350886  65.8987866  16.6781771
  63.9195412  65.8984572  15.7353343  54.5597371  67.5161117  27.0518103
  54.2400155  66.6626425  26.7592477  54.0130799  67.7309695  27.8076071
  58.3377279  70.2323558  30.7687610  58.5563288  71.1640666  30.7875644
  58.7503052  69.8731532  31.5542414  62.4118215  63.0541689  16.7431036
  63.2737379  63.3796587  17.0026853  62.5968559  62.2673185  16.2304102
  54.4285631  71.1364028  29.0211225  53.7349102  70.7217981  28.5081179
  55.1758622  71.1784565  28.4244644  70.5650852  61.9270215  23.8866259
  69.9849521  62.5855019  23.5044312  70.2986784  61.1047560  23.4753677
  63.0736414  69.2353902  38.9755420  62.5903496  70.0354263  39.1819309
  63.1597353  69.2461847  38.0222864  56.3422374  71.0682282  26.8977240
  56.3193062  71.1669969  25.9459123  56.6523010  71.9147433  27.2194406
  59.0009751  73.1258437  31.0123854  59.9553005  73.0942379  30.9453786
  58.8022275  72.6649061  31.8274080  59.5909134  71.6959553  33.5794652
  60.4102023  72.1903632  33.6029489  59.8645941  70.7791521  33.5512219
  69.3475730  64.0870306  22.9422607  68.4601585  64.3719956  22.7242802
  69.7629719  63.9264069  22.0949884  72.6990266  64.1116826  26.6576947
  73.4750656  64.6013279  26.9301563  71.9738400  64.5374881  27.1148816
  75.1362824  64.8244446  27.7150887  75.7307315  64.5840182  27.0044195
  75.2089408  64.1051576  28.3424424  57.3559980  78.6678057  28.0294052
  57.2214448  77.9078458  27.4632050  56.9392042  79.3918957  27.5622841
  68.4918943  73.8514980  17.0370627  69.1954793  74.0564983  17.6528283
  67.7681592  74.4191742  17.3019711  69.3216753  69.6024841  23.1572898
  69.2651955  70.0593393  22.3180530  69.8745096  68.8415526  22.9795740
  73.1321559  65.3914573  23.9823017  72.8758494  64.9911209  24.8131225
  72.5074427  66.1058367  23.8573156  77.4433897  68.1310647  26.4894308
  76.8833455  68.2003836  27.2625870  76.8377401  67.9551631  25.7693805
  60.5129106  79.5647374  28.2412495  60.3961490  80.5092806  28.1391185
  59.6921552  79.2620935  28.6298294  70.4005641  74.2897509  19.0869087
  71.2351245  73.8578708  18.9046562  70.2389984  74.1179523  20.0145982
  70.0551533  70.7929623  20.4525427  70.0000337  70.6273894  19.5113871
  69.4297588  71.5005656  20.6087616  67.3697440  73.0978535  39.7778989
  68.2388600  73.2719187  39.4165624  66.8904191  73.9172951  39.6554719
  63.3647658  60.2937732  20.0310745  63.3526328  61.2379572  20.1879016
  64.2571080  60.1107877  19.7370206  61.5383620  80.2175636  31.4568423
  62.4410867  80.2499246  31.7734918  61.3120990  79.2876087  31.4714759
  63.2937222  78.9706622  28.1178502  62.3432853  78.9708484  28.0042874
  63.5969708  78.2239357  27.6014536  79.0289916  84.8067161  29.1824264
  79.6668326  84.6873908  28.4787604  78.9110759  85.7548004  29.2412216
  75.8379622  84.7594589  29.1185789  75.4998134  84.6435653  28.2306324
  76.7069390  84.3585754  29.0986795  71.6966438  86.6130065  25.1082680
  71.1331303  86.5220002  24.3398968  71.5818833  85.7929969  25.5885172
  76.3199405  85.9129440  35.0771994  76.3088046  85.5182239  34.2052498
  76.4820044  85.1795513  35.6705766  69.2430870  88.1081257  27.9466900
  70.0352162  87.7672081  27.5313200  69.4827520  88.2176232  28.8669054
  77.2765996  90.2801033  20.4197145  76.6253976  90.8655113  20.0331159
  78.0710359  90.8107228  20.4792182  71.2021624  87.3690170  20.8184279
  71.9752500  86.8219157  20.6797155  71.5547022  88.2334419  21.0298740
  73.0406666  88.6966552  34.0251178  72.7496532  89.6012183  33.9097845
  73.6763650  88.7383080  34.7395248  73.9662873  86.0743401  30.6152538
  74.5626445  85.8499423  29.9009501  74.0237844  85.3328146  31.2177986
  73.5387901  83.5282836  18.4502729  73.7913422  83.0064357  17.6886192
  72.6012460  83.3648981  18.5529413  78.5831184  82.5318614  26.2577472
  79.3694273  82.1138038  25.9067889  78.8469889  83.4364707  26.4259121
  78.7541262  87.9691465  20.9566129  78.1187095  88.0426091  21.6687034
  78.4238668  88.5585063  20.2785208  83.9839611  82.4693848  27.1610451
  84.7164783  81.8993064  27.3948280  83.2278967  82.0815448  27.6016956
  73.2584190  85.4310942  20.6527104  73.1420448  84.7555845  21.3208188
  73.3686450  84.9443316  19.8359257  75.6015731  84.8921089  24.3573793
  75.2373938  84.3651710  25.0686715  76.4582847  84.5019558  24.1840279
  81.5065032  76.1815422  31.6205059  81.1748356  77.0510833  31.3966274
  80.9110645  75.8651706  32.2999090  75.2421218  79.9210989  19.3535142
  75.4095620  80.7891225  19.7205613  75.0518387  80.0838270  18.4296431
  77.9996551  88.3827968  31.0200972  77.6997274  89.2853006  30.9116779
  77.6547611  88.1160151  31.8722125  71.4509033  84.8341764  27.0537676
  70.5259529  84.7017979  27.2615368  71.6993446  85.6135984  27.5507619
  81.3993695  80.9010508  28.6998409  80.4910572  80.8325916  28.4057170
  81.3481291  81.3782453  29.5280235  75.2210439  82.3768646  20.3381809
  75.1010064  82.8225697  21.1767289  74.5263027  82.7253964  19.7795347
  68.8117844  84.4775038  27.8881466  68.9410225  84.7309517  28.8020877
  68.1315295  85.0702746  27.5686121  72.9817331  95.1472288  23.9871940
  72.9041361  96.0980113  24.0660420  72.3778975  94.8018160  24.6446866
  75.4734561  82.3200153  36.6433307  74.6967895  82.8794074  36.6336171
  76.1125124  82.8056936  37.1648177  83.2655341  79.1026946  30.4776283
  82.6229722  79.3959479  29.8316078  82.7610270  78.9879867  31.2829480
  80.9195505  82.8490119  21.1662143  81.8313361  83.0817506  20.9909840
  80.4105152  83.4327164  20.6037221  73.7280933  85.1285607  36.2051274
  74.4695617  85.6670651  35.9286097  73.0217919  85.7551896  36.3622825
  79.2036273  87.2714747  34.8023435  79.6119629  86.8297158  34.0578067
  78.4813534  86.6967375  35.0557628  75.5567343  82.2087354  32.1756992
  76.4028538  82.6326768  32.3191641  75.4965980  81.5520978  32.8695555
  79.5265087  87.8315938  28.5575724  78.8973950  87.9961652  27.8551792
  79.1390749  88.2457547  29.3286688  83.4054319  88.7670376  25.9120088
  82.7205357  89.1469277  25.3617121  83.4898169  89.3765702  26.6452036
  78.7066788  79.8691722  33.8338166  78.4627720  80.6233783  33.2972441
  78.9826719  80.2477070  34.6685413  80.6605251  86.4130335  32.5115431
  80.8722146  87.0562095  31.8349812  80.6134999  85.5792651  32.0437361
  78.2631480  79.0248155  29.4152003  77.4015959  79.3229409  29.7068741
  78.2893914  79.2418554  28.4833036  75.0793049  87.5690346  25.8225809
  75.5431395  87.8478049  25.0330432  74.8149847  86.6673791  25.6398900
  71.9717130  87.1161828  28.7605572  72.5418487  87.5449096  28.1223057
  72.5625242  86.8344412  29.4589758  74.0161935  83.6913498  22.6315374
  74.7185979  84.1434542  23.0989301  73.6842564  83.0497317  23.2595267
  72.4642297  82.2825255  37.0066584  71.8340957  82.9641536  37.2401980
  72.3578385  82.1708337  36.0619722  67.7587269  81.9497051  27.9332508
  66.9686323  82.2054580  27.4572618  68.2498517  82.7645389  28.0384548
  81.7751079  89.2902290  30.6837789  82.5968523  88.8882477  30.4020470
  81.7713482  89.1870524  31.6353904  69.7102015  82.3141630  24.8915985
  68.9133178  82.4260324  25.4099480  69.4827607  82.6528282  24.0256875
  75.5407682  88.8386333  32.8398499  75.6052115  89.3006741  33.6756671
  74.8318606  88.2083698  32.9680809  66.0424972  82.2027541  30.3647499
  66.2933011  83.0874551  30.6305075  66.5784521  82.0232143  29.5922590
  89.8657072  85.6341039  27.0322760  89.1120780  85.0648437  26.8766765
  90.0004613  85.6003703  27.9793395  75.2555700  90.5054441  22.7077479
  75.1201375  91.3505977  23.1362327  75.7965512  90.7073719  21.9443413
  71.7423040  76.5846021  39.3691835  71.3489985  76.0312219  40.0439479
  72.5589180  76.8956599  39.7598352  68.7085097  88.0229879  23.2805405
  69.2209618  88.8173129  23.4310969  69.3607810  87.3256169  23.2139006
  70.5179982  91.1395635  25.3628158  70.6946610  92.0613600  25.1749142
  71.3136816  90.8254054  25.7922538  74.6591001  78.0003900  36.9612091
  75.4000714  78.6011053  36.8816554  74.8908923  77.2581538  36.4030134
  69.8032339  83.1860267  35.2390321  69.6885854  82.2845524  35.5397420
  68.9476856  83.4323964  34.8875137  76.8824176  91.1278007  36.8377822
  76.4388030  90.3414386  36.5198726  77.5441390  91.3157158  36.1721712
  71.6411297  92.6573809  31.3638500  72.1918723  92.5290872  30.5915494
  70.8022773  92.9568698  31.0133393  78.9805414  91.4080807  34.8659223
  78.9623890  92.2289688  34.3739492  79.9025334  91.2834883  35.0909364
  75.4378469  88.9224937  35.7082731  75.9706805  88.1613225  35.4782039
  74.9092550  88.6298589  36.4506886  78.6048163  74.0285003  31.2376373
  78.2612433  74.9186645  31.1615484  78.9727126  73.8386660  30.3745958
  66.6734014  86.3518533  24.0564975  67.5109236  86.7615542  23.8398683
  66.8512282  85.4117975  24.0265169  78.5698446  84.0193614  19.7448808
  78.0545070  84.7898219  19.9837195  78.2975755  83.3458750  20.3681869
  76.1545557  78.8643315  24.8034046  75.2987154  78.4750165  24.6239685
  76.5672509  78.9435276  23.9433832  77.6844704  76.3989658  29.2025606
  77.1809499  76.3619793  28.3893411  77.9775311  77.3082401  29.2622263
  73.9287590  76.4828388  28.2091788  74.7940587  76.2871196  27.8497677
  73.9965099  76.2538739  29.1361145  83.5432720  86.7725969  21.6801982
  82.7662163  86.4337128  21.2357144  84.2224201  86.7778592  21.0056947
  78.3584749  81.8920706  21.5708589  78.0534885  82.2066855  22.4218732
  79.3115191  81.9702126  21.6135922  76.8031181  88.0510929  23.2201543
  76.2752543  87.3163689  22.9074781  76.3018684  88.8285606  22.9741512
  81.7824027  86.2459950  28.3368590  81.1247702  86.9359211  28.4248718
  82.5864426  86.6356382  28.6802576  71.5349909  78.7130596  25.5808155
  72.1093661  78.4905777  24.8481348  72.1220891  78.7819290  26.3336756
  80.5929486  84.6004323  26.3872531  81.1061368  85.2334314  26.8894241
  81.2430710  84.0005518  26.0215891  71.8619496  80.7435057  19.6004040
  71.0256808  81.0809743  19.9213315  71.7224266  80.6084036  18.6631177
  73.8372577  75.5871845  24.3083224  73.1836989  75.2720862  23.6839839
  73.7953051  74.9647585  25.0343047  74.9483781  85.8691140  16.2236516
  74.0410843  85.6380393  16.4227665  75.4454813  85.0728759  16.4110498
  77.0710317  82.0753778  28.6330872  76.1532878  82.2968725  28.4752560
  77.4870461  82.1500089  27.7742579  77.8545365  83.4745194  23.7633552
  78.6017184  83.9866591  23.4540674  78.1236954  83.1529246  24.6237946
  76.1272015  85.9703734  20.7460506  75.2183234  85.6862767  20.8432976
  76.1567099  86.3902813  19.8863813  81.3591282  89.5810324  24.5151674
  80.9053609  88.7401234  24.5716864  80.7285249  90.2171722  24.8526454
  80.3024202  80.5102310  25.7452341  79.5646959  79.9979696  26.0762584
  80.5550975  80.0702692  24.9335618  79.8024221  91.4186821  25.4501492
  80.0947196  91.9791878  24.7313858  80.3122842  91.7115382  26.2054651
  80.4035829  73.2878562  26.3394111  80.7094706  72.4275925  26.0520026
  81.1288434  73.8796182  26.1393105  66.6960185  83.6909249  24.7275709
  66.4984585  83.0978609  24.0026775  66.1406849  83.3861459  25.4451647
  74.6756909  83.5832355  26.8470302  74.7305519  82.6306191  26.7712778
  73.8648111  83.7391794  27.3311600  75.8248103  87.5112478  18.0848585
  75.3867533  86.7948337  17.6254222  76.5658544  87.7388593  17.5233676
  72.6149269  82.2009415  24.6060681  71.8017134  82.5003585  25.0125873
  73.1108263  81.8065104  25.3235163  74.7657847  92.1967172  26.5394945
  74.7234025  92.4228018  25.6103477  75.6820546  91.9630546  26.6880746
  78.2123480  82.6651239  33.4375574  78.5672868  82.8922712  34.2970040
  78.8595612  82.9969616  32.8152830  83.9421217  85.7869675  24.1424903
  83.8039116  85.9771271  23.2146093  83.5857436  86.5489058  24.5992955
  72.1063344  79.7727770  30.2221916  72.7462723  79.6316529  29.5244879
  71.2740874  79.4862284  29.8460517  83.9690597  87.8546202  29.1536175
  84.4027104  87.7621491  30.0019229  84.6822178  87.8303703  28.5156191
  72.8823647  89.0730201  26.3356908  73.6764246  88.5780521  26.1339483
  72.1715340  88.5448064  25.9724614  77.7018492  91.4548296  30.6869276
  77.7555514  92.0239233  31.4546991  76.8333273  91.6250181  30.3223313
  69.1906411  83.2173283  22.4116661  68.2603999  83.1557738  22.6286623
  69.2863883  82.6949235  21.6153302  69.1091960  79.7428095  24.9994902
  69.3698777  80.6573429  24.8904063  69.9309132  79.2752538  25.1491515
  70.5816885  81.1565853  32.1693727  71.2539939  80.9483215  31.5206376
  69.7546672  80.9587939  31.7298959  84.8306147  87.8969903  31.6869060
  85.0242037  88.8015713  31.9328335  84.7306765  87.4377322  32.5207645
  76.4842457  77.7827793  34.1859388  75.8370372  78.4817743  34.0923864
  77.2543473  78.2163937  34.5535636  79.8921255  88.0476646  37.2609941
  79.7406762  87.8187197  36.3440025  79.8825935  89.0047247  37.2741286
  76.6606592  85.6208558  32.2456207  77.5898652  85.7719718  32.0725175
  76.2397622  85.7092579  31.3904854  75.4594923  89.6459223  30.0154745
  75.3206009  89.2778007  30.8880683  74.6709520  90.1606862  29.8438703
  76.0543075  94.7468319  21.3580282  76.2294831  94.2756362  22.1725904
  75.3675863  95.3734085  21.5861542  77.0100139  89.0240825  27.4043583
  76.6749971  88.9841595  28.3001233  76.5104084  88.3585541  26.9313993
  70.9844383  84.4308455  32.9296164  70.8464181  83.6988694  33.5307703
  71.8949306  84.3417356  32.6480352  73.6126683  84.1428415  32.4179844
  74.3226302  83.5021607  32.3766462  73.5695991  84.3941310  33.3406024
  81.6013462  91.0795768  35.3386423  81.5426008  90.3954988  34.6717006
  82.0032980  91.8214758  34.8867049  72.3255617  81.1293633  34.2375483
  71.7892974  80.6784371  34.8897079  71.7372326  81.2639542  33.4945947
  70.6204161  97.8957682  28.1320142  70.8600759  98.5276206  28.8099160
  69.7773357  97.5445722  28.4185501  71.7357876  80.5882284  16.8001947
  70.8587342  80.4671085  16.4364193  72.2115629  79.7968362  16.5480835
  81.6030869  89.0435352  33.5700403  80.7157648  88.7061274  33.6926801
  82.1729420  88.3118383  33.8069168  63.2560016  85.3759444  26.8943454
  63.9431056  85.0621174  26.3064469  63.1008145  86.2800808  26.6210705
  68.0594738  80.2649640  31.3228478  67.9752927  79.6575310  30.5878888
  67.2377445  80.7558659  31.3237974  75.1332023  93.7036804  30.5361646
  75.0602194  94.5091776  31.0480950  74.6909416  93.9028770  29.7109667
  74.9221802  92.9408574  24.0464467  74.1389324  93.4830255  24.1402692
  75.6214547  93.4582554  24.4458708  78.2318452  78.7503204  26.6898673
  78.7287152  77.9973166  26.3699743  77.4605434  78.7867521  26.1241882
  86.0848210  84.4543569  28.3316964  86.0738086  85.3368285  27.9610897
  85.2165589  84.1015120  28.1371501  77.5930706  93.6023638  32.6919804
  78.3058678  94.2371103  32.6195706  77.1020735  93.6987504  31.8759806
  79.3148233  87.5074891  24.2637096  78.3804512  87.6276354  24.0941800
  79.4924901  86.6047358  23.9997106  74.8153421  80.8920587  26.4170357
  74.4451209  80.3391627  27.1051263  75.3112514  80.2878720  25.8645357
  82.7020784  83.3492210  24.7987130  83.1681237  84.1820202  24.7247433
  83.1528285  82.8837192  25.5032389  72.6442620  91.3518082  33.5125375
  73.3452079  91.9854565  33.6654769  72.1737735  91.6932813  32.7521014
  80.7697015  89.6936032  21.7973282  81.0456859  89.5792626  22.7067156
  79.9001514  89.2953517  21.7585455  80.6737447  75.7172797  28.8378032
  79.7600527  75.9477024  29.0060238  81.1030549  75.8011241  29.6892064
  80.4443906  83.9062689  31.3377926  79.7915356  84.1538597  30.6830378
  80.8224285  83.0926828  31.0040403  77.4051079  93.9422383  25.4406096
  77.5873474  93.1244038  25.9033848  78.2284065  94.1590075  25.0030986
  77.7393245  92.8690568  22.7021144  78.2681011  92.3583022  22.0891306
  78.0021465  92.5533098  23.5666677  76.4931479  84.6482500  37.8243963
  75.8172116  84.5476630  38.4946338  77.3159113  84.4921714  38.2879960
  68.2410338  90.8854437  30.4456478  68.8263775  90.1398125  30.5784382
  68.0435176  91.1958394  31.3293142  71.0948993  93.9205684  25.4618920
  70.4259368  94.4051812  24.9782960  70.9561863  94.1674905  26.3762299
  62.8327992  83.4560037  29.1660921  62.8712092  82.9223628  29.9598039
  62.3268285  82.9295243  28.5471898  75.2354262  95.9549428  32.0601579
  75.7872570  96.1181049  32.8250664  75.5760455  96.5453866  31.3881603
  70.2118755  78.3024578  32.6623463  70.2760081  79.1639409  32.2500861
  70.1485875  77.6898579  31.9295822  69.6871027  80.3747710  36.3096498
  70.3143066  79.9924788  36.9234022  68.8298946  80.1561912  36.6752190
  80.0865136  90.7810685  37.9150233  80.6305040  91.3940644  37.4205188
  79.5051981  91.3390264  38.4317246  66.4636570  82.1824139  22.2414852
  66.7590011  81.2734818  22.1881906  65.5624606  82.1611879  21.9195855
  78.3722649  93.9031403  29.0465261  78.2473788  93.1021143  28.5376206
  79.0301740  94.3977597  28.5579231  69.9930817  80.2580136  28.2242401
  69.2717403  80.8716104  28.0849874  70.7824073  80.7937901  28.1459047
  80.4357557  91.7040424  30.6744811  79.4887893  91.5845775  30.6023138
  80.7840330  90.8162922  30.7571072  72.7957131  77.5934562  34.4983053
  73.3191532  77.8396859  35.2609362  72.5769464  78.4254597  34.0786190
  68.1924412  79.8638237  22.3654178  67.8637118  78.9835616  22.1829284
  68.5463782  79.8085906  23.2530567  77.4403990  91.4993140  26.8749163
  77.2928953  90.5709847  27.0556733  78.2657484  91.5213230  26.3906238
  71.3066235  80.1511207  22.7329655  71.6462307  80.6797128  22.0108264
  71.7538355  80.4891613  23.5088222  81.0438112  92.3221698  27.9614036
  81.9684660  92.1164560  27.8238487  80.8753416  92.0738100  28.8703377
  74.0009676  78.5348258  32.1832723  73.6606496  77.7356071  32.5853403
  73.2948682  78.8349968  31.6109557  74.6526147  75.6197570  30.6360046
  75.4752217  75.1458048  30.5138937  74.8964211  76.3988054  31.1358733
  73.2934382  78.6485828  20.9322948  74.0142744  79.0267081  20.4286665
  72.6699686  79.3674705  21.0357926  77.4365505  79.3530977  21.8681280
  77.6529119  80.2355615  21.5670109  76.9559572  78.9617191  21.1386922
  72.1764726  82.3116691  28.4452025  72.0309307  82.6256994  29.3376306
  71.6989930  82.9301591  27.8922924  74.0361109  79.3019239  28.4932915
  74.0222678  78.4060332  28.1565212  74.7533537  79.3089902  29.1271201
  75.8887240  79.7356579  30.5386042  75.6305018  80.6573649  30.5370372
  75.3572280  79.3387013  31.2286506  80.8333429  92.8407366  23.3176127
  81.0070306  92.2753788  22.5649980  81.3262320  93.6408261  23.1355617
  66.6510388  84.8522035  31.3839686  66.1063856  85.6281843  31.5159960
  67.5289738  85.1992839  31.2258808  73.4398005  78.1833619  23.7620485
  73.5613916  77.2550265  23.9611372  73.1500047  78.1972305  22.8498800
  76.3089195  75.8688529  26.8987204  76.3310892  75.9327862  25.9439184
  76.7257254  75.0293038  27.0927711  86.6872820  85.6043789  24.9366427
  87.1303966  84.8551114  24.5385550  85.8099330  85.5953925  24.5540159
  67.4376410  83.9791931  34.2769843  66.6958146  84.1274567  34.8634473
  67.1169154  84.2400197  33.4136592  83.7200024  89.6073836  21.9460356
  84.2451348  89.9461109  21.2209676  83.6322377  88.6720851  21.7623491
  75.3820073  93.5207909  34.0750233  75.6907199  93.2757056  34.9472933
  76.1795555  93.7254548  33.5869103  75.4040685  95.6745819  26.3055610
  74.9645675  95.1822198  26.9988466  76.1548802  95.1318787  26.0647685
  67.8833024  91.8657360  26.3080238  68.7091044  91.5661132  25.9278881
  67.5327076  91.0964982  26.7570026  72.8514557  91.2183828  28.3777911
  72.2294566  90.5554533  28.0780139  73.5219424  91.2444960  27.6951559
  66.0841629  89.7843686  27.2669171  65.2473537  89.3565861  27.0853172
  66.0565274  89.9776130  28.2039962  72.9239085  79.6965616  37.9710417
  72.9727240  80.5727739  37.5888187  73.4661599  79.1543009  37.3982060
  83.4093930  90.2406739  37.2511554  82.6189474  90.2230878  36.7116054
  83.1727285  90.7795033  38.0060591  83.5291805  87.0899206  34.5644283
  83.5789810  86.9249213  35.5059806  83.4205729  86.2226465  34.1742164
  72.4128064  89.7687752  21.8536372  72.5616184  90.4523216  21.2003045
  73.2194507  89.7492842  22.3685828  80.8195568  83.0730134  35.8803590
  81.7205430  82.9336599  35.5887587  80.8943542  83.2384589  36.8201767
  75.1538373  80.4496989  34.7256776  74.2841682  80.7430555  34.4539364
  75.3897853  81.0337434  35.4464040  85.0310002  89.5096147  34.8086304
  84.7394810  89.8726128  35.6449765  84.4182133  88.7963156  34.6299636
  86.2305684  87.0749027  27.3288875  87.0652576  87.5138831  27.4926435
  86.3664813  86.5987680  26.5097120  83.2797190  84.6328762  33.2766362
  83.7551312  84.8256408  32.4685214  82.3562756  84.6887948  33.0309746
  70.1680697  85.7952929  22.8597441  69.9226739  84.8915259  23.0577651
  70.3376611  85.7970080  21.9176919  77.8577407  76.6676606  32.2422196
  78.3759351  77.4037632  31.9168685  77.5032540  76.9740599  33.0768955
  69.4376344  81.5281287  20.3583602  68.7445589  81.6025642  19.7023638
  69.1928096  80.7641630  20.8805119  78.1090001  73.0876888  27.7623093
  78.3891755  72.4200077  28.3883519  78.8940608  73.2805984  27.2497757
  81.9798859  81.5094522  31.5094668  82.9316282  81.6092620  31.5306892
  81.8102310  80.7172791  32.0192752  80.0013239  78.5950105  31.6954069
  79.4063171  78.8755118  31.0000558  79.7162935  79.0844006  32.4670810
  84.4586937  84.7300642  30.6236968  84.4263257  83.7916642  30.8096651
  85.0687561  84.8084678  29.8902793  76.2970268  83.5996695  16.6664172
  77.2429373  83.4702903  16.7352590  75.9184513  82.8611357  17.1433600
  84.6081426  81.5211685  30.6695251  84.0920474  80.7370142  30.4825180
  85.4921374  81.1930402  30.8341770  82.2692152  75.2652701  26.6291064
  82.0716974  74.9567789  27.5134395  82.8791858  75.9914340  26.7588993
  90.2763487  85.7916649  29.7643004  91.0066875  85.5301937  30.3250708
  89.6670432  85.0545371  29.8045072  88.3578784  83.9324511  30.3617456
  87.6311948  83.7980476  29.7533947  87.9426071  84.2401340  31.1674174
  76.1808960  87.6514441  38.1264829  77.1011970  87.8293040  38.3204875
  76.1458544  86.7070486  37.9744528  74.4813185  81.5246671  16.6019057
  73.5744640  81.2279784  16.6781771  74.7589166  81.2276489  15.7353343
  65.3991125  82.8453035  27.0518103  65.0793910  81.9918343  26.7592477
  64.8524554  83.0601613  27.8076071  69.1771033  85.5615476  30.7687610
  69.3957043  86.4932583  30.7875644  69.5896807  85.2023450  31.5542414
  76.0975251  76.0683561  22.7563298  75.2875979  75.7230646  23.1318544
  76.7859668  75.7591105  23.3450910  78.0265799  75.1461608  24.3787595
  78.5796838  75.5657061  25.0377618  78.2635885  74.2197356  24.4210551
  74.0498898  81.1348681  40.1590359  73.9495625  82.0843038  40.0902450
  73.8320440  80.8066920  39.2866429  73.2511970  78.3833606  16.7431036
  74.1131134  78.7088505  17.0026853  73.4362314  77.5965102  16.2304102
  65.2679385  86.4655946  29.0211225  64.5742857  86.0509899  28.5081179
  66.0152376  86.5076483  28.4244644  81.4044606  77.2562133  23.8866259
  80.8243275  77.9146937  23.5044312  81.1380539  76.4339477  23.4753677
  79.8548173  76.6567191  26.0887579  80.3547951  76.7683725  25.2801898
  80.4983780  76.3528243  26.7288388  73.9130168  84.5645820  38.9755420
  73.4297250  85.3646180  39.1819309  73.9991107  84.5753765  38.0222864
  67.1816128  86.3974200  26.8977240  67.1586816  86.4961887  25.9459123
  67.4916765  87.2439351  27.2194406  69.8403506  88.4550355  31.0123854
  70.7946759  88.4234297  30.9453786  69.6416029  87.9940979  31.8274080
  70.4302888  87.0251471  33.5794652  71.2495777  87.5195550  33.6029489
  70.7039696  86.1083439  33.5512219  80.1869484  79.4162223  22.9422607
  79.2995339  79.7011874  22.7242802  80.6023473  79.2555987  22.0949884
  83.5384020  79.4408744  26.6576947  84.3144410  79.9305197  26.9301563
  82.8132155  79.8666798  27.1148816  85.9756579  80.1536363  27.7150887
  86.5701070  79.9132099  27.0044195  86.0483163  79.4343494  28.3424424
  68.1953735  93.9969974  28.0294052  68.0608203  93.2370375  27.4632050
  67.7785797  94.7210874  27.5622841  80.1610508  84.9316759  23.1572898
  80.1045709  85.3885311  22.3180530  80.7138850  84.1707444  22.9795740
  83.9715314  80.7206491  23.9823017  83.7152248  80.3203127  24.8131225
  83.3468182  81.4350285  23.8573156  88.2827652  83.4602564  26.4894308
  87.7227210  83.5295754  27.2625870  87.6771155  83.2843549  25.7693805
  71.3522861  94.8939291  28.2412495  71.2355245  95.8384724  28.1391185
  70.5315307  94.5912853  28.6298294  80.8945287  86.1221540  20.4525427
  80.8394091  85.9565812  19.5113871  80.2691343  86.8297573  20.6087616
  65.6837802  81.3589605  34.2786849  66.3296666  80.8488559  34.7674074
  65.4754953  82.0958286  34.8530274  78.2091194  88.4270452  39.7778989
  79.0782354  88.6011105  39.4165624  77.7297946  89.2464869  39.6554719
  74.2041413  75.6229649  20.0310745  74.1920083  76.5671489  20.1879016
  75.0964835  75.4399795  19.7370206  72.3777375  95.5467553  31.4568423
  73.2804621  95.5791164  31.7734918  72.1514745  94.6168004  31.4714759
  74.1330977  94.2998540  28.1178502  73.1826608  94.3000401  28.0042874
  74.4363463  93.5531274  27.6014536  78.0193532  72.2172426  24.2856682
  77.2525928  71.6630913  24.4313364  78.4304237  72.2894295  25.1470834
  70.0235293  78.5057222  38.3761863  70.8866755  78.1494027  38.5865188
  69.4500704  78.1671117  39.0637267  86.6773376 100.0886506  29.1185789
  86.3391888  99.9727571  28.2306324  87.5463145  99.6877671  29.0986795
  87.1593159 101.2421358  35.0771994  87.1481800 100.8474156  34.2052498
  87.3213799 100.5087431  35.6705766  80.0824624 103.4373174  27.9466900
  80.8745916 103.0963999  27.5313200  80.3221274 103.5468149  28.8669054
  83.8800421 104.0258470  34.0251178  83.5890287 104.9304101  33.9097845
  84.5157405 104.0674997  34.7395248  84.8056627 101.4035318  30.6152538
  85.4020200 101.1791341  29.9009501  84.8631599 100.6620064  31.2177986
  92.3458786  91.5107339  31.6205059  92.0142111  92.3802750  31.3966274
  91.7504400  91.1943623  32.2999090  82.2902787 100.1633682  27.0537676
  81.3653284 100.0309896  27.2615368  82.5387200 100.9427901  27.5507619
  92.2387449  96.2302426  28.6998409  91.3304327  96.1617834  28.4057170
  92.1875045  96.7074370  29.5280235  79.6511598  99.8066956  27.8881466
  79.7803979 100.0601435  28.8020877  78.9709050 100.3994664  27.5686121
  86.3128315  97.6492071  36.6433307  85.5361649  98.2085991  36.6336171
  86.9518878  98.1348854  37.1648177  94.1049096  94.4318864  30.4776283
  93.4623476  94.7251397  29.8316078  93.6004024  94.3171784  31.2829480
  84.5674688 100.4577524  36.2051274  85.3089372 100.9962568  35.9286097
  83.8611673 101.0843813  36.3622825  90.0430027 102.6006665  34.8023435
  90.4513383 102.1589075  34.0578067  89.3207289 102.0259292  35.0557628
  86.3961097  97.5379272  32.1756992  87.2422292  97.9618685  32.3191641
  86.3359735  96.8812896  32.8695555  89.5460543  95.1983640  33.8338166
  89.3021474  95.9525701  33.2972441  89.8220473  95.5768988  34.6685413
  91.4999005 101.7422252  32.5115431  91.7115901 102.3854012  31.8349812
  91.4528754 100.9084569  32.0437361  89.1025234  94.3540073  29.4152003
  88.2409713  94.6521327  29.7068741  89.1287669  94.5710472  28.4833036
  83.3036051  97.6117173  37.0066584  82.6734712  98.2933453  37.2401980
  83.1972139  97.5000254  36.0619722  78.5981024  97.2788969  27.9332508
  77.8080078  97.5346497  27.4572618  79.0892271  98.0937307  28.0384548
  86.3801437 104.1678251  32.8398499  86.4445869 104.6298658  33.6756671
  85.6712361 103.5375616  32.9680809  76.8818727  97.5319459  30.3647499
  77.1326765  98.4166469  30.6305075  77.4178275  97.3524061  29.5922590
  82.5816794  91.9137938  39.3691835  82.1883740  91.3604137  40.0439479
  83.3982934  92.2248517  39.7598352  85.4984755  93.3295818  36.9612091
  86.2394468  93.9302971  36.8816554  85.7302678  92.5873455  36.4030134
  80.6426093  98.5152185  35.2390321  80.5279608  97.6137442  35.5397420
  79.7870611  98.7615882  34.8875137  86.2772223 104.2516855  35.7082731
  86.8100560 103.4905143  35.4782039  85.7486304 103.9590506  36.4506886
  89.4441918  89.3576921  31.2376373  89.1006187  90.2478562  31.1615484
  89.8120881  89.1678578  30.3745958  88.5238458  91.7281576  29.2025606
  88.0203254  91.6911711  28.3893411  88.8169065  92.6374318  29.2622263
  84.7681344  91.8120305  28.2091788  85.6334341  91.6163114  27.8497677
  84.8358853  91.5830657  29.1361145  82.3743663  94.0422513  25.5808155
  82.9487415  93.8197695  24.8481348  82.9614646  94.1111208  26.3336756
  84.6766331  90.9163762  24.3083224  84.0230743  90.6012779  23.6839839
  84.6346805  90.2939503  25.0343047  87.9104071  97.4045696  28.6330872
  86.9926633  97.6260643  28.4752560  88.3264215  97.4792006  27.7742579
  91.2429584  88.6170480  26.3394111  91.5488460  87.7567843  26.0520026
  91.9682188  89.2088100  26.1393105  77.5353940  99.0201166  24.7275709
  77.3378340  98.4270527  24.0026775  76.9800604  98.7153376  25.4451647
  85.5150663  98.9124273  26.8470302  85.5699273  97.9598109  26.7712778
  84.7041865  99.0683712  27.3311600  89.0517235  97.9943157  33.4375574
  89.4066623  98.2214630  34.2970040  89.6989366  98.3261534  32.8152830
  82.9457098  95.1019688  30.2221916  83.5856477  94.9608447  29.5244879
  82.1134629  94.8154201  29.8460517  79.9485714  95.0720013  24.9994902
  80.2092532  95.9865346  24.8904063  80.7702887  94.6044456  25.1491515
  81.4210640  96.4857770  32.1693727  82.0933693  96.2775132  31.5206376
  80.5940426  96.2879856  31.7298959  87.3236212  93.1119711  34.1859388
  86.6764127  93.8109661  34.0923864  88.0937227  93.5455855  34.5535636
  90.7315010 103.3768563  37.2609941  90.5800516 103.1479115  36.3440025
  90.7219689 104.3339165  37.2741286  87.5000346 100.9500476  32.2456207
  88.4292406 101.1011636  32.0725175  87.0791376 101.0384497  31.3904854
  81.8238137  99.7600373  32.9296164  81.6857935  99.0280612  33.5307703
  82.7343061  99.6709273  32.6480352  84.4520438  99.4720332  32.4179844
  85.1620056  98.8313525  32.3766462  84.4089746  99.7233227  33.3406024
  83.1649372  96.4585550  34.2375483  82.6286729  96.0076289  34.8897079
  82.5766080  96.5931459  33.4945947  74.0953771 100.7051362  26.8943454
  74.7824811 100.3913092  26.3064469  73.9401899 101.6092726  26.6210705
  78.8988493  95.5941558  31.3228478  78.8146682  94.9867228  30.5878888
  78.0771199  96.0850576  31.3237974  89.0712207  94.0795122  26.6898673
  89.5680906  93.3265084  26.3699743  88.2999188  94.1159438  26.1241882
  85.6547176  96.2212505  26.4170357  85.2844963  95.6683545  27.1051263
  86.1506268  95.6170638  25.8645357  83.4836374 106.6810000  33.5125375
  84.1845834 107.3146483  33.6654769  83.0131489 107.0224731  32.7521014
  91.5131202  91.0464715  28.8378032  90.5994281  91.2768942  29.0060238
  91.9424303  91.1303159  29.6892064  91.2837660  99.2354607  31.3377926
  90.6309110  99.4830515  30.6830378  91.6618040  98.4218745  31.0040403
  87.3325233  99.9774418  37.8243963  86.6565870  99.8768547  38.4946338
  88.1552867  99.8213632  38.2879960  79.0804092 106.2146355  30.4456478
  79.6657529 105.4690043  30.5784382  78.8828931 106.5250311  31.3293142
  73.6721747  98.7851955  29.1660921  73.7105846  98.2515546  29.9598039
  73.1662040  98.2587160  28.5471898  81.0512509  93.6316495  32.6623463
  81.1153836  94.4931326  32.2500861  80.9879629  93.0190497  31.9295822
  80.5264782  95.7039628  36.3096498  81.1536821  95.3216705  36.9234022
  79.6692701  95.4853830  36.6752190  80.8324572  95.5872054  28.2242401
  80.1111157  96.2008021  28.0849874  81.6217827  96.1229818  28.1459047
  83.6350885  92.9226480  34.4983053  84.1585287  93.1688777  35.2609362
  83.4163218  93.7546515  34.0786190  79.0318166  95.1930155  22.3654178
  78.7030872  94.3127534  22.1829284  79.3857537  95.1377823  23.2530567
  84.8403430  93.8640175  32.1832723  84.5000250  93.0647988  32.5853403
  84.1342436  94.1641886  31.6109557  85.4919902  90.9489488  30.6360046
  86.3145971  90.4749966  30.5138937  85.7357965  91.7279971  31.1358733
  83.0158481  97.6408608  28.4452025  82.8703061  97.9548911  29.3376306
  82.5383684  98.2593509  27.8922924  84.8754864  94.6311156  28.4932915
  84.8616432  93.7352250  28.1565212  85.5927292  94.6381820  29.1271201
  86.7280994  95.0648496  30.5386042  86.4698772  95.9865567  30.5370372
  86.1966035  94.6678931  31.2286506  77.4904143 100.1813953  31.3839686
  76.9457611 100.9573761  31.5159960  78.3683493 100.5284757  31.2258808
  87.1482950  91.1980447  26.8987204  87.1704647  91.2619780  25.9439184
  87.5651009  90.3584956  27.0927711  78.2770165  99.3083849  34.2769843
  77.5351901  99.4566484  34.8634473  77.9562909  99.5692115  33.4136592
  76.9235383 105.1135604  27.2669171  76.0867292 104.6857778  27.0853172
  76.8959029 105.3068047  28.2039962  83.7632839  95.0257534  37.9710417
  83.8120994  95.9019657  37.5888187  84.3055353  94.4834927  37.3982060
  91.6589322  98.4022052  35.8803590  92.5599185  98.2628516  35.5887587
  91.7337297  98.5676506  36.8201767  85.9932127  95.7788906  34.7256776
  85.1235437  96.0722472  34.4539364  86.2291608  96.3629351  35.4464040
  94.1190945  99.9620680  33.2766362  94.5945066 100.1548326  32.4685214
  93.1956510 100.0179865  33.0309746  88.6971161  91.9968523  32.2422196
  89.2153105  92.7329550  31.9168685  88.3426294  92.3032517  33.0768955
  88.9483755  88.4168806  27.7623093  89.2285509  87.7491995  28.3883519
  89.7334362  88.6097901  27.2497757  92.8192614  96.8386440  31.5094668
  93.7710037  96.9384537  31.5306892  92.6496064  96.0464708  32.0192752
  90.8406993  93.9242023  31.6954069  90.2456925  94.2047036  31.0000558
  90.5556690  94.4135924  32.4670810  95.4475180  96.8503603  30.6695251
  94.9314229  96.0662060  30.4825180  96.3315129  96.5222319  30.8341770
  93.1085907  90.5944618  26.6291064  92.9110728  90.2859707  27.5134395
  93.7185613  91.3206257  26.7588993  87.0202715 102.9806359  38.1264829
  87.9405724 103.1584958  38.3204875  86.9852298 102.0362404  37.9744528
  76.2384880  98.1744952  27.0518103  75.9187664  97.3210260  26.7592477
  75.6918308  98.3893530  27.8076071  80.0164788 100.8907393  30.7687610
  80.2350797 101.8224501  30.7875644  80.4290561 100.5315368  31.5542414
  88.8659554  90.4753525  24.3787595  89.4190592  90.8948979  25.0377618
  89.1029640  89.5489273  24.4210551  84.8892653  96.4640599  40.1590359
  84.7889380  97.4134956  40.0902450  84.6714195  96.1358838  39.2866429
  76.1073140 101.7947864  29.0211225  75.4136611 101.3801816  28.5081179
  76.8546131 101.8368400  28.4244644  90.6941927  91.9859108  26.0887579
  91.1941705  92.0975643  25.2801898  91.3377535  91.6820161  26.7288388
  84.7523923  99.8937738  38.9755420  84.2691005 100.6938098  39.1819309
  84.8384862  99.9045683  38.0222864  78.0209883 101.7266117  26.8977240
  77.9980571 101.8253805  25.9459123  78.3310519 102.5731268  27.2194406
  80.6797260 103.7842273  31.0123854  81.6340514 103.7526215  30.9453786
  80.4809784 103.3232896  31.8274080  81.2696643 102.3543389  33.5794652
  82.0889532 102.8487467  33.6029489  81.5433450 101.4375357  33.5512219
  76.5231557  96.6881522  34.2786849  77.1690420  96.1780476  34.7674074
  76.3148708  97.4250204  34.8530274  89.0484949 103.7562370  39.7778989
  89.9176109 103.9303022  39.4165624  88.5691700 104.5756787  39.6554719
  88.8587287  87.5464344  24.2856682  88.0919682  86.9922830  24.4313364
  89.2697992  87.6186212  25.1470834  80.8629048  93.8349139  38.3761863
  81.7260509  93.4785944  38.5865188  80.2894458  93.4963034  39.0637267
  36.7290119   6.4705137  24.6395540  37.2730023   7.0835096  24.1450495
  36.1476964   7.0284716  25.1562553  40.0518913   5.9301191  23.9756861
  39.2614457   5.9125330  23.4361360  39.8152268   6.4689485  24.7305898
  34.8516178   4.1164904  26.5024296  35.7207337   4.2905556  26.1410931
  34.3722929   4.9359321  26.3800025  46.5108653  15.8253530  15.9069571
  47.1487063  15.7060277  15.2032911  46.3929496  16.7734374  15.9657523
  43.8018143  16.9315810  21.8017301  43.7906784  16.5368608  20.9297805
  43.9638782  16.1981883  22.3951072  40.5225404  19.7152922  20.7496485
  40.2315270  20.6198553  20.6343151  41.1582388  19.7569449  21.4640555
  41.4481611  17.0929770  17.3397845  42.0445183  16.8685793  16.6254808
  41.5056582  16.3514516  17.9423293  51.4658349  13.4880217  13.8855757
  52.1983521  12.9179434  14.1193587  50.7097705  13.1001818  14.3262263
  48.9883769   7.2001791  18.3450366  48.6567094   8.0697202  18.1211581
  48.3929383   6.8838075  19.0244396  45.4815289  19.4014337  17.7446279
  45.1816012  20.3039376  17.6362086  45.1366348  19.1346520  18.5967432
  40.4636069  26.1658658  10.7117246  40.3860098  27.1166483  10.7905727
  39.8597712  25.8204530  11.3692173  42.9553299  13.3386523  23.3678613
  42.1786633  13.8980443  23.3581478  43.5943862  13.8243306  23.8893483
  50.7474079  10.1213316  17.2021590  50.1048459  10.4145849  16.5561385
  50.2429008  10.0066236  18.0074787  41.2099671  16.1471976  22.9296580
  41.9514355  16.6857020  22.6531404  40.5036656  16.7738265  23.0868132
  46.6855010  18.2901117  21.5268742  47.0938367  17.8483527  20.7823374
  45.9632272  17.7153744  21.7802935  43.0386081  13.2273724  18.9002299
  43.8847276  13.6513137  19.0436948  42.9784718  12.5707348  19.5940862
  47.0083825  18.8502307  15.2821031  46.3792688  19.0148022  14.5797099
  46.6209487  19.2643917  16.0531995  50.8873057  19.7856745  12.6365394
  50.2024095  20.1655647  12.0862428  50.9716906  20.3952072  13.3697342
  46.1885526  10.8878092  20.5583472  45.9446458  11.6420152  20.0217748
  46.4645456  11.2663440  21.3930719  48.1423989  17.4316704  19.2360738
  48.3540884  18.0748464  18.5595119  48.0953737  16.5979021  18.7682668
  39.4535868  18.1348197  15.4850879  40.0237225  18.5635465  14.8468364
  40.0443980  17.8530782  16.1835065  39.9461035  13.3011625  23.7311890
  39.3159695  13.9827905  23.9647287  39.8397122  13.1894706  22.7865029
  49.2569817  20.3088660  17.4083095  50.0787260  19.9068847  17.1265777
  49.2532219  20.2056894  18.3599211  43.0226420  19.8572703  19.5643806
  43.0870853  20.3193110  20.4001978  42.3137344  19.2270068  19.6926116
  57.3475810  16.6527408  13.7568067  56.5939518  16.0834806  13.6012071
  57.4823351  16.6190073  14.7038701  39.2241777   7.6032390  26.0937141
  38.8308723   7.0498589  26.7684786  40.0407918   7.9142969  26.4843659
  42.1409738   9.0190269  23.6857398  42.8819452   9.6197423  23.6061860
  42.3727661   8.2767907  23.1275440  37.2851076  14.2046637  21.9635628
  37.1704591  13.3031894  22.2642727  36.4295594  14.4510333  21.6120444
  44.3642914  22.1464377  23.5623128  43.9206768  21.3600756  23.2444033
  45.0260128  22.3343528  22.8967019  39.1230035  23.6760179  18.0883807
  39.6737460  23.5477242  17.3160801  38.2841511  23.9755068  17.7378700
  46.4624152  22.4267177  21.5904529  46.4442627  23.2476058  21.0984799
  47.3844072  22.3021252  21.8154671  42.9197206  19.9411306  22.4328038
  43.4525543  19.1799595  22.2027346  42.3911287  19.6484958  23.1752192
  49.2642765  17.2646319  15.0613896  48.6066439  17.9545581  15.1494025
  50.0683164  17.6542751  15.4047883  48.8410020  20.5996694  11.2396981
  48.3872347  19.7587603  11.2962171  48.2103987  21.2358092  11.5771761
  47.2842959  22.4373190  12.1746799  47.5765934  22.9978247  11.4559164
  47.7941580  22.7301751  12.9299958  42.2476584  23.2153541  13.2640252
  42.2052763  23.4414388  12.3348784  43.1639283  22.9816916  13.4126053
  45.6942218  13.6837609  20.1620881  46.0491606  13.9109082  21.0215347
  46.3414349  14.0155986  19.5398136  51.4509335  18.8732572  15.8781482
  51.8845841  18.7807861  16.7264536  52.1640916  18.8490072  15.2401498
  45.1837230  22.4734666  17.4114582  45.2374252  23.0425602  18.1792298
  44.3152011  22.6436551  17.0468619  52.3124884  18.9156272  18.4114367
  52.5060774  19.8202083  18.6573642  52.2125503  18.4563691  19.2452952
  43.9661195   8.8014163  20.9104694  43.3189110   9.5004113  20.8169171
  44.7362211   9.2350307  21.2780943  47.3739993  19.0663015  23.9855248
  47.2225499  18.8373567  23.0685331  47.3644673  20.0233617  23.9986593
  44.1425329  16.6394928  18.9701514  45.0717389  16.7906088  18.7970481
  43.7216359  16.7278949  18.1150161  42.9413661  20.6645592  16.7400052
  42.8024747  20.2964377  17.6125990  42.1528257  21.1793232  16.5684009
  44.4918876  20.0427195  14.1288889  44.1568709  20.0027965  15.0246539
  43.9922822  19.3771911  13.6559300  38.4663120  15.4494825  19.6541471
  38.3282918  14.7175064  20.2553010  39.3768044  15.3603725  19.3725658
  41.0945421  15.1614784  19.1425150  41.8045040  14.5207977  19.1011769
  41.0514729  15.4127679  20.0651331  49.0832200  22.0982138  22.0631729
  49.0244746  21.4141358  21.3962313  49.4851718  22.8401128  21.6112355
  39.8074355  12.1480002  20.9620790  39.2711712  11.6970741  21.6142386
  39.2191063  12.2825911  20.2191254  38.1022898  28.9144052  14.8565448
  38.3419497  29.5462576  15.5344467  37.2592095  28.5632092  15.1430808
  49.0849607  20.0621722  20.2945709  48.1976386  19.7247643  20.4172108
  49.6548158  19.3304753  20.5314475  42.6150760  24.7223174  17.2606952
  42.5420932  25.5278146  17.7726257  42.1728153  24.9215140  16.4354974
  42.4040540  23.9594944  10.7709774  41.6208062  24.5016624  10.8647998
  43.1033285  24.4768924  11.1704015  53.5666948  15.4729939  15.0562271
  53.5556824  16.3554654  14.6856204  52.6984327  15.1201490  14.8616808
  45.0749444  24.6210008  19.4165111  45.7877416  25.2557473  19.3441013
  44.5839473  24.7173874  18.6005113  40.1261357  22.3704452  20.2370682
  40.8270817  23.0040934  20.3900076  39.6556472  22.7119183  19.4766321
  47.9262643  14.9249059  18.0623232  47.2734094  15.1724966  17.4075685
  48.3043023  14.1113197  17.7285710  44.8869817  24.9608752  12.1651403
  45.0692212  24.1430408  12.6279155  45.7102803  25.1776444  11.7276293
  43.9750216  15.6668870  24.5489269  43.2990853  15.5662999  25.2191645
  44.7977850  15.5108084  25.0125267  35.7229075  21.9040807  17.1701785
  36.3082512  21.1584494  17.3029689  35.5253914  22.2144763  18.0538448
  38.5767731  24.9392054  12.1864227  37.9078106  25.4238182  11.7028267
  38.4380600  25.1861274  13.1007605  42.7172999  26.9735797  18.7846885
  43.2691307  27.1367419  19.5495971  43.0579193  27.5640235  18.1126910
  37.1689765  11.3934080  23.0341804  37.7961804  11.0111157  23.6479329
  36.3117684  11.1748282  23.3997497  47.5683874  21.7997055  24.6395540
  48.1123778  22.4127013  24.1450495  46.9870718  22.3576633  25.1562553
  45.8541387  24.9217773  15.7710567  45.7292526  24.1207513  15.2621513
  46.5120478  25.4163966  15.2824537  47.9176295  22.7226793  17.3990118
  46.9706630  22.6032144  17.3268444  48.2659068  21.8349291  17.4816379
  40.2775868   8.6120932  21.2228359  40.8010270   8.8583229  21.9854669
  40.0588202   9.4440967  20.8031497  44.9222728  22.5179509  13.5994470
  44.7747691  21.5896217  13.7802040  45.7476222  22.5399600  13.1151545
  48.5256850  23.3408068  14.6859343  49.4503398  23.1350929  14.5483794
  48.3572153  23.0924469  15.5948684  48.3152166  23.8593735  10.0421434
  48.4889044  23.2940158   9.2895286  48.8081058  24.6594630   9.8600924
  54.1691557  16.6230158  11.6611734  54.6122703  15.8737484  11.2630857
  53.2918068  16.6140295  11.2785466  34.9195148  14.9978301  21.0015150
  34.1776884  15.1460936  21.5879780  34.5987892  15.2586566  20.1381899
  42.8638811  24.5394279  20.7995540  43.1725937  24.2943426  21.6718239
  43.6614293  24.7440918  20.3114410  42.8859423  26.6932189  13.0300916
  42.4464413  26.2008567  13.7233773  43.6367540  26.1505156  12.7892991
  40.3333295  22.2370198  15.1023218  39.7113304  21.5740903  14.8025446
  41.0038162  22.2631330  14.4196866  40.4057822  10.7151986  24.6955724
  40.4545978  11.5914109  24.3133494  40.9480336  10.1729379  24.1227367
  50.8912668  21.2593109  23.9756861  50.1008212  21.2417248  23.4361360
  50.6546023  21.7981403  24.7305898  51.0110543  18.1085575  21.2889590
  51.0608548  17.9435583  22.2305112  50.9024466  17.2412834  20.8987470
  48.3014305  14.0916503  22.6048896  49.2024168  13.9522968  22.3132894
  48.3762280  14.2570958  23.5447074  42.6357111  11.4683358  21.4502083
  41.7660420  11.7616924  21.1784671  42.8716591  12.0523803  22.1709346
  52.5128740  20.5282517  21.5331611  52.2213548  20.8912497  22.3695072
  51.9000871  19.8149525  21.3544943  53.7124422  18.0935397  14.0534181
  54.5471314  18.5325201  14.2171742  53.8483551  17.6174050  13.2342427
  50.7615928  15.6515132  20.0011669  51.2370050  15.8442778  19.1930520
  49.8381493  15.7074317  19.7555053  45.3396145   7.6862975  18.9667503
  45.8578088   8.4224002  18.6413992  44.9851277   7.9926968  19.8014262
  49.4617597  12.5280892  18.2339975  50.4135020  12.6278989  18.2552199
  49.2921048  11.7359160  18.7438059  47.4831977   9.6136475  18.4199376
  46.8881909   9.8941488  17.7245864  47.1981673  10.1030376  19.1916117
  51.9405675  15.7487011  17.3482274  51.9081995  14.8103012  17.5341958
  52.5506299  15.8271048  16.6148099  52.0900163  12.5398055  17.3940557
  51.5739212  11.7556511  17.2070486  52.9740112  12.2116771  17.5587077
  57.7582225  16.8103018  16.4888311  58.4885613  16.5488306  17.0496014
  57.1489170  16.0731740  16.5290379  55.8397522  14.9510881  17.0862762
  55.1130685  14.8166846  16.4779254  55.4244809  15.2587709  17.8919480
  43.6627698  18.6700810  24.8510135  44.5830708  18.8479409  25.0450182
  43.6277281  17.7256856  24.6989835  36.6589771  16.5801845  17.4932916
  36.8775781  17.5118953  17.5120950  37.0715545  16.2209820  18.2787720
  41.5317636  12.1535051  26.8835665  41.4314363  13.1029408  26.8147757
  41.3139178  11.8253290  26.0111735  41.3948906  15.5832190  25.7000727
  40.9115988  16.3832550  25.9064616  41.4809845  15.5940135  24.7468171
  37.3222244  19.4736724  17.7369161  38.2765497  19.4420667  17.6699092
  37.1234767  19.0127348  18.5519387  37.9121626  18.0437840  20.3039959
  38.7314515  18.5381919  20.3274796  38.1858434  17.1269809  20.2757526
  53.4575317  11.1722733  14.4396194  54.0519808  10.9318469  13.7289502
  53.5301900  10.4529864  15.0669730  35.6772472  25.0156344  14.7539359
  35.5426940  24.2556745  14.1877357  35.2604535  25.7397244  14.2868148
  55.7646390  14.4788934  13.2139615  55.2045947  14.5482123  13.9871177
  55.1589893  14.3029918  12.4939111  38.8341598  25.9125661  14.9657801
  38.7173982  26.8571093  14.8636492  38.0134045  25.6099222  15.3543601
  45.6909932  19.4456822  26.5024296  46.5601092  19.6197474  26.1410931
  45.2116684  20.2651239  26.3800025  39.8596112  26.5653923  18.1813730
  40.7623359  26.5977533  18.4980225  39.6333483  25.6354374  18.1960066
  41.6149714  25.3184909  14.8423808  40.6645345  25.3186771  14.7288181
  41.9182201  24.5717644  14.3259843  37.5054031   9.5243591  25.1007170
  38.3685493   9.1680396  25.3110494  36.9319442   9.1857486  25.7882574
  57.3502408  31.1545448  15.9069571  57.9880818  31.0352195  15.2032911
  57.2323251  32.1026292  15.9657523  54.1592114  31.1072876  15.8431096
  53.8210626  30.9913941  14.9551630  55.0281882  30.7064041  15.8232102
  50.0178930  32.9608352  11.8327986  49.4543795  32.8698289  11.0644274
  49.9031325  32.1408257  12.3130479  54.6411897  32.2607728  21.8017301
  54.6300538  31.8660526  20.9297805  54.8032537  31.5273800  22.3951072
  47.5643362  34.4559544  14.6712207  48.3564654  34.1150369  14.2558506
  47.8040012  34.5654519  15.5914360  55.5978489  36.6279320   7.1442451
  54.9466468  37.2133400   6.7576465  56.3922851  37.1585515   7.2037489
  49.5234116  33.7168457   7.5429586  50.2964992  33.1697444   7.4042462
  49.8759515  34.5812706   7.7544047  51.3619158  35.0444839  20.7496485
  51.0709024  35.9490470  20.6343151  51.9976143  35.0861367  21.4640555
  52.2875365  32.4221688  17.3397845  52.8838937  32.1977710  16.6254808
  52.3450337  31.6806433  17.9423293  51.8600394  29.8761123   5.1748036
  52.1125914  29.3542645   4.4131499  50.9224953  29.7127269   5.2774719
  56.9043676  28.8796902  12.9822779  57.6906766  28.4616325  12.6313196
  57.1682381  29.7842994  13.1504427  57.0753754  34.3169752   7.6811436
  56.4399587  34.3904378   8.3932340  56.7451160  34.9063351   7.0030515
  62.3052104  28.8172135  13.8855757  63.0377276  28.2471352  14.1193587
  61.5491459  28.4293735  14.3262263  51.5796682  31.7789229   7.3772411
  51.4632940  31.1034133   8.0453495  51.6898942  31.2921603   6.5604564
  53.9228223  31.2399376  11.0819100  53.5586431  30.7129997  11.7932021
  54.7795339  30.8497845  10.9085585  59.8277524  22.5293709  18.3450366
  59.4960849  23.3989120  18.1211581  59.2323137  22.2129993  19.0244396
  53.5633710  26.2689276   6.0780448  53.7308113  27.1369512   6.4450919
  53.3730879  26.4316558   5.1541738  56.3209043  34.7306255  17.7446279
  56.0209767  35.6331294  17.6362086  55.9760103  34.4638438  18.5967432
  49.7721525  31.1820052  13.7782983  48.8472021  31.0496266  13.9860675
  50.0205938  31.9614271  14.2752926  59.7206187  27.2488795  15.4243716
  58.8123065  27.1804204  15.1302477  59.6693783  27.7260740  16.2525542
  53.5422931  28.7246933   7.0627115  53.4222556  29.1703984   7.9012595
  52.8475520  29.0732251   6.5040653  47.1330336  30.8253325  14.6126772
  47.2622717  31.0787804  15.5266184  46.4527787  31.4181033  14.2931427
  51.3029823  41.4950575  10.7117246  51.2253853  42.4458400  10.7905727
  50.6991467  41.1496448  11.3692173  53.7947053  28.6678441  23.3678613
  53.0180387  29.2272361  23.3581478  54.4337616  29.1535224  23.8893483
  61.5867834  25.4505233  17.2021590  60.9442214  25.7437767  16.5561385
  61.0822762  25.3358154  18.0074787  59.2407997  29.1968407   7.8907449
  60.1525853  29.4295793   7.7155147  58.7317644  29.7805451   7.3282528
  52.0493425  31.4763894  22.9296580  52.7908110  32.0148938  22.6531404
  51.3430411  32.1030183  23.0868132  57.5248765  33.6193034  21.5268742
  57.9332121  33.1775445  20.7823374  56.8026026  33.0445662  21.7802935
  53.8779835  28.5565641  18.9002299  54.7241030  28.9805055  19.0436948
  53.8178473  27.8999266  19.5940862  57.8477580  34.1794225  15.2821031
  57.2186442  34.3439939  14.5797099  57.4603242  34.5935835  16.0531995
  61.7266812  35.1148663  12.6365394  61.0417850  35.4947564  12.0862428
  61.8110661  35.7243990  13.3697342  57.0279280  26.2170010  20.5583472
  56.7840212  26.9712070  20.0217748  57.3039211  26.5955357  21.3930719
  58.9817743  32.7608622  19.2360738  59.1934638  33.4040382  18.5595119
  58.9347491  31.9270939  18.7682668  56.5843972  25.3726443  16.1397310
  55.7228451  25.6707696  16.4314048  56.6106407  25.5896842  15.2078343
  53.4005542  33.9168633  12.5471116  53.8643887  34.1956336  11.7575738
  53.1362340  33.0152078  12.3644206  50.2929623  33.4640115  15.4850879
  50.8630980  33.8927383  14.8468364  50.8837734  33.1822699  16.1835065
  52.3374428  30.0391786   9.3560681  53.0398471  30.4912829   9.8234607
  52.0055056  29.3975604   9.9840574  50.7854789  28.6303542  23.7311890
  50.1553450  29.3119823  23.9647287  50.6790877  28.5186624  22.7865029
  46.0799762  28.2975338  14.6577814  45.2898816  28.5532867  14.1817925
  46.5711009  29.1123676  14.7629855  60.0963571  35.6380577  17.4083095
  60.9181015  35.2360765  17.1265777  60.0925974  35.5348812  18.3599211
  48.0314507  28.6619917  11.6161291  47.2345670  28.7738612  12.1344787
  47.8040099  29.0006570  10.7502182  53.8620175  35.1864621  19.5643806
  53.9264607  35.6485028  20.4001978  53.1531098  34.5561986  19.6926116
  44.3637465  28.5505829  17.0892805  44.6145503  29.4352839  17.3550381
  44.8997013  28.3710430  16.3167897  68.1869564  31.9819326  13.7568067
  67.4333273  31.4126724  13.6012071  68.3217105  31.9481990  14.7038701
  53.5768192  36.8532728   9.4322786  53.4413867  37.6984264   9.8607634
  54.1178005  37.0552006   8.6688720  50.0635532  22.9324308  26.0937141
  49.6702477  22.3790507  26.7684786  50.8801672  23.2434887  26.4843659
  47.0297590  34.3708166  10.0050711  47.5422110  35.1651416  10.1556276
  47.6820302  33.6734457   9.9384313  48.8392474  37.4873923  12.0873464
  49.0159103  38.4091887  11.8994448  49.6349308  37.1732342  12.5167844
  52.9803493  24.3482187  23.6857398  53.7213206  24.9489340  23.6061860
  53.2121416  23.6059825  23.1275440  48.1244831  29.5338554  21.9635628
  48.0098346  28.6323812  22.2642727  47.2689349  29.7802251  21.6120444
  49.9623790  39.0052096  18.0883807  50.5131215  38.8769160  17.3160801
  49.1235266  39.3046985  17.7378700  53.7590961  35.2703224  22.4328038
  54.2919298  34.5091512  22.2027346  53.2305042  34.9776876  23.1752192
  56.9260656  20.3763290  17.9621680  56.5824925  21.2664932  17.8860790
  57.2939618  20.1864948  17.0991265  44.9946506  32.6996821  10.7810282
  45.8321728  33.1093829  10.5643989  45.1724774  31.7596263  10.7510476
  56.8910938  30.3671901   6.4694115  56.3757562  31.1376506   6.7082502
  56.6188247  29.6937037   7.0927176  54.4758050  25.2121602  11.5279353
  53.6199646  24.8228452  11.3484992  54.8885001  25.2913563  10.6679139
  56.0057196  22.7467945  15.9270913  55.5021992  22.7098080  15.1138718
  56.2987803  23.6560688  15.9867569  52.2500082  22.8306675  14.9337095
  53.1153079  22.6349484  14.5742984  52.3177591  22.6017027  15.8606451
  61.8645213  33.1204256   8.4047288  61.0874655  32.7815415   7.9602450
  62.5436694  33.1256879   7.7302253  56.6797242  28.2398993   8.2953896
  56.3747377  28.5545142   9.1464039  57.6327684  28.3180413   8.3381229
  55.1243673  34.3989217   9.9446850  54.5965035  33.6641976   9.6320087
  54.6231176  35.1763893   9.6986818  60.1036520  32.5938237  15.0613896
  59.4460194  33.2837498  15.1494025  60.9076919  32.9834669  15.4047883
  49.8562401  25.0608883  12.3053461  50.4306153  24.8384064  11.5726654
  50.4433384  25.1297577  13.0582063  58.9141978  30.9482610  13.1117838
  59.4273860  31.5812602  13.6139548  59.5643202  30.3483805  12.7461198
  52.1585069  21.9350132  11.0328531  51.5049481  21.6199149  10.4085146
  52.1165543  21.3125872  11.7588354  53.2696274  32.2169427   2.9481823
  52.3623335  31.9858680   3.1472972  53.7667306  31.4207046   3.1355804
  56.1764353  40.9266934   5.8678509  55.5026051  41.2298631   6.4763467
  56.5630175  41.7296014   5.5183966  55.3922809  28.4232065  15.3576178
  54.4745371  28.6447012  15.1997866  55.8082953  28.4978376  14.4987886
  56.1757857  29.8223481  10.4878859  56.9229676  30.3344878  10.1785981
  56.4449446  29.5007534  11.3483252  54.4484507  32.3182022   7.4705813
  53.5395726  32.0341055   7.5678283  54.4779591  32.7381100   6.6109120
  59.6803775  35.9288611  11.2396981  59.2266102  35.0879521  11.2962171
  59.0497741  36.5650010  11.5771761  58.6236694  26.8580597  12.4697648
  57.8859451  26.3457983  12.8007891  58.8763468  26.4180979  11.6580925
  58.1236714  37.7665108  12.1746799  58.4159688  38.3270165  11.4559164
  58.6335334  38.0593669  12.9299958  58.7248321  19.6356849  13.0639417
  59.0307198  18.7754213  12.7765332  59.4500926  20.2274469  12.8638411
  45.0172677  30.0387536  11.4521015  44.8197077  29.4456897  10.7272082
  44.4619341  29.7339746  12.1696954  52.9969401  29.9310642  13.5715608
  53.0518011  28.9784479  13.4958085  52.1860603  30.0870081  14.0556907
  54.1460595  33.8590765   4.8093892  53.7080025  33.1426624   4.3499529
  54.8871036  34.0866880   4.2478983  50.9361761  28.5487702  11.3305987
  50.1229627  28.8481873  11.7371179  51.4320755  28.1543391  12.0480469
  53.0870339  38.5445459  13.2640252  53.0446518  38.7706305  12.3348784
  54.0033038  38.3108834  13.4126053  56.5335973  29.0129527  20.1620881
  56.8885360  29.2401000  21.0215347  57.1808104  29.3447903  19.5398136
  62.2633710  32.1347962  10.8670210  62.1251608  32.3249558   9.9391399
  61.9069929  32.8967345  11.3238261  50.4275836  26.1206058  16.9467222
  51.0675215  25.9794817  16.2490185  49.5953366  25.8340571  16.5705824
  62.2903089  34.2024489  15.8781482  62.7239596  34.1099779  16.7264536
  63.0034670  34.1781990  15.2401498  51.2036140  35.4208488  13.0602215
  51.9976738  34.9258808  12.8584790  50.4927832  34.8926351  12.6969920
  56.0230984  37.8026584  17.4114582  56.0768006  38.3717520  18.1792298
  55.1545766  37.9728469  17.0468619  47.5118903  29.5651570   9.1361967
  46.5816491  29.5036025   9.3531929  47.6076375  29.0427523   8.3398609
  47.4304452  26.0906383  11.7240209  47.6911270  27.0051716  11.6149369
  48.2521625  25.6230825  11.8736822  48.9029378  27.5044140  18.8939033
  49.5752431  27.2961502  18.2451682  48.0759164  27.3066226  18.4544266
  63.1518639  34.2448190  18.4114367  63.3454529  35.1494001  18.6573642
  63.0519257  33.7855609  19.2452952  54.8054950  24.1306081  20.9104694
  54.1582865  24.8296030  20.8169171  55.5755965  24.5642225  21.2780943
  58.2133748  34.3954933  23.9855248  58.0619254  34.1665485  23.0685331
  58.2038427  35.3525534  23.9986593  54.9819084  31.9686846  18.9701514
  55.9111144  32.1198005  18.7970481  54.5610114  32.0570866  18.1150161
  53.7807416  35.9937510  16.7400052  53.6418501  35.6256294  17.6125990
  52.9922012  36.5085149  16.5684009  54.3755568  41.0946606   8.0825588
  54.5507323  40.6234650   8.8971211  53.6888356  41.7212373   8.3106849
  55.3312631  35.3719113  14.1288889  54.9962463  35.3319883  15.0246539
  54.8316577  34.7063829  13.6559300  49.3056875  30.7786743  19.6541471
  49.1676673  30.0466982  20.2553010  50.2161798  30.6895643  19.3725658
  58.2671823  32.7175147   4.4025949  57.6500993  31.9921975   4.3059002
  57.7988311  33.4784507   4.0593023  51.9339176  30.4906702  19.1425150
  52.6438794  29.8499894  19.1011769  51.8908484  30.7419597  20.0651331
  50.6468109  27.4771920  20.9620790  50.1105467  27.0262658  21.6142386
  50.0584818  27.6117829  20.2191254  48.9416653  44.2435969  14.8565448
  49.1813251  44.8754493  15.5344467  48.0985849  43.8924009  15.1430808
  59.9243361  35.3913639  20.2945709  59.0370140  35.0539561  20.4172108
  60.4941913  34.6596671  20.5314475  41.5772509  31.7237731  13.6188761
  42.2643548  31.4099461  13.0309776  41.4220637  32.6279096  13.3456012
  46.3807231  26.6127928  18.0473784  46.2965419  26.0053597  17.3124194
  45.5589937  27.1036946  18.0483281  53.4544515  40.0515092  17.2606952
  53.3814686  40.8570063  17.7726257  53.0121908  40.2507058  16.4354974
  53.2434294  39.2886862  10.7709774  52.4601816  39.8308542  10.8647998
  53.9427040  39.8060841  11.1704015  56.5530945  25.0981491  13.4143979
  57.0499644  24.3451453  13.0945050  55.7817926  25.1345808  12.8487189
  64.4060702  30.8021857  15.0562271  64.3950578  31.6846572  14.6856204
  63.5378081  30.4493408  14.8616808  55.9143198  39.9501926  19.4165111
  56.6271171  40.5849391  19.3441013  55.4233227  40.0465792  18.6005113
  57.6360725  33.8553178  10.9882403  56.7017004  33.9754641  10.8187107
  57.8137394  32.9525645  10.7242413  53.1365913  27.2398874  13.1415664
  52.7663701  26.6869915  13.8296569  53.6325006  26.6357008  12.5890664
  61.0233277  29.6970498  11.5232437  61.4893729  30.5298489  11.4492740
  61.4740777  29.2315479  12.2277695  50.9655112  37.6996369  20.2370682
  51.6664571  38.3332852  20.3900076  50.4950227  38.0411101  19.4766321
  59.0909508  36.0414319   8.5218589  59.3669352  35.9270914   9.4312463
  58.2214006  35.6431804   8.4830762  58.9949939  22.0651085  15.5623338
  58.0813019  22.2955312  15.7305545  59.4243041  22.1489529  16.4137371
  58.7656398  30.2540977  18.0623232  58.1127848  30.5016884  17.4075685
  59.1436778  29.4405115  17.7285710  55.7263572  40.2900670  12.1651403
  55.9085966  39.4722326  12.6279155  56.5496558  40.5068362  11.7276293
  56.0605737  39.2168855   9.4266451  56.5893504  38.7061310   8.8136613
  56.3233957  38.9011385  10.2911984  54.8143971  30.9960788  24.5489269
  54.1384608  30.8954917  25.2191645  55.6371605  30.8400001  25.0125267
  46.5622830  37.2332724  17.1701785  47.1476267  36.4876412  17.3029689
  46.3647668  37.5436681  18.0538448  49.4161485  40.2683972  12.1864227
  48.7471860  40.7530099  11.7028267  49.2774355  40.5153192  13.1007605
  41.1540485  29.8038324  15.8906228  41.1924584  29.2701915  16.6843346
  40.6480778  29.2773530  15.2717205  53.5566754  42.3027715  18.7846885
  54.1085062  42.4659337  19.5495971  53.8972947  42.8932153  18.1126910
  48.5331247  24.6502865  19.3868770  48.5972573  25.5117696  18.9746168
  48.4698367  24.0376867  18.6541129  48.0083520  26.7225997  23.0341804
  48.6355558  26.3403075  23.6479329  47.1511438  26.5040199  23.3997497
  44.7849062  28.5302427   8.9660159  45.0802503  27.6213105   8.9127213
  43.8837098  28.5090166   8.6441161  56.6935141  40.2509691  15.7710567
  56.5686281  39.4499431  15.2621513  57.3514232  40.7455884  15.2824537
  48.3143309  26.6058423  14.9487708  47.5929895  27.2194391  14.8095181
  49.1036565  27.1416188  14.8704354  58.7570049  38.0518711  17.3990118
  57.8100385  37.9324062  17.3268444  59.1052823  37.1641209  17.4816379
  51.1169623  23.9412850  21.2228359  51.6404025  24.1875146  21.9854669
  50.8981956  24.7732884  20.8031497  46.5136904  26.2116524   9.0899484
  46.1849610  25.3313903   8.9074590  46.8676275  26.1564193   9.9775873
  55.7616483  37.8471427  13.5994470  55.6141445  36.9188134  13.7802040
  56.5869976  37.8691518  13.1151545  49.6278727  26.4989494   9.4574962
  49.9674800  27.0275415   8.7353570  50.0750847  26.8369900  10.2333528
  59.3650605  38.6699986  14.6859343  60.2897152  38.4642847  14.5483794
  59.1965908  38.4216387  15.5948684  52.3222168  24.8826545  18.9078030
  51.9818988  24.0834358  19.3098710  51.6161174  25.1828256  18.3354863
  52.9738640  21.9675857  17.3605353  53.7964709  21.4936335  17.2384243
  53.2176703  22.7466341  17.8604039  51.6146874  24.9964116   7.6568255
  52.3355237  25.3745368   7.1531972  50.9912178  25.7152992   7.7603233
  55.7577997  25.7009265   8.5926587  55.9741611  26.5833902   8.2915415
  55.2772064  25.3095478   7.8632229  50.4977218  28.6594978  15.1697332
  50.3521799  28.9735281  16.0621613  50.0202422  29.2779878  14.6168230
  52.3573601  25.6497526  15.2178221  52.3435170  24.7538619  14.8810519
  53.0746029  25.6568190  15.8516507  54.2099732  26.0834866  17.2631349
  53.9517510  27.0051937  17.2615679  53.6784772  25.6865301  17.9531813
  59.1545921  39.1885653  10.0421434  59.3282798  38.6232076   9.2895286
  59.6474812  39.9886548   9.8600924  44.9722881  31.2000322  18.1084993
  44.4276349  31.9760130  18.2405267  45.8502230  31.5471127  17.9504114
  51.7610497  24.5311906  10.4865791  51.8826408  23.6028552  10.6856679
  51.4712540  24.5450592   9.5744107  54.6301688  22.2166817  13.6232511
  54.6523384  22.2806150  12.6684491  55.0469747  21.3771325  13.8173017
  65.0085312  31.9522076  11.6611734  65.4516458  31.2029401  11.2630857
  64.1311822  31.9432212  11.2785466  60.1421093  38.5052418   7.1418332
  60.8371998  39.1259110   7.3605647  60.4844243  37.6547769   7.4170710
  45.7588902  30.3270218  21.0015150  45.0170638  30.4752854  21.5879780
  45.4381647  30.5878484  20.1381899  62.0412516  35.9552123   8.6705663
  62.5663840  36.2939396   7.9454983  61.9534869  35.0199138   8.4868798
  53.7032565  39.8686197  20.7995540  54.0119692  39.6235343  21.6718239
  54.5008047  40.0732835  20.3114410  53.7253177  42.0224106  13.0300916
  53.2858167  41.5300485  13.7233773  54.4761294  41.4797074  12.7892991
  46.2045516  38.2135647  13.0325544  47.0303536  37.9139419  12.6524188
  45.8539568  37.4443270  13.4815333  51.1727049  37.5662115  15.1023218
  50.5507059  36.9032820  14.8025446  51.8431916  37.5923247  14.4196866
  44.4054121  36.1321974  13.9914478  43.5686029  35.7044148  13.8098479
  44.3777767  36.3254417  14.9285269  51.2451577  26.0443903  24.6955724
  51.2939732  26.9206026  24.3133494  51.7874091  25.5021297  24.1227367
  61.8504298  33.4377493  21.2889590  61.9002302  33.2727501  22.2305112
  61.7418221  32.5704752  20.8987470  50.7340556  36.1166039   8.5781678
  50.8828677  36.8001503   7.9248351  51.5407000  36.0971129   9.0931134
  59.1408060  29.4208421  22.6048896  60.0417923  29.2814886  22.3132894
  59.2156034  29.5862876  23.5447074  53.4750865  26.7975276  21.4502083
  52.6054175  27.0908842  21.1784671  53.7110346  27.3815721  22.1709346
  64.5518177  33.4227314  14.0534181  65.3865068  33.8617118  14.2171742
  64.6877305  32.9465968  13.2342427  61.6009683  30.9807049  20.0011669
  62.0763804  31.1734696  19.1930520  60.6775248  31.0366235  19.7555053
  48.4893189  32.1431216   9.5842747  48.2439231  31.2393546   9.7822957
  48.6589104  32.1448367   8.6422225  56.1789899  23.0154893  18.9667503
  56.6971843  23.7515920  18.6413992  55.8245032  23.3218886  19.8014262
  56.4302493  19.4355175  14.4868400  56.7104247  18.7678364  15.1128826
  57.2153100  19.6284271  13.9743063  54.2335962  38.6114169   6.0493426
  53.6609929  39.2304356   5.5963898  54.8068755  39.1613531   6.5833348
  60.3011352  27.8572809  18.2339975  61.2528774  27.9570907  18.2552199
  60.1314802  27.0651078  18.7438059  58.3225731  24.9428393  18.4199376
  57.7275663  25.2233405  17.7245864  58.0375428  25.4322293  19.1916117
  57.4533222  38.8951319   7.1802008  58.3863895  38.8296881   7.3834884
  57.3656434  39.7307586   6.7216541  60.0821238  38.2117190   4.1405956
  60.0034870  37.8777053   5.0341714  60.9030905  38.7038958   4.1397428
  62.7799429  31.0778929  17.3482274  62.7475749  30.1394930  17.5341958
  63.3900053  31.1562966  16.6148099  54.6182760  29.9474982   3.3909478
  55.5641865  29.8181190   3.4597896  54.2397005  29.2089644   3.8678907
  62.9293918  27.8689972  17.3940557  62.4132966  27.0848429  17.2070486
  63.8133866  27.5408689  17.5587077  60.5904645  21.6130988  13.3536370
  60.3929466  21.3046076  14.2379702  61.2004350  22.3392627  13.4834300
  68.5975979  32.1394936  16.4888311  69.3279368  31.8780224  17.0496014
  67.9882925  31.4023658  16.5290379  66.6791276  30.2802798  17.0862762
  65.9524440  30.1458763  16.4779254  66.2638563  30.5879627  17.8919480
  54.5021453  33.9992728  24.8510135  55.4224462  34.1771327  25.0450182
  54.4671036  33.0548773  24.6989835  43.7203618  29.1931322  13.7763410
  43.4006402  28.3396630  13.4837784  43.1737046  29.4079900  14.5321377
  47.4983525  31.9093763  17.4932916  47.7169535  32.8410871  17.5120950
  47.9109299  31.5501737  18.2787720  54.4187743  22.4161848   9.4808605
  53.6088471  22.0708933   9.8563851  55.1072160  22.1069392  10.0696216
  56.3478291  21.4939895  11.1032902  56.9009330  21.9135348  11.7622925
  56.5848378  20.5675643  11.1455858  52.3711391  27.4826969  26.8835665
  52.2708118  28.4321325  26.8147757  52.1532933  27.1545207  26.0111735
  43.5891878  32.8134233  15.7456532  42.8955349  32.3988186  15.2326486
  44.3364869  32.8554770  15.1489950  59.7257098  23.6040420  10.6111566
  59.1455768  24.2625224  10.2289618  59.4593031  22.7817765  10.1998983
  58.1760665  23.0045478  12.8132886  58.6760443  23.1162012  12.0047205
  58.8196273  22.7006531  13.4533695  52.2342661  30.9124107  25.7000727
  51.7509742  31.7124467  25.9064616  52.3203600  30.9232052  24.7468171
  45.5028620  32.7452487  13.6222546  45.4799308  32.8440174  12.6704430
  45.8129257  33.5917638  13.9439713  48.1615998  34.8028642  17.7369161
  49.1159252  34.7712584  17.6699092  47.9628522  34.3419266  18.5519387
  48.7515380  33.3729758  20.3039959  49.5708269  33.8673837  20.3274796
  49.0252188  32.4561726  20.2757526  58.5081976  25.7640510   9.6667914
  57.6207832  26.0490161   9.4488109  58.9235966  25.6034274   8.8195191
  61.8596513  25.7887031  13.3822253  62.6356903  26.2783484  13.6546870
  61.1344647  26.2145086  13.8394123  64.2969071  26.5014651  14.4396194
  64.8913562  26.2610387  13.7289502  64.3695655  25.7821781  15.0669730
  46.5166227  40.3448262  14.7539359  46.3820695  39.5848662  14.1877357
  46.0998289  41.0689161  14.2868148  57.6525190  35.5285185   3.7615934
  58.3561040  35.7335188   4.3773590  56.9287839  36.0961947   4.0265018
  58.4823000  31.2795046   9.8818204  58.4258202  31.7363598   9.0425837
  59.0351343  30.5185731   9.7041047  62.2927806  27.0684778  10.7068324
  62.0364740  26.6681414  11.5376531  61.6680674  27.7828572  10.5818463
  66.6040144  29.8080851  13.2139615  66.0439702  29.8774041  13.9871177
  65.9983647  29.6321836  12.4939111  49.6735353  41.2417579  14.9657801
  49.5567737  42.1863011  14.8636492  48.8527799  40.9391140  15.3543601
  59.5611887  35.9667714   5.8114394  60.3957491  35.5348913   5.6291869
  59.3996230  35.7949728   6.7391289  59.2157780  32.4699828   7.1770733
  59.1606583  32.3044099   6.2359177  58.5903835  33.1775861   7.3332923
  44.0050295  27.7067892  21.0032156  44.6509158  27.1966846  21.4919381
  43.7967446  28.4436574  21.5775581  50.6989867  41.8945840  18.1813730
  51.6017114  41.9269451  18.4980225  50.4727237  40.9646291  18.1960066
  52.4543469  40.6476827  14.8423808  51.5039100  40.6478689  14.7288181
  52.7575955  39.9009562  14.3259843  56.3406024  18.5650713  11.0101989
  55.5738420  18.0109200  11.1558671  56.7516729  18.6372582  11.8716140
  48.3447786  24.8535509  25.1007170  49.2079247  24.4972314  25.3110494
  47.7713196  24.5149404  25.7882574  68.1896162  46.4837365  15.9069571
  68.8274572  46.3644113  15.2032911  68.0717005  47.4318209  15.9657523
  64.9985869  46.4364794  15.8431096  64.6604380  46.3205858  14.9551630
  65.8675637  46.0355959  15.8232102  60.8572684  48.2900270  11.8327986
  60.2937550  48.1990207  11.0644274  60.7425079  47.4700174  12.3130479
  58.4037116  49.7851462  14.6712207  59.1958408  49.4442286  14.2558506
  58.6433767  49.8946437  15.5914360  66.4372243  51.9571238   7.1442451
  65.7860223  52.5425318   6.7576465  67.2316606  52.4877433   7.2037489
  60.3627870  49.0460375   7.5429586  61.1358746  48.4989362   7.4042462
  60.7153269  49.9104624   7.7544047  62.2012913  50.3736757  20.7496485
  61.9102779  51.2782388  20.6343151  62.8369897  50.4153285  21.4640555
  63.1269120  47.7513606  17.3397845  63.7232692  47.5269628  16.6254808
  63.1844091  47.0098351  17.9423293  62.6994148  45.2053041   5.1748036
  62.9519669  44.6834562   4.4131499  61.7618707  45.0419186   5.2774719
  67.7437431  44.2088819  12.9822779  68.5300520  43.7908242  12.6313196
  68.0076135  45.1134911  13.1504427  67.9147508  49.6461670   7.6811436
  67.2793341  49.7196296   8.3932340  67.5844915  50.2355268   7.0030515
  73.1445858  44.1464052  13.8855757  73.8771030  43.5763269  14.1193587
  72.3885214  43.7585653  14.3262263  62.4190437  47.1081147   7.3772411
  62.3026695  46.4326050   8.0453495  62.5292697  46.6213521   6.5604564
  64.7621978  46.5691294  11.0819100  64.3980185  46.0421915  11.7932021
  65.6189094  46.1789763  10.9085585  64.4027465  41.5981194   6.0780448
  64.5701867  42.4661430   6.4450919  64.2124634  41.7608475   5.1541738
  67.1602798  50.0598173  17.7446279  66.8603521  50.9623211  17.6362086
  66.8153857  49.7930356  18.5967432  60.6115279  46.5111969  13.7782983
  59.6865776  46.3788184  13.9860675  60.8599693  47.2906189  14.2752926
  70.5599942  42.5780713  15.4243716  69.6516819  42.5096121  15.1302477
  70.5087538  43.0552658  16.2525542  64.3816686  44.0538851   7.0627115
  64.2616311  44.4995902   7.9012595  63.6869274  44.4024169   6.5040653
  57.9724090  46.1545243  14.6126772  58.1016472  46.4079722  15.5266184
  57.2921542  46.7472951  14.2931427  62.1423578  56.8242493  10.7117246
  62.0647607  57.7750318  10.7905727  61.5385221  56.4788365  11.3692173
  72.4261588  40.7797151  17.2021590  71.7835968  41.0729684  16.5561385
  71.9216517  40.6650071  18.0074787  70.0801752  44.5260324   7.8907449
  70.9919608  44.7587711   7.7155147  69.5711399  45.1097369   7.3282528
  64.7173590  43.8857559  18.9002299  65.5634785  44.3096972  19.0436948
  64.6572227  43.2291183  19.5940862  68.6871334  49.5086143  15.2821031
  68.0580197  49.6731857  14.5797099  68.2996996  49.9227752  16.0531995
  72.5660566  50.4440581  12.6365394  71.8811604  50.8239482  12.0862428
  72.6504415  51.0535907  13.3697342  69.8211498  48.0900540  19.2360738
  70.0328393  48.7332300  18.5595119  69.7741246  47.2562856  18.7682668
  64.2399296  49.2460551  12.5471116  64.7037642  49.5248254  11.7575738
  63.9756094  48.3443995  12.3644206  61.1323377  48.7932032  15.4850879
  61.7024734  49.2219301  14.8468364  61.7231489  48.5114617  16.1835065
  63.1768182  45.3683703   9.3560681  63.8792225  45.8204747   9.8234607
  62.8448811  44.7267522   9.9840574  56.9193516  43.6267256  14.6577814
  56.1292570  43.8824784  14.1817925  57.4104763  44.4415594  14.7629855
  70.9357326  50.9672495  17.4083095  71.7574769  50.5652682  17.1265777
  70.9319728  50.8640729  18.3599211  58.8708261  43.9911835  11.6161291
  58.0739425  44.1030529  12.1344787  58.6433854  44.3298487  10.7502182
  55.2031219  43.8797746  17.0892805  55.4539257  44.7644756  17.3550381
  55.7390767  43.7002348  16.3167897  79.0263319  47.3111244  13.7568067
  78.2727027  46.7418642  13.6012071  79.1610860  47.2773908  14.7038701
  64.4161947  52.1824646   9.4322786  64.2807621  53.0276182   9.8607634
  64.9571759  52.3843924   8.6688720  57.8691344  49.7000084  10.0050711
  58.3815865  50.4943334  10.1556276  58.5214057  49.0026374   9.9384313
  59.6786229  52.8165840  12.0873464  59.8552857  53.7383805  11.8994448
  60.4743062  52.5024259  12.5167844  60.8017544  54.3344014  18.0883807
  61.3524969  54.2061077  17.3160801  59.9629020  54.6338903  17.7378700
  55.8340261  48.0288738  10.7810282  56.6715483  48.4385747  10.5643989
  56.0118529  47.0888180  10.7510476  67.7304693  45.6963819   6.4694115
  67.2151316  46.4668423   6.7082502  67.4582001  45.0228955   7.0927176
  65.3151804  40.5413520  11.5279353  64.4593400  40.1520370  11.3484992
  65.7278756  40.6205480  10.6679139  63.0893837  38.1598593  14.9337095
  63.9546833  37.9641401  14.5742984  63.1571345  37.9308944  15.8606451
  72.7038967  48.4496174   8.4047288  71.9268410  48.1107333   7.9602450
  73.3830448  48.4548797   7.7302253  67.5190996  43.5690911   8.2953896
  67.2141132  43.8837060   9.1464039  68.4721438  43.6472331   8.3381229
  65.9637428  49.7281134   9.9446850  65.4358790  48.9933894   9.6320087
  65.4624931  50.5055811   9.6986818  70.9430274  47.9230155  15.0613896
  70.2853948  48.6129416  15.1494025  71.7470673  48.3126587  15.4047883
  60.6956156  40.3900801  12.3053461  61.2699907  40.1675982  11.5726654
  61.2827138  40.4589495  13.0582063  69.7535733  46.2774527  13.1117838
  70.2667615  46.9104519  13.6139548  70.4036957  45.6775723  12.7461198
  61.0225743  42.4205262   6.3249347  60.1863055  42.7579948   6.6458621
  60.8830512  42.2854241   5.3876484  62.9978823  37.2642049  11.0328531
  62.3443236  36.9491067  10.4085146  62.9559297  36.6417790  11.7588354
  64.1090028  47.5461345   2.9481823  63.2017090  47.3150598   3.1472972
  64.6061060  46.7498964   3.1355804  67.0158107  56.2558852   5.8678509
  66.3419806  56.5590548   6.4763467  67.4023929  57.0587932   5.5183966
  66.2316564  43.7523983  15.3576178  65.3139125  43.9738930  15.1997866
  66.6476707  43.8270293  14.4987886  67.0151611  45.1515399  10.4878859
  67.7623430  45.6636796  10.1785981  67.2843201  44.8299451  11.3483252
  65.2878262  47.6473939   7.4705813  64.3789481  47.3632972   7.5678283
  65.3173345  48.0673018   6.6109120  70.5197529  51.2580529  11.2396981
  70.0659856  50.4171439  11.2962171  69.8891496  51.8941927  11.5771761
  69.4630449  42.1872515  12.4697648  68.7253205  41.6749901  12.8007891
  69.7157222  41.7472897  11.6580925  68.9630468  53.0957026  12.1746799
  69.2553443  53.6562083  11.4559164  69.4729089  53.3885587  12.9299958
  69.5642076  34.9648767  13.0639417  69.8700953  34.1046130  12.7765332
  70.2894681  35.5566387  12.8638411  55.8566432  45.3679454  11.4521015
  55.6590832  44.7748814  10.7272082  55.3013096  45.0631664  12.1696954
  63.8363156  45.2602560  13.5715608  63.8911765  44.3076396  13.4958085
  63.0254358  45.4161999  14.0556907  64.9854349  49.1882683   4.8093892
  64.5473779  48.4718542   4.3499529  65.7264790  49.4158798   4.2478983
  61.7755516  43.8779620  11.3305987  60.9623381  44.1773790  11.7371179
  62.2714510  43.4835309  12.0480469  63.9264093  53.8737377  13.2640252
  63.8840272  54.0998223  12.3348784  64.8426792  53.6400751  13.4126053
  73.1027464  47.4639880  10.8670210  72.9645363  47.6541476   9.9391399
  72.7463683  48.2259263  11.3238261  61.2669590  41.4497975  16.9467222
  61.9068970  41.3086734  16.2490185  60.4347121  41.1632489  16.5705824
  73.1296844  49.5316407  15.8781482  73.5633350  49.4391696  16.7264536
  73.8428424  49.5073908  15.2401498  62.0429894  50.7500406  13.0602215
  62.8370493  50.2550726  12.8584790  61.3321587  50.2218269  12.6969920
  66.8624739  53.1318501  17.4114582  66.9161761  53.7009438  18.1792298
  65.9939520  53.3020386  17.0468619  58.3512658  44.8943487   9.1361967
  57.4210246  44.8327943   9.3531929  58.4470130  44.3719440   8.3398609
  58.2698207  41.4198300  11.7240209  58.5305024  42.3343634  11.6149369
  59.0915379  40.9522743  11.8736822  73.9912393  49.5740108  18.4114367
  74.1848283  50.4785918  18.6573642  73.8913012  49.1147527  19.2452952
  65.8212838  47.2978763  18.9701514  66.7504898  47.4489923  18.7970481
  65.4003868  47.3862784  18.1150161  64.6201170  51.3229428  16.7400052
  64.4812256  50.9548212  17.6125990  63.8315766  51.8377067  16.5684009
  65.2149322  56.4238524   8.0825588  65.3901078  55.9526567   8.8971211
  64.5282110  57.0504290   8.3106849  66.1706385  50.7011030  14.1288889
  65.8356218  50.6611800  15.0246539  65.6710331  50.0355746  13.6559300
  69.1065577  48.0467065   4.4025949  68.4894748  47.3213893   4.3059002
  68.6382065  48.8076425   4.0593023  59.7810407  59.5727887  14.8565448
  60.0207006  60.2046411  15.5344467  58.9379604  59.2215927  15.1430808
  60.8964123  42.2652489   3.5247253  60.0193589  42.1441290   3.1609500
  61.3721876  41.4738567   3.2726142  52.4166263  47.0529649  13.6188761
  53.1037303  46.7391379  13.0309776  52.2614392  47.9571013  13.3456012
  57.2200985  41.9419845  18.0473784  57.1359174  41.3345515  17.3124194
  56.3983692  42.4328864  18.0483281  64.2938269  55.3807009  17.2606952
  64.2208441  56.1861981  17.7726257  63.8515662  55.5798975  16.4354974
  64.0828049  54.6178779  10.7709774  63.2995571  55.1600460  10.8647998
  64.7820794  55.1352759  11.1704015  67.3924699  40.4273409  13.4143979
  67.8893399  39.6743371  13.0945050  66.6211681  40.4637726  12.8487189
  75.2454456  46.1313774  15.0562271  75.2344333  47.0138490  14.6856204
  74.3771836  45.7785325  14.8616808  68.4754480  49.1845096  10.9882403
  67.5410759  49.3046559  10.8187107  68.6531148  48.2817563  10.7242413
  63.9759668  42.5690792  13.1415664  63.6057455  42.0161832  13.8296569
  64.4718760  41.9648925  12.5890664  71.8627031  45.0262415  11.5232437
  72.3287483  45.8590407  11.4492740  72.3134532  44.5607397  12.2277695
  61.8048866  53.0288287  20.2370682  62.5058326  53.6624770  20.3900076
  61.3343981  53.3703018  19.4766321  69.9303262  51.3706237   8.5218589
  70.2063106  51.2562831   9.4312463  69.0607761  50.9723721   8.4830762
  69.8343694  37.3943002  15.5623338  68.9206774  37.6247229  15.7305545
  70.2636795  37.4781446  16.4137371  69.6050152  45.5832894  18.0623232
  68.9521603  45.8308802  17.4075685  69.9830532  44.7697032  17.7285710
  66.5657326  55.6192587  12.1651403  66.7479721  54.8014243  12.6279155
  67.3890312  55.8360280  11.7276293  66.8999492  54.5460773   9.4266451
  67.4287258  54.0353227   8.8136613  67.1627711  54.2303303  10.2911984
  57.4016584  52.5624642  17.1701785  57.9870021  51.8168330  17.3029689
  57.2041423  52.8728599  18.0538448  60.2555240  55.5975889  12.1864227
  59.5865615  56.0822017  11.7028267  60.1168109  55.8445110  13.1007605
  51.9934239  45.1330242  15.8906228  52.0318339  44.5993833  16.6843346
  51.4874532  44.6065448  15.2717205  55.6242817  43.8594344   8.9660159
  55.9196258  42.9505023   8.9127213  54.7230853  43.8382084   8.6441161
  67.5328896  55.5801608  15.7710567  67.4080035  54.7791348  15.2621513
  68.1907987  56.0747802  15.2824537  59.1537064  41.9350341  14.9487708
  58.4323650  42.5486309  14.8095181  59.9430320  42.4708106  14.8704354
  69.5963804  53.3810628  17.3990118  68.6494139  53.2615980  17.3268444
  69.9446577  52.4933126  17.4816379  57.3530658  41.5408442   9.0899484
  57.0243365  40.6605821   8.9074590  57.7070029  41.4856111   9.9775873
  66.6010237  53.1763345  13.5994470  66.4535200  52.2480052  13.7802040
  67.4263731  53.1983435  13.1151545  60.4672482  41.8281412   9.4574962
  60.8068554  42.3567333   8.7353570  60.9144602  42.1661818  10.2333528
  70.2044359  53.9991903  14.6859343  71.1290907  53.7934765  14.5483794
  70.0359662  53.7508305  15.5948684  62.4540629  40.3256033   7.6568255
  63.1748991  40.7037286   7.1531972  61.8305933  41.0444910   7.7603233
  66.5971752  41.0301182   8.5926587  66.8135366  41.9125820   8.2915415
  66.1165819  40.6387396   7.8632229  61.3370973  43.9886896  15.1697332
  61.1915554  44.3027199  16.0621613  60.8596177  44.6071796  14.6168230
  63.1967356  40.9789443  15.2178221  63.1828925  40.0830537  14.8810519
  63.9139784  40.9860107  15.8516507  69.9939675  54.5177571  10.0421434
  70.1676553  53.9523993   9.2895286  70.4868567  55.3178466   9.8600924
  55.8116635  46.5292240  18.1084993  55.2670103  47.3052048  18.2405267
  56.6895985  46.8763044  17.9504114  62.6004252  39.8603824  10.4865791
  62.7220163  38.9320470  10.6856679  62.3106294  39.8742510   9.5744107
  65.4695442  37.5458734  13.6232511  65.4917139  37.6098067  12.6684491
  65.8863501  36.7063243  13.8173017  75.8479066  47.2813994  11.6611734
  76.2910212  46.5321319  11.2630857  74.9705577  47.2724130  11.2785466
  70.9814848  53.8344335   7.1418332  71.6765752  54.4551028   7.3605647
  71.3237998  52.9839686   7.4170710  56.5982657  45.6562136  21.0015150
  55.8564393  45.8044772  21.5879780  56.2775401  45.9170402  20.1381899
  72.8806271  51.2844041   8.6705663  73.4057595  51.6231314   7.9454983
  72.7928623  50.3491056   8.4868798  64.5646932  57.3516024  13.0300916
  64.1251922  56.8592403  13.7233773  65.3155049  56.8088992  12.7892991
  57.0439271  53.5427565  13.0325544  57.8697291  53.2431337  12.6524188
  56.6933323  52.7735187  13.4815333  62.0120804  52.8954033  15.1023218
  61.3900813  52.2324738  14.8025446  62.6825671  52.9215165  14.4196866
  55.2447876  51.4613891  13.9914478  54.4079784  51.0336066  13.8098479
  55.2171521  51.6546335  14.9285269  61.5734311  51.4457956   8.5781678
  61.7222431  52.1293421   7.9248351  62.3800754  51.4263047   9.0931134
  74.1916249  51.1866352  21.5331611  73.9001057  51.5496333  22.3695072
  73.5788380  50.4733361  21.3544943  75.3911931  48.7519232  14.0534181
  76.2258823  49.1909036  14.2171742  75.5271060  48.2757885  13.2342427
  72.4403437  46.3098967  20.0011669  72.9157559  46.5026613  19.1930520
  71.5169002  46.3658153  19.7555053  59.3286944  47.4723134   9.5842747
  59.0832986  46.5685464   9.7822957  59.4982858  47.4740285   8.6422225
  58.5982591  43.2051492   7.0828909  57.9051836  43.2795847   6.4268945
  58.3534343  42.4411835   7.6050426  67.2696248  34.7647093  14.4868400
  67.5498001  34.0970282  15.1128826  68.0546855  34.9576189  13.9743063
  65.0729716  53.9406087   6.0493426  64.5003683  54.5596274   5.5963898
  65.6462510  54.4905449   6.5833348  71.1405106  43.1864727  18.2339975
  72.0922529  43.2862825  18.2552199  70.9708556  42.3942996  18.7438059
  68.2926976  54.2243237   7.1802008  69.2257649  54.1588799   7.3834884
  68.2050189  55.0599504   6.7216541  70.9214993  53.5409107   4.1405956
  70.8428624  53.2068971   5.0341714  71.7424659  54.0330875   4.1397428
  73.6193184  46.4070847  17.3482274  73.5869504  45.4686847  17.5341958
  74.2293808  46.4854883  16.6148099  65.4576515  45.2766900   3.3909478
  66.4035619  45.1473108   3.4597896  65.0790760  44.5381562   3.8678907
  73.7687672  43.1981890  17.3940557  73.2526721  42.4140347  17.2070486
  74.6527621  42.8700607  17.5587077  71.4298399  36.9422906  13.3536370
  71.2323220  36.6337994  14.2379702  72.0398105  37.6684545  13.4834300
  79.4369734  47.4686854  16.4888311  80.1673122  47.2072142  17.0496014
  78.8276679  46.7315575  16.5290379  77.5185031  45.6094716  17.0862762
  76.7918194  45.4750681  16.4779254  77.1032318  45.9171545  17.8919480
  63.6419432  43.2016876   3.3264364  62.7350887  42.9049989   3.4027077
  63.9195413  42.9046694   2.4598650  54.5597372  44.5223239  13.7763410
  54.2400157  43.6688548  13.4837784  54.0130800  44.7371818  14.5321377
  58.3377280  47.2385680  17.4932916  58.5563290  48.1702788  17.5120950
  58.7503054  46.8793655  18.2787720  65.2581498  37.7453766   9.4808605
  64.4482226  37.4000851   9.8563851  65.9465915  37.4361309  10.0696216
  67.1872046  36.8231813  11.1032902  67.7403084  37.2427266  11.7622925
  67.4242132  35.8967561  11.1455858  62.4118217  40.0603811   3.4676343
  63.2737380  40.3858710   3.7272160  62.5968561  39.2735307   2.9549409
  54.4285632  48.1426151  15.7456532  53.7349104  47.7280104  15.2326486
  55.1758623  48.1846687  15.1489950  70.5650853  38.9332338  10.6111566
  69.9849522  39.5917142  10.2289618  70.2986786  38.1109682  10.1998983
  69.0154419  38.3337395  12.8132886  69.5154198  38.4453930  12.0047205
  69.6590027  38.0298448  13.4533695  56.3422375  48.0744405  13.6222546
  56.3193063  48.1732092  12.6704430  56.6523011  48.9209556  13.9439713
  59.0009753  50.1320560  17.7369161  59.9553006  50.1004502  17.6699092
  58.8022276  49.6711183  18.5519387  59.5909135  48.7021676  20.3039959
  60.4102024  49.1965754  20.3274796  59.8645942  47.7853644  20.2757526
  69.3475731  41.0932428   9.6667914  68.4601586  41.3782079   9.4488109
  69.7629720  40.9326191   8.8195191  72.6990267  41.1178949  13.3822253
  73.4750657  41.6075402  13.6546870  71.9738401  41.5437003  13.8394123
  75.1362826  41.8306568  14.4396194  75.7307317  41.5902304  13.7289502
  75.2089409  41.1113699  15.0669730  57.3559981  55.6740179  14.7539359
  57.2214449  54.9140580  14.1877357  56.9392044  56.3981079  14.2868148
  68.4918944  50.8577103   3.7615934  69.1954795  51.0627105   4.3773590
  67.7681593  51.4253865   4.0265018  69.3216755  46.6086964   9.8818204
  69.2651956  47.0655515   9.0425837  69.8745097  45.8477649   9.7041047
  73.1321561  42.3976696  10.7068324  72.8758495  41.9973332  11.5376531
  72.5074429  43.1120490  10.5818463  77.4433899  45.1372769  13.2139615
  76.8833456  45.2065958  13.9871177  76.8377402  44.9613754  12.4939111
  60.5129107  56.5709496  14.9657801  60.3961491  57.5154929  14.8636492
  59.6921554  56.2683058  15.3543601  70.4005642  51.2959632   5.8114394
  71.2351246  50.8640830   5.6291869  70.2389985  51.1241646   6.7391289
  70.0551534  47.7991745   7.1770733  70.0000338  47.6336017   6.2359177
  69.4297589  48.5067778   7.3332923  54.8444049  43.0359810  21.0032156
  55.4902913  42.5258764  21.4919381  54.6361200  43.7728491  21.5775581
  63.3647660  37.2999854   6.7556052  63.3526329  38.2441694   6.9124323
  64.2571081  37.1170000   6.4615513  61.5383621  57.2237758  18.1813730
  62.4410868  57.2561368  18.4980225  61.3120992  56.2938209  18.1960066
  63.2937223  55.9768745  14.8423808  62.3432854  55.9770606  14.7288181
  63.5969710  55.2301479  14.3259843  67.1799779  33.8942631  11.0101989
  66.4132175  33.3401118  11.1558671  67.5910484  33.9664500  11.8716140
  79.0289917  61.8129283  15.9069571  79.6668327  61.6936030  15.2032911
  78.9110760  62.7610127  15.9657523  75.8379623  61.7656711  15.8431096
  75.4998135  61.6497776  14.9551630  76.7069391  61.3647876  15.8232102
  71.6966439  63.6192188  11.8327986  71.1331304  63.5282125  11.0644274
  71.5818834  62.7992092  12.3130479  76.3199406  62.9191563  21.8017301
  76.3088047  62.5244361  20.9297805  76.4820046  62.1857636  22.3951072
  69.2430871  65.1143379  14.6712207  70.0352163  64.7734204  14.2558506
  69.4827521  65.2238354  15.5914360  77.2765998  67.2863155   7.1442451
  76.6253977  67.8717236   6.7576465  78.0710360  67.8169350   7.2037489
  71.2021625  64.3752292   7.5429586  71.9752501  63.8281280   7.4042462
  71.5547024  65.2396542   7.7544047  73.0406667  65.7028675  20.7496485
  72.7496533  66.6074306  20.6343151  73.6763652  65.7445202  21.4640555
  73.9662874  63.0805523  17.3397845  74.5626446  62.8561546  16.6254808
  74.0237846  62.3390269  17.9423293  73.5387903  60.5344959   5.1748036
  73.7913423  60.0126480   4.4131499  72.6012462  60.3711104   5.2774719
  78.5831185  59.5380737  12.9822779  79.3694275  59.1200160  12.6313196
  78.8469890  60.4426829  13.1504427  78.7541263  64.9753587   7.6811436
  78.1187096  65.0488214   8.3932340  78.4238669  65.5647186   7.0030515
  83.9839613  59.4755970  13.8855757  84.7164785  58.9055187  14.1193587
  83.2278968  59.0877571  14.3262263  73.2584191  62.4373065   7.3772411
  73.1420449  61.7617968   8.0453495  73.3686451  61.9505438   6.5604564
  75.6015732  61.8983212  11.0819100  75.2373940  61.3713833  11.7932021
  76.4582848  61.5081681  10.9085585  81.5065033  53.1877544  18.3450366
  81.1748358  54.0572955  18.1211581  80.9110646  52.8713828  19.0244396
  75.2421219  56.9273111   6.0780448  75.4095622  57.7953348   6.4450919
  75.0518388  57.0900393   5.1541738  77.9996552  65.3890090  17.7446279
  77.6997276  66.2915129  17.6362086  77.6547612  65.1222273  18.5967432
  71.4509034  61.8403887  13.7782983  70.5259530  61.7080101  13.9860675
  71.6993447  62.6198106  14.2752926  81.3993696  57.9072630  15.4243716
  80.4910574  57.8388039  15.1302477  81.3481292  58.3844575  16.2525542
  75.2210440  59.3830769   7.0627115  75.1010065  59.8287820   7.9012595
  74.5263029  59.7316087   6.5040653  68.8117845  61.4837161  14.6126772
  68.9410226  61.7371640  15.5266184  68.1315296  62.0764869  14.2931427
  72.9817332  72.1534411  10.7117246  72.9041362  73.1042236  10.7905727
  72.3778976  71.8080283  11.3692173  75.4734562  59.3262276  23.3678613
  74.6967896  59.8856196  23.3581478  76.1125125  59.8119059  23.8893483
  83.2655343  56.1089069  17.2021590  82.6229723  56.4021602  16.5561385
  82.7610271  55.9941989  18.0074787  80.9195506  59.8552242   7.8907449
  81.8313362  60.0879629   7.7155147  80.4105153  60.4389286   7.3282528
  73.7280934  62.1347729  22.9296580  74.4695619  62.6732773  22.6531404
  73.0217920  62.7614018  23.0868132  79.2036274  64.2776870  21.5268742
  79.6119630  63.8359280  20.7823374  78.4813535  63.7029497  21.7802935
  75.5567344  59.2149477  18.9002299  76.4028539  59.6388890  19.0436948
  75.4965982  58.5583101  19.5940862  79.5265089  64.8378060  15.2821031
  78.8973951  65.0023775  14.5797099  79.1390751  65.2519670  16.0531995
  83.4054321  65.7732498  12.6365394  82.7205359  66.1531400  12.0862428
  83.4898170  66.3827825  13.3697342  78.7066789  56.8753845  20.5583472
  78.4627721  57.6295906  20.0217748  78.9826720  57.2539193  21.3930719
  80.6605252  63.4192457  19.2360738  80.8722147  64.0624217  18.5595119
  80.6135000  62.5854774  18.7682668  78.2631481  56.0310278  16.1397310
  77.4015960  56.3291532  16.4314048  78.2893916  56.2480677  15.2078343
  75.0793050  64.5752469  12.5471116  75.5431396  64.8540172  11.7575738
  74.8149849  63.6735913  12.3644206  71.9717132  64.1223950  15.4850879
  72.5418489  64.5511218  14.8468364  72.5625243  63.8406535  16.1835065
  74.0161937  60.6975621   9.3560681  74.7185980  61.1496665   9.8234607
  73.6842565  60.0559440   9.9840574  67.7587271  58.9559174  14.6577814
  66.9686324  59.2116702  14.1817925  68.2498518  59.7707511  14.7629855
  81.7751080  66.2964413  17.4083095  82.5968524  65.8944600  17.1265777
  81.7713483  66.1932647  18.3599211  69.7102016  59.3203753  11.6161291
  68.9133179  59.4322447  12.1344787  69.4827608  59.6590405  10.7502182
  75.5407684  65.8448456  19.5643806  75.6052116  66.3068863  20.4001978
  74.8318607  65.2145821  19.6926116  66.0424973  59.2089664  17.0892805
  66.2933012  60.0936674  17.3550381  66.5784522  59.0294266  16.3167897
  89.8657073  62.6403161  13.7568067  89.1120782  62.0710559  13.6012071
  90.0004614  62.6065826  14.7038701  75.2555701  67.5116564   9.4322786
  75.1201376  68.3568099   9.8607634  75.7965514  67.7135841   8.6688720
  68.7085099  65.0292002  10.0050711  69.2209619  65.8235252  10.1556276
  69.3607811  64.3318292   9.9384313  70.5179983  68.1457758  12.0873464
  70.6946612  69.0675723  11.8994448  71.3136817  67.8316177  12.5167844
  76.8824178  68.1340130  23.5623128  76.4388032  67.3476509  23.2444033
  77.5441391  68.3219281  22.8967019  71.6411299  69.6635932  18.0883807
  72.1918724  69.5352995  17.3160801  70.8022775  69.9630821  17.7378700
  78.9805416  68.4142930  21.5904529  78.9623891  69.2351811  21.0984799
  79.9025336  68.2897005  21.8154671  75.4378470  65.9287059  22.4328038
  75.9706807  65.1675348  22.2027346  74.9092551  65.6360711  23.1752192
  78.6048165  51.0347125  17.9621680  78.2612434  51.9248767  17.8860790
  78.9727127  50.8448783  17.0991265  66.6734015  63.3580656  10.7810282
  67.5109237  63.7677664  10.5643989  66.8512283  62.4180098  10.7510476
  78.5698447  61.0255737   6.4694115  78.0545071  61.7960341   6.7082502
  78.2975756  60.3520873   7.0927176  76.1545558  55.8705437  11.5279353
  75.2987155  55.4812288  11.3484992  76.5672510  55.9497398  10.6679139
  77.6844705  53.4051781  15.9270913  77.1809501  53.3681916  15.1138718
  77.9775312  54.3144523  15.9867569  73.9287591  53.4890510  14.9337095
  74.7940588  53.2933319  14.5742984  73.9965100  53.2600862  15.8606451
  83.5432722  63.7788091   8.4047288  82.7662164  63.4399251   7.9602450
  84.2224203  63.7840714   7.7302253  78.3584751  58.8982829   8.2953896
  78.0534886  59.2128978   9.1464039  79.3115193  58.9764249   8.3381229
  76.8031182  65.0573052   9.9446850  76.2752544  64.3225812   9.6320087
  76.3018685  65.8347728   9.6986818  81.7824028  63.2522072  15.0613896
  81.1247703  63.9421334  15.1494025  82.5864428  63.6418504  15.4047883
  71.5349910  55.7192718  12.3053461  72.1093662  55.4967900  11.5726654
  72.1220893  55.7881413  13.0582063  80.5929487  61.6066445  13.1117838
  81.1061369  62.2396437  13.6139548  81.2430711  61.0067641  12.7461198
  71.8619497  57.7497179   6.3249347  71.0256809  58.0871866   6.6458621
  71.7224267  57.6146159   5.3876484  73.8372578  52.5933967  11.0328531
  73.1836990  52.2782984  10.4085146  73.7953052  51.9709708  11.7588354
  74.9483783  62.8753262   2.9481823  74.0410844  62.6442516   3.1472972
  75.4454815  62.0790881   3.1355804  77.0710318  59.0815901  15.3576178
  76.1532880  59.3030848  15.1997866  77.4870462  59.1562211  14.4987886
  77.8545366  60.4807316  10.4878859  78.6017185  60.9928714  10.1785981
  78.1236955  60.1591369  11.3483252  76.1272016  62.9765857   7.4705813
  75.2183235  62.6924890   7.5678283  76.1567100  63.3964936   6.6109120
  81.3591284  66.5872447  11.2396981  80.9053611  65.7463356  11.2962171
  80.7285250  67.2233845  11.5771761  80.3024203  57.5164433  12.4697648
  79.5646960  57.0041819  12.8007891  80.5550977  57.0764814  11.6580925
  79.8024223  68.4248943  12.1746799  80.0947197  68.9854000  11.4559164
  80.3122843  68.7177504  12.9299958  80.4035830  50.2940685  13.0639417
  80.7094707  49.4338048  12.7765332  81.1288435  50.8858305  12.8638411
  66.6960186  60.6971371  11.4521015  66.4984586  60.1040732  10.7272082
  66.1406850  60.3923581  12.1696954  74.6756910  60.5894478  13.5715608
  74.7305520  59.6368314  13.4958085  73.8648112  60.7453917  14.0556907
  75.8248104  64.5174601   4.8093892  75.3867534  63.8010460   4.3499529
  76.5658545  64.7450716   4.2478983  72.6149270  59.2071537  11.3305987
  71.8017136  59.5065708  11.7371179  73.1108264  58.8127226  12.0480469
  74.7657848  69.2029294  13.2640252  74.7234027  69.4290141  12.3348784
  75.6820547  68.9692669  13.4126053  78.2123482  59.6713362  20.1620881
  78.5672869  59.8984835  21.0215347  78.8595613  60.0031739  19.5398136
  83.9421219  62.7931798  10.8670210  83.8039117  62.9833394   9.9391399
  83.5857437  63.5551181  11.3238261  72.1063345  56.7789893  16.9467222
  72.7462724  56.6378652  16.2490185  71.2740875  56.4924406  16.5705824
  83.9690598  64.8608325  15.8781482  84.4027105  64.7683614  16.7264536
  84.6822179  64.8365825  15.2401498  72.8823649  66.0792323  13.0602215
  73.6764247  65.5842644  12.8584790  72.1715341  65.5510187  12.6969920
  77.7018493  68.4610419  17.4114582  77.7555515  69.0301355  18.1792298
  76.8333275  68.6312304  17.0468619  69.1906412  60.2235405   9.1361967
  68.2604000  60.1619861   9.3531929  69.2863884  59.7011358   8.3398609
  69.1091961  56.7490218  11.7240209  69.3698779  57.6635551  11.6149369
  69.9309134  56.2814661  11.8736822  84.8306148  64.9032025  18.4114367
  85.0242038  65.8077836  18.6573642  84.7306766  64.4439445  19.2452952
  76.4842459  54.7889916  20.9104694  75.8370374  55.4879866  20.8169171
  77.2543474  55.2226060  21.2780943  79.8921257  65.0538768  23.9855248
  79.7406763  64.8249320  23.0685331  79.8825936  66.0109370  23.9986593
  76.6606593  62.6270681  18.9701514  77.5898653  62.7781841  18.7970481
  76.2397623  62.7154702  18.1150161  75.4594925  66.6521345  16.7400052
  75.3206010  66.2840130  17.6125990  74.6709521  67.1668985  16.5684009
  76.0543077  71.7530442   8.0825588  76.2294832  71.2818485   8.8971211
  75.3675865  72.3796208   8.3106849  77.0100140  66.0302948  14.1288889
  76.6749972  65.9903718  15.0246539  76.5104086  65.3647664  13.6559300
  70.9844384  61.4370578  19.6541471  70.8464182  60.7050817  20.2553010
  71.8949307  61.3479478  19.3725658  73.6126684  61.1490537  19.1425150
  74.3226303  60.5083730  19.1011769  73.5695993  61.4003432  20.0651331
  81.6013463  68.0857891  22.0631729  81.5426009  67.4017111  21.3962313
  82.0032982  68.8276881  21.6112355  70.6204162  74.9019805  14.8565448
  70.8600760  75.5338329  15.5344467  69.7773358  74.5507845  15.1430808
  71.7357877  57.5944407   3.5247253  70.8587344  57.4733207   3.1609500
  72.2115630  56.8030485   3.2726142  81.6030870  66.0497475  20.2945709
  80.7157649  65.7123396  20.4172108  82.1729421  65.3180506  20.5314475
  63.2560018  62.3821566  13.6188761  63.9431057  62.0683296  13.0309776
  63.1008146  63.2862931  13.3456012  75.1332024  70.7098927  17.2606952
  75.0602195  71.5153899  17.7726257  74.6909417  70.9090893  16.4354974
  74.9221803  69.9470697  10.7709774  74.1389325  70.4892377  10.8647998
  75.6214549  70.4644677  11.1704015  78.2318454  55.7565327  13.4143979
  78.7287153  55.0035289  13.0945050  77.4605435  55.7929643  12.8487189
  86.0848211  61.4605692  15.0562271  86.0738087  62.3430407  14.6856204
  85.2165590  61.1077243  14.8616808  77.5930707  70.6085761  19.4165111
  78.3058680  71.2433226  19.3441013  77.1020736  70.7049627  18.6005113
  79.3148234  64.5137014  10.9882403  78.3804513  64.6338476  10.8187107
  79.4924903  63.6109481  10.7242413  74.8153422  57.8982710  13.1415664
  74.4451210  57.3453750  13.8296569  75.3112515  57.2940843  12.5890664
  82.7020786  60.3554333  11.5232437  83.1681238  61.1882325  11.4492740
  83.1528286  59.8899315  12.2277695  72.6442621  68.3580205  20.2370682
  73.3452080  68.9916687  20.3900076  72.1737736  68.6994936  19.4766321
  80.7697017  66.6998154   8.5218589  81.0456861  66.5854749   9.4312463
  79.9001515  66.3015639   8.4830762  80.6737448  52.7234920  15.5623338
  79.7600528  52.9539147  15.7305545  81.1030550  52.8073364  16.4137371
  80.4443907  60.9124812  18.0623232  79.7915357  61.1600719  17.4075685
  80.8224287  60.0988950  17.7285710  77.4051081  70.9484505  12.1651403
  77.5873475  70.1306161  12.6279155  78.2284067  71.1652197  11.7276293
  77.7393246  69.8752690   9.4266451  78.2681013  69.3645145   8.8136613
  78.0021466  69.5595220  10.2911984  76.4931480  61.6544623  24.5489269
  75.8172117  61.5538752  25.2191645  77.3159114  61.4983837  25.0125267
  68.2410339  67.8916560  17.1701785  68.8263776  67.1460247  17.3029689
  68.0435177  68.2020516  18.0538448  71.0948994  70.9267807  12.1864227
  70.4259369  71.4113935  11.7028267  70.9561864  71.1737027  13.1007605
  62.8327994  60.4622160  15.8906228  62.8712093  59.9285750  16.6843346
  62.3268287  59.9357365  15.2717205  75.2354263  72.9611550  18.7846885
  75.7872571  73.1243172  19.5495971  75.5760456  73.5515988  18.1126910
  80.0865137  67.7872808  24.6395540  80.6305041  68.4002766  24.1450495
  79.5051982  68.3452386  25.1562553  66.4636571  59.1886262   8.9660159
  66.7590012  58.2796940   8.9127213  65.5624607  59.1674001   8.6441161
  78.3722650  70.9093526  15.7710567  78.2473789  70.1083266  15.2621513
  79.0301741  71.4039719  15.2824537  69.9930818  57.2642259  14.9487708
  69.2717404  57.8778226  14.8095181  70.7824074  57.8000023  14.8704354
  80.4357558  68.7102546  17.3990118  79.4887894  68.5907897  17.3268444
  80.7840332  67.8225044  17.4816379  68.1924413  56.8700360   9.0899484
  67.8637119  55.9897739   8.9074590  68.5463784  56.8148028   9.9775873
  77.4403992  68.5055262  13.5994470  77.2928954  67.5771970  13.7802040
  78.2657485  68.5275353  13.1151545  71.3066236  57.1573329   9.4574962
  71.6462309  57.6859251   8.7353570  71.7538356  57.4953736  10.2333528
  81.0438114  69.3283821  14.6859343  81.9684661  69.1226682  14.5483794
  80.8753417  69.0800222  15.5948684  74.0009677  55.5410380  18.9078030
  73.6606497  54.7418193  19.3098710  73.2948683  55.8412091  18.3354863
  74.6526149  52.6259693  17.3605353  75.4752218  52.1520171  17.2384243
  74.8964212  53.4050176  17.8604039  73.2934383  55.6547951   7.6568255
  74.0142746  56.0329204   7.1531972  72.6699687  56.3736828   7.7603233
  77.4365506  56.3593100   8.5926587  77.6529120  57.2417738   8.2915415
  76.9559573  55.9679313   7.8632229  72.1764727  59.3178813  15.1697332
  72.0309308  59.6319116  16.0621613  71.6989931  59.9363714  14.6168230
  74.0361110  56.3081361  15.2178221  74.0222679  55.4122454  14.8810519
  74.7533538  56.3152025  15.8516507  75.8887241  56.7418701  17.2631349
  75.6305019  57.6635772  17.2615679  75.3572281  56.3449136  17.9531813
  80.8333430  69.8469488  10.0421434  81.0070307  69.2815911   9.2895286
  81.3262321  70.6470383   9.8600924  73.4398006  55.1895741  10.4865791
  73.5613917  54.2612388  10.6856679  73.1500049  55.2034427   9.5744107
  76.3089197  52.8750652  13.6232511  76.3310893  52.9389985  12.6684491
  76.7257256  52.0355161  13.8173017  86.6872821  62.6105911  11.6611734
  87.1303967  61.8613237  11.2630857  85.8099331  62.6016048  11.2785466
  83.7200025  66.6135958   8.6705663  84.2451349  66.9523231   7.9454983
  83.6322378  65.6782974   8.4868798  75.3820074  70.5270032  20.7995540
  75.6907201  70.2819179  21.6718239  76.1795556  70.7316671  20.3114410
  75.4040686  72.6807942  13.0300916  74.9645676  72.1884320  13.7233773
  76.1548803  72.1380909  12.7892991  67.8833025  68.8719483  13.0325544
  68.7091045  68.5723254  12.6524188  67.5327077  68.1027105  13.4815333
  72.8514558  68.2245951  15.1023218  72.2294568  67.5616656  14.8025446
  73.5219425  68.2507083  14.4196866  66.0841630  66.7905809  13.9914478
  65.2473538  66.3627983  13.8098479  66.0565276  66.9838252  14.9285269
  83.4093931  67.2468862  23.9756861  82.6189475  67.2293001  23.4361360
  83.1727286  67.7857156  24.7305898  83.5291806  64.0961328  21.2889590
  83.5789811  63.9311336  22.2305112  83.4205730  63.2288587  20.8987470
  72.4128065  66.7749874   8.5781678  72.5616186  67.4585339   7.9248351
  73.2194509  66.7554964   9.0931134  80.8195569  60.0792256  22.6048896
  81.7205432  59.9398721  22.3132894  80.8943543  60.2446711  23.5447074
  75.1538374  57.4559111  21.4502083  74.2841684  57.7492677  21.1784671
  75.3897855  58.0399556  22.1709346  85.0310003  66.5158270  21.5331611
  84.7394812  66.8788251  22.3695072  84.4182135  65.8025278  21.3544943
  86.2305686  64.0811150  14.0534181  87.0652577  64.5200954  14.2171742
  86.3664814  63.6049803  13.2342427  83.2797192  61.6390885  20.0011669
  83.7551313  61.8318531  19.1930520  82.3562757  61.6950070  19.7555053
  70.1680698  62.8015052   9.5842747  69.9226740  61.8977382   9.7822957
  70.3376613  62.8032202   8.6422225  77.8577408  53.6738728  18.9667503
  78.3759352  54.4099755  18.6413992  77.5032541  53.9802721  19.8014262
  69.4376346  58.5343409   7.0828909  68.7445591  58.6087764   6.4268945
  69.1928098  57.7703753   7.6050426  78.1090002  50.0939011  14.4868400
  78.3891756  49.4262200  15.1128826  78.8940609  50.2868106  13.9743063
  81.9798861  58.5156645  18.2339975  82.9316283  58.6154742  18.2552199
  81.8102311  57.7234913  18.7438059  80.0013240  55.6012228  18.4199376
  79.4063172  55.8817241  17.7245864  79.7162937  56.0906129  19.1916117
  84.4586938  61.7362764  17.3482274  84.4263258  60.7978765  17.5341958
  85.0687562  61.8146801  16.6148099  76.2970269  60.6058817   3.3909478
  77.2429374  60.4765025   3.4597896  75.9184514  59.8673479   3.8678907
  84.6081427  58.5273808  17.3940557  84.0920475  57.7432264  17.2070486
  85.4921375  58.1992524  17.5587077  82.2692154  52.2714823  13.3536370
  82.0716975  51.9629912  14.2379702  82.8791859  52.9976462  13.4834300
  90.2763488  62.7978771  16.4888311  91.0066877  62.5364059  17.0496014
  89.6670434  62.0607493  16.5290379  88.3578785  60.9386634  17.0862762
  87.6311949  60.8042599  16.4779254  87.9426072  61.2463462  17.8919480
  76.1808962  64.6576563  24.8510135  77.1011971  64.8355162  25.0450182
  76.1458545  63.7132609  24.6989835  74.4813186  58.5308794   3.3264364
  73.5744642  58.2341906   3.4027077  74.7589167  58.2338612   2.4598650
  65.3991127  59.8515157  13.7763410  65.0793911  58.9980465  13.4837784
  64.8524555  60.0663735  14.5321377  69.1771034  62.5677598  17.4932916
  69.3957044  63.4994706  17.5120950  69.5896808  62.2085573  18.2787720
  76.0975252  53.0745683   9.4808605  75.2875980  52.7292768   9.8563851
  76.7859669  52.7653227  10.0696216  78.0265800  52.1523730  11.1032902
  78.5796839  52.5719184  11.7622925  78.2635887  51.2259478  11.1455858
  73.2511971  55.3895729   3.4676343  74.1131135  55.7150627   3.7272160
  73.4362315  54.6027225   2.9549409  65.2679387  63.4718069  15.7456532
  64.5742858  63.0572021  15.2326486  66.0152378  63.5138605  15.1489950
  81.4044607  54.2624255  10.6111566  80.8243277  54.9209059  10.2289618
  81.1380540  53.4401600  10.1998983  79.8548174  53.6629313  12.8132886
  80.3547952  53.7745848  12.0047205  80.4983782  53.3590366  13.4533695
  73.9130170  61.5707943  25.7000727  73.4297251  62.3708303  25.9064616
  73.9991109  61.5815888  24.7468171  67.1816129  63.4036322  13.6222546
  67.1586817  63.5024010  12.6704430  67.4916766  64.2501473  13.9439713
  69.8403507  65.4612477  17.7369161  70.7946761  65.4296420  17.6699092
  69.6416031  65.0003101  18.5519387  70.4302889  64.0313593  20.3039959
  71.2495778  64.5257672  20.3274796  70.7039697  63.1145562  20.2757526
  80.1869485  56.4224346   9.6667914  79.2995341  56.7073996   9.4488109
  80.6023475  56.2618109   8.8195191  83.5384022  56.4470867  13.3822253
  84.3144412  56.9367319  13.6546870  82.8132156  56.8728921  13.8394123
  85.9756580  57.1598486  14.4396194  86.5701071  56.9194222  13.7289502
  86.0483164  56.4405617  15.0669730  68.1953736  71.0032097  14.7539359
  68.0608204  70.2432498  14.1877357  67.7785798  71.7272997  14.2868148
  80.1610509  61.9378882   9.8818204  80.1045711  62.3947433   9.0425837
  80.7138852  61.1769566   9.7041047  83.9715315  57.7268614  10.7068324
  83.7152249  57.3265249  11.5376531  83.3468183  58.4412408  10.5818463
  88.2827653  60.4664687  13.2139615  87.7227211  60.5357876  13.9871177
  87.6771156  60.2905671  12.4939111  71.3522862  71.9001414  14.9657801
  71.2355246  72.8446846  14.8636492  70.5315308  71.5974975  15.3543601
  80.8945289  63.1283663   7.1770733  80.8394092  62.9627934   6.2359177
  80.2691344  63.8359696   7.3332923  78.2091196  65.4332575  26.5024296
  79.0782355  65.6073227  26.1410931  77.7297947  66.2526992  26.3800025
  74.2041414  52.6291772   6.7556052  74.1920084  53.5733612   6.9124323
  75.0964836  52.4461917   6.4615513  72.3777376  72.5529676  18.1813730
  73.2804623  72.5853286  18.4980225  72.1514746  71.6230127  18.1960066
  74.1330978  71.3060662  14.8423808  73.1826609  71.3062524  14.7288181
  74.4363464  70.5593397  14.3259843  78.0193533  49.2234549  11.0101989
  77.2525929  48.6693035  11.1558671  78.4304238  49.2956417  11.8716140
  86.6773378  77.0948629  15.8431096  86.3391889  76.9789694  14.9551630
  87.5463146  76.6939794  15.8232102  87.1593161  78.2483481  21.8017301
  87.1481801  77.8536279  20.9297805  87.3213800  77.5149553  22.3951072
  80.0824625  80.4435297  14.6712207  80.8745917  80.1026122  14.2558506
  80.3221276  80.5530272  15.5914360  83.8800422  81.0320592  20.7496485
  83.5890288  81.9366223  20.6343151  84.5157406  81.0737120  21.4640555
  84.8056629  78.4097441  17.3397845  85.4020201  78.1853463  16.6254808
  84.8631600  77.6682186  17.9423293  92.3458787  68.5169462  18.3450366
  92.0142112  69.3864873  18.1211581  91.7504401  68.2005746  19.0244396
  82.2902788  77.1695805  13.7782983  81.3653285  77.0372019  13.9860675
  82.5387202  77.9490024  14.2752926  92.2387451  73.2364548  15.4243716
  91.3304328  73.1679957  15.1302477  92.1875047  73.7136493  16.2525542
  79.6511599  76.8129078  14.6126772  79.7803981  77.0663557  15.5266184
  78.9709051  77.4056786  14.2931427  86.3128317  74.6554194  23.3678613
  85.5361651  75.2148114  23.3581478  86.9518880  75.1410977  23.8893483
  94.1049097  71.4380987  17.2021590  93.4623477  71.7313520  16.5561385
  93.6004026  71.3233907  18.0074787  84.5674689  77.4639647  22.9296580
  85.3089373  78.0024691  22.6531404  83.8611674  78.0905936  23.0868132
  90.0430028  79.6068788  21.5268742  90.4513384  79.1651198  20.7823374
  89.3207290  79.0321415  21.7802935  86.3961099  74.5441394  18.9002299
  87.2422294  74.9680808  19.0436948  86.3359736  73.8875019  19.5940862
  89.5460544  72.2045763  20.5583472  89.3021476  72.9587823  20.0217748
  89.8220474  72.5831110  21.3930719  91.4999007  78.7484375  19.2360738
  91.7115902  79.3916135  18.5595119  91.4528755  77.9146692  18.7682668
  89.1025236  71.3602196  16.1397310  88.2409715  71.6583449  16.4314048
  89.1287670  71.5772595  15.2078343  83.3036053  74.6179295  23.7311890
  82.6734713  75.2995576  23.9647287  83.1972140  74.5062377  22.7865029
  78.5981025  74.2851091  14.6577814  77.8080079  74.5408620  14.1817925
  79.0892272  75.0999429  14.7629855  86.3801438  81.1740374  19.5643806
  86.4445871  81.6360781  20.4001978  85.6712362  80.5437739  19.6926116
  76.8818728  74.5381582  17.0892805  77.1326766  75.4228592  17.3550381
  77.4178276  74.3586183  16.3167897  82.5816795  68.9200061  26.0937141
  82.1883741  68.3666260  26.7684786  83.3982936  69.2310640  26.4843659
  85.4984756  70.3357940  23.6857398  86.2394470  70.9365093  23.6061860
  85.7302679  69.5935578  23.1275440  80.6426094  75.5214307  21.9635628
  80.5279609  74.6199565  22.2642727  79.7870612  75.7678004  21.6120444
  87.7217932  83.4632048  23.5623128  87.2781786  82.6768426  23.2444033
  88.3835146  83.6511198  22.8967019  89.8199170  83.7434848  21.5904529
  89.8017645  84.5643729  21.0984799  90.7419090  83.6188923  21.8154671
  86.2772224  81.2578977  22.4328038  86.8100561  80.4967265  22.2027346
  85.7486305  80.9652629  23.1752192  89.4441919  66.3639043  17.9621680
  89.1006189  67.2540685  17.8860790  89.8120882  66.1740701  17.0991265
  88.5238460  68.7343698  15.9270913  88.0203255  68.6973833  15.1138718
  88.8169066  69.6436441  15.9867569  84.7681345  68.8182428  14.9337095
  85.6334342  68.6225237  14.5742984  84.8358854  68.5892780  15.8606451
  82.3743665  71.0484636  12.3053461  82.9487416  70.8259817  11.5726654
  82.9614647  71.1173330  13.0582063  84.6766332  67.9225885  11.0328531
  84.0230745  67.6074902  10.4085146  84.6346806  67.3001625  11.7588354
  87.9104073  74.4107818  15.3576178  86.9926634  74.6322765  15.1997866
  88.3264216  74.4854129  14.4987886  91.2429585  65.6232602  13.0639417
  91.5488462  64.7629966  12.7765332  91.9682190  66.2150222  12.8638411
  77.5353941  76.0263289  11.4521015  77.3378341  75.4332650  10.7272082
  76.9800605  75.7215499  12.1696954  85.5150665  75.9186395  13.5715608
  85.5699274  74.9660232  13.4958085  84.7041867  76.0745834  14.0556907
  89.0517236  75.0005280  20.1620881  89.4066624  75.2276753  21.0215347
  89.6989367  75.3323656  19.5398136  82.9457099  72.1081811  16.9467222
  83.5856479  71.9670570  16.2490185  82.1134630  71.8216324  16.5705824
  79.9485716  72.0782136  11.7240209  80.2092533  72.9927469  11.6149369
  80.7702888  71.6106578  11.8736822  81.4210641  73.4919893  18.8939033
  82.0933694  73.2837255  18.2451682  80.5940428  73.2941979  18.4544266
  87.3236213  70.1181834  20.9104694  86.6764128  70.8171783  20.8169171
  88.0937228  70.5517978  21.2780943  90.7315011  80.3830686  23.9855248
  90.5800517  80.1541238  23.0685331  90.7219690  81.3401287  23.9986593
  87.5000347  77.9562599  18.9701514  88.4292407  78.1073758  18.7970481
  87.0791377  78.0446619  18.1150161  81.8238138  76.7662496  19.6541471
  81.6857936  76.0342735  20.2553010  82.7343062  76.6771396  19.3725658
  84.4520439  76.4782455  19.1425150  85.1620058  75.8375647  19.1011769
  84.4089747  76.7295350  20.0651331  92.4407218  83.4149808  22.0631729
  92.3819764  82.7309029  21.3962313  92.8426736  84.1568798  21.6112355
  83.1649373  73.4647673  20.9620790  82.6286730  73.0138411  21.6142386
  82.5766081  73.5993582  20.2191254  92.4424625  81.3789392  20.2945709
  91.5551404  81.0415314  20.4172108  93.0123176  80.6472424  20.5314475
  74.0953772  77.7113484  13.6188761  74.7824812  77.3975214  13.0309776
  73.9401901  78.6154849  13.3456012  78.8988494  72.6003681  18.0473784
  78.8146683  71.9929350  17.3124194  78.0771201  73.0912699  18.0483281
  89.0712208  71.0857244  13.4143979  89.5680908  70.3327207  13.0945050
  88.2999190  71.1221561  12.8487189  85.6547177  73.2274627  13.1415664
  85.2844964  72.6745668  13.8296569  86.1506269  72.6232761  12.5890664
  83.4836375  83.6872122  20.2370682  84.1845835  84.3208605  20.3900076
  83.0131490  84.0286854  19.4766321  91.5131203  68.0526838  15.5623338
  90.5994283  68.2831065  15.7305545  91.9424304  68.1365282  16.4137371
  91.2837661  76.2416730  18.0623232  90.6309112  76.4892637  17.4075685
  91.6618041  75.4280868  17.7285710  87.3325234  76.9836541  24.5489269
  86.6565871  76.8830670  25.2191645  88.1552868  76.8275754  25.0125267
  79.0804093  83.2208477  17.1701785  79.6657530  82.4752165  17.3029689
  78.8828932  83.5312434  18.0538448  73.6721748  75.7914077  15.8906228
  73.7105848  75.2577668  16.6843346  73.1662041  75.2649283  15.2717205
  81.0512510  70.6378618  19.3868770  81.1153837  71.4993449  18.9746168
  80.9879631  70.0252620  18.6541129  80.5264783  72.7101751  23.0341804
  81.1536822  72.3278828  23.6479329  79.6692702  72.4915952  23.3997497
  90.9258892  83.1164726  24.6395540  91.4698796  83.7294684  24.1450495
  90.3445736  83.6744304  25.1562553  80.8324573  72.5934176  14.9487708
  80.1111159  73.2070144  14.8095181  81.6217829  73.1291941  14.8704354
  83.6350886  69.9288603  21.2228359  84.1585288  70.1750899  21.9854669
  83.4163220  70.7608638  20.8031497  79.0318167  72.1992277   9.0899484
  78.7030873  71.3189656   8.9074590  79.3857538  72.1439946   9.9775873
  84.8403431  70.8702298  18.9078030  84.5000252  70.0710111  19.3098710
  84.1342438  71.1704009  18.3354863  85.4919903  67.9551610  17.3605353
  86.3145972  67.4812088  17.2384243  85.7357967  68.7342094  17.8604039
  83.0158482  74.6470731  15.1697332  82.8703063  74.9611034  16.0621613
  82.5383686  75.2655631  14.6168230  84.8754865  71.6373279  15.2178221
  84.8616434  70.7414372  14.8810519  85.5927293  71.6443943  15.8516507
  86.7280995  72.0710619  17.2631349  86.4698773  72.9927690  17.2615679
  86.1966036  71.6741054  17.9531813  77.4904144  77.1876075  18.1084993
  76.9457612  77.9635883  18.2405267  78.3683494  77.5346880  17.9504114
  87.1482951  68.2042570  13.6232511  87.1704648  68.2681903  12.6684491
  87.5651010  67.3647078  13.8173017  78.2770166  76.3145972  21.0015150
  77.5351902  76.4628607  21.5879780  77.9562910  76.5754237  20.1381899
  86.2213829  85.8561950  20.7995540  86.5300955  85.6111097  21.6718239
  87.0189311  86.0608588  20.3114410  76.9235385  82.1197727  13.9914478
  76.0867293  81.6919901  13.8098479  76.8959030  82.3130170  14.9285269
  83.7632840  72.0319656  24.6955724  83.8120996  72.9081779  24.3133494
  84.3055354  71.4897050  24.1227367  94.2487686  82.5760780  23.9756861
  93.4583230  82.5584919  23.4361360  94.0121041  83.1149073  24.7305898
  94.3685561  79.4253246  21.2889590  94.4183566  79.2603254  22.2305112
  94.2599484  78.5580505  20.8987470  91.6589323  75.4084174  22.6048896
  92.5599186  75.2690639  22.3132894  91.7337298  75.5738629  23.5447074
  85.9932129  72.7851029  21.4502083  85.1235438  73.0784595  21.1784671
  86.2291609  73.3691474  22.1709346  95.8703758  81.8450188  21.5331611
  95.5788566  82.2080168  22.3695072  95.2575889  81.1317196  21.3544943
  94.1190946  76.9682802  20.0011669  94.5945068  77.1610449  19.1930520
  93.1956511  77.0241988  19.7555053  88.6971163  69.0030646  18.9667503
  89.2153106  69.7391673  18.6413992  88.3426295  69.3094639  19.8014262
  88.9483757  65.4230928  14.4868400  89.2285510  64.7554117  15.1128826
  89.7334364  65.6160024  13.9743063  92.8192615  73.8448562  18.2339975
  93.7710038  73.9446660  18.2552199  92.6496065  73.0526831  18.7438059
  90.8406995  70.9304146  18.4199376  90.2456927  71.2109158  17.7245864
  90.5556691  71.4198046  19.1916117  95.4475181  73.8565725  17.3940557
  94.9314230  73.0724182  17.2070486  96.3315130  73.5284442  17.5587077
  93.1085908  67.6006741  13.3536370  92.9110729  67.2921829  14.2379702
  93.7185614  68.3268380  13.4834300  87.0202716  79.9868481  24.8510135
  87.9405726  80.1647080  25.0450182  86.9852299  79.0424526  24.6989835
  76.2384881  75.1807075  13.7763410  75.9187666  74.3272383  13.4837784
  75.6918309  75.3955653  14.5321377  80.0164789  77.8969516  17.4932916
  80.2350799  78.8286624  17.5120950  80.4290563  77.5377490  18.2787720
  88.8659555  67.4815648  11.1032902  89.4190593  67.9011101  11.7622925
  89.1029641  66.5551396  11.1455858  84.8892654  73.4702722  26.8835665
  84.7889381  74.4197079  26.8147757  84.6714196  73.1420960  26.0111735
  76.1073141  78.8009986  15.7456532  75.4136613  78.3863939  15.2326486
  76.8546132  78.8430523  15.1489950  90.6941928  68.9921231  12.8132886
  91.1941707  69.1037765  12.0047205  91.3377536  68.6882284  13.4533695
  84.7523924  76.8999860  25.7000727  84.2691006  77.7000221  25.9064616
  84.8384863  76.9107805  24.7468171  78.0209884  78.7328240  13.6222546
  77.9980572  78.8315927  12.6704430  78.3310520  79.5793391  13.9439713
  80.6797262  80.7904395  17.7369161  81.6340515  80.7588337  17.6699092
  80.4809785  80.3295019  18.5519387  81.2696644  79.3605511  20.3039959
  82.0889533  79.8549590  20.3274796  81.5433451  78.4437479  20.2757526
  76.5231558  73.6943645  21.0032156  77.1690422  73.1842599  21.4919381
  76.3148709  74.4312327  21.5775581  89.0484950  80.7624493  26.5024296
  89.9176110  80.9365145  26.1410931  88.5691702  81.5818909  26.3800025
  88.8587288  64.5526466  11.0101989  88.0919684  63.9984953  11.1558671
  89.2697993  64.6248335  11.8716140  80.8629049  70.8411262  25.1007170
  81.7260511  70.4848067  25.3110494  80.2894460  70.5025157  25.7882574
  93.4210550  84.2491979  26.0937141  93.0277495  83.6958177  26.7684786
  94.2376690  84.5602557  26.4843659  91.3658537  88.0393668  23.0341804
  91.9930576  87.6570746  23.6479329  90.5086456  87.8207870  23.3997497
  95.7286409  88.7994639  26.8835665  95.6283135  89.7488996  26.8147757
  95.5107951  88.4712878  26.0111735  91.7022803  86.1703180  25.1007170
  92.5654265  85.8139985  25.3110494  91.1288214  85.8317075  25.7882574
  58.4077629  14.1351095  11.3640846  58.9517533  14.7481054  10.8695801
  57.8264474  14.6930674  11.8807859  61.7306424  13.5947149  10.7002168
  60.9401967  13.5771288  10.1606667  61.4939778  14.1335443  11.4551204
  56.5303688  11.7810862  13.2269603  57.3994848  11.9551514  12.8656238
  56.0510439  12.6005279  13.1045332  68.1896164  23.4899488   2.6314877
  68.8274574  23.3706235   1.9278218  68.0717007  24.4380332   2.6902830
  65.4805653  24.5961768   8.5262608  65.4694294  24.2014566   7.6543111
  65.6426292  23.8627840   9.1196379  62.2012914  27.3798880   7.4741792
  61.9102780  28.2844510   7.3588458  62.8369898  27.4215407   8.1885861
  63.1269121  24.7575728   4.0643151  63.7232693  24.5331751   3.3500114
  63.1844093  24.0160474   4.6668599  70.6671280  14.8647749   5.0695673
  70.3354604  15.7343160   4.8456888  70.0716893  14.5484033   5.7489703
  67.1602799  27.0660295   4.4691585  66.8603522  27.9685334   4.3607393
  66.8153859  26.7992478   5.3212738  62.1423579  33.8304616  -2.5637447
  62.0647609  34.7812441  -2.4848966  61.5385223  33.4850488  -1.9062521
  64.6340809  21.0032481  10.0923920  63.8574143  21.5626401  10.0826785
  65.2731372  21.4889264  10.6138790  72.4261589  17.7859274   3.9266897
  71.7835970  18.0791807   3.2806691  71.9216518  17.6712194   4.7320093
  62.8887181  23.8117934   9.6541887  63.6301865  24.3502978   9.3776711
  62.1824167  24.4384223   9.8113439  68.3642521  25.9547075   8.2514048
  68.7725877  25.5129485   7.5068681  67.6419782  25.3799702   8.5048241
  64.7173591  20.8919682   5.6247605  65.5634786  21.3159095   5.7682254
  64.6572228  20.2353306   6.3186168  68.6871335  26.5148265   2.0066337
  68.0580198  26.6793980   1.3042405  68.2996997  26.9289875   2.7777301
  72.5660567  27.4502703  -0.6389299  71.8811605  27.8301605  -1.1892266
  72.6504417  28.0598030   0.0942649  67.8673036  18.5524050   7.2828779
  67.6233968  19.3066110   6.7463055  68.1432967  18.9309397   8.1176026
  69.8211499  25.0962662   5.9606045  70.0328394  25.7394422   5.2840426
  69.7741247  24.2624979   5.4927975  61.1323378  25.7994155   2.2096186
  61.7024735  26.2281423   1.5713670  61.7231490  25.5176740   2.9080371
  61.6248545  20.9657582  10.4557197  60.9947205  21.6473863  10.6892594
  61.5184633  20.8540664   9.5110335  70.9357327  27.9734618   4.1328402
  71.7574771  27.5714805   3.8511084  70.9319730  27.8702852   5.0844518
  64.7013930  27.5218661   6.2889112  64.7658363  27.9839068   7.1247284
  63.9924854  26.8916026   6.4171422  60.9029288  15.2678348  12.8182448
  60.5096233  14.7144547  13.4930092  61.7195428  15.5788927  13.2088966
  63.8197249  16.6836227  10.4102705  64.5606962  17.2843381  10.3307167
  64.0515171  15.9413865   9.8520747  58.9638587  21.8692595   8.6880934
  58.8492102  20.9677852   8.9888033  58.1083104  22.1156291   8.3365751
  66.0430424  29.8110335  10.2868435  65.5994279  29.0246714   9.9689339
  66.7047638  29.9989485   9.6212326  60.8017545  31.3406137   4.8129113
  61.3524971  31.2123200   4.0406107  59.9629021  31.6401026   4.4624006
  68.1411662  30.0913135   8.3149836  68.1230138  30.9122016   7.8230105
  69.0631582  29.9667210   8.5399977  64.5984717  27.6057264   9.1573344
  65.1313053  26.8445553   8.9272652  64.0698798  27.3130916   9.8997499
  70.9430275  24.9292277   1.7859203  70.2853950  25.6191539   1.8739331
  71.7470674  25.3188709   2.1293189  70.5197530  28.2642651  -2.0357713
  70.0659857  27.4233561  -1.9792522  69.8891497  28.9004050  -1.6982933
  68.9630470  30.1019148  -1.1007895  69.2553444  30.6624205  -1.8195529
  69.4729090  30.3947709  -0.3454736  63.9264095  30.8799499  -0.0114441
  63.8840274  31.1060346  -0.9405909  64.8426794  30.6462874   0.1371360
  67.3729729  21.3483567   6.8866188  67.7279116  21.5755040   7.7460653
  68.0201860  21.6801944   6.2643443  73.1296845  26.5378530   2.6026788
  73.5633352  26.4453819   3.4509842  73.8428426  26.5136030   1.9646804
  66.8624740  30.1380624   4.1359889  66.9161762  30.7071560   4.9037605
  65.9939521  30.3082509   3.7713926  73.9912395  26.5802230   5.1359674
  74.1848285  27.4848041   5.3818949  73.8913013  26.1209649   5.9698259
  65.6448705  16.4660121   7.6350001  64.9976620  17.1650071   7.5414477
  66.4149721  16.8996265   8.0026249  69.0527503  26.7308973  10.7100554
  68.9013010  26.5019525   9.7930638  69.0432183  27.6879575  10.7231899
  65.8212840  24.3040886   5.6946821  66.7504900  24.4552045   5.5215788
  65.4003870  24.3924907   4.8395467  64.6201171  28.3291550   3.4645358
  64.4812257  27.9610335   4.3371296  63.8315768  28.8439190   3.2929316
  66.1706387  27.7073153   0.8534196  65.8356219  27.6673923   1.7491846
  65.6710332  27.0417869   0.3804606  60.1450631  23.1140783   6.3786777
  60.0070429  22.3821022   6.9798316  61.0555554  23.0249683   6.0970965
  62.7732931  22.8260742   5.8670457  63.4832550  22.1853935   5.8257075
  62.7302239  23.0773637   6.7896638  70.7619710  29.7628096   8.7877036
  70.7032256  29.0787316   8.1207619  71.1639228  30.5047086   8.3357662
  61.4861865  19.8125960   7.6866096  60.9499222  19.3616699   8.3387693
  60.8978574  19.9471869   6.9436561  59.7810409  36.5790010   1.5810755
  60.0207007  37.2108534   2.2589774  58.9379605  36.2278050   1.8676114
  70.7637117  27.7267680   7.0191016  69.8763896  27.3893601   7.1417415
  71.3335668  26.9950711   7.2559781  64.2938271  32.3869132   3.9852259
  64.2208442  33.1924103   4.4971564  63.8515664  32.5861098   3.1600280
  64.0828050  31.6240902  -2.5044919  63.2995572  32.1662582  -2.4106695
  64.7820795  32.1414882  -2.1050678  75.2454458  23.1375897   1.7807577
  75.2344334  24.0200612   1.4101511  74.3771837  22.7847448   1.5862115
  66.7536954  32.2855966   6.1410418  67.4664926  32.9203431   6.0686319
  66.2626983  32.3819832   5.3250420  61.8048868  30.0350409   6.9615989
  62.5058327  30.6686892   7.1145383  61.3343983  30.3765141   6.2011628
  69.6050154  22.5895017   4.7868539  68.9521604  22.8370924   4.1320992
  69.9830534  21.7759155   4.4531016  66.5657327  32.6254710  -1.1103291
  66.7479722  31.8076366  -0.6475539  67.3890314  32.8422402  -1.5478401
  65.6537727  23.3314828  11.2734576  64.9778364  23.2308957  11.9436951
  66.4765361  23.1754042  11.7370573  57.4016586  29.5686764   3.8947091
  57.9870023  28.8230452   4.0274995  57.2041424  29.8790721   4.7783755
  60.2555241  32.6038012  -1.0890466  59.5865616  33.0884140  -1.5726426
  60.1168111  32.8507232  -0.1747088  64.3960510  34.6381755   5.5092192
  64.9478818  34.8013377   6.2741277  64.7366703  35.2286193   4.8372217
  58.8477275  19.0580038   9.7587111  59.4749314  18.6757115  10.3724635
  57.9905194  18.8394240  10.1242803  69.2471384  29.4643013  11.3640846
  69.7911288  30.0772971  10.8695801  68.6658229  30.0222591  11.8807859
  67.5328897  32.5863731   2.4955874  67.4080036  31.7853471   1.9866820
  68.1907988  33.0809924   2.0069844  69.5963805  30.3872751   4.1235424
  68.6494141  30.2678102   4.0513751  69.9446578  29.4995249   4.2061686
  61.9563379  16.2766890   7.9473666  62.4797780  16.5229186   8.7099975
  61.7375712  17.1086925   7.5276803  66.6010238  30.1825467   0.3239776
  66.4535201  29.2542175   0.5047346  67.4263732  30.2045558  -0.1603148
  70.2044360  31.0054026   1.4104649  71.1290908  30.7996887   1.2729100
  70.0359664  30.7570427   2.3193991  69.9939677  31.5239693  -3.2333259
  70.1676554  30.9586116  -3.9859407  70.4868568  32.3240588  -3.4153769
  56.5982658  22.6624259   7.7260456  55.8564394  22.8106894   8.3125087
  56.2775402  22.9232524   6.8627206  64.5426321  32.2040237   7.5240846
  64.8513447  31.9589384   8.3963546  65.3401803  32.4086875   7.0359717
  64.5646933  34.3578147  -0.2453777  64.1251923  33.8654525   0.4479080
  65.3155050  33.8151114  -0.4861702  62.0120805  29.9016156   1.8268525
  61.3900814  29.2386861   1.5270752  62.6825672  29.9277288   1.1442172
  62.0845333  18.3797944  11.4201031  62.1333488  19.2560067  11.0378800
  62.6267847  17.8375337  10.8472674  72.5700178  28.9239067  10.7002168
  71.7795722  28.9063206  10.1606667  72.3333533  29.4627361  11.4551204
  72.6898053  25.7731533   8.0134896  72.7396058  25.6081541   8.9550419
  72.5811977  24.9058792   7.6232777  69.9801816  21.7562461   9.3294203
  70.8811678  21.6168926   9.0378201  70.0549790  21.9216916  10.2692380
  64.3144621  19.1329316   8.1747389  63.4447930  19.4262882   7.9029978
  64.5504101  19.7169761   8.8954653  74.1916250  28.1928475   8.2576918
  73.9001058  28.5558455   9.0940379  73.5788381  27.4795483   8.0790250
  72.4403438  23.3161090   6.7256976  72.9157560  23.5088736   5.9175827
  71.5169004  23.3720275   6.4800359  67.0183655  15.3508933   5.6912810
  67.5365599  16.0869960   5.3659298  66.6638788  15.6572926   6.5259569
  71.1405107  20.1926850   4.9585281  72.0922530  20.2924947   4.9797505
  70.9708558  19.4005118   5.4683366  69.1619487  17.2782433   5.1444682
  68.5669419  17.5587446   4.4491171  68.8769183  17.7676334   5.9161423
  73.6193185  23.4132969   4.0727581  73.5869505  22.4748970   4.2587265
  74.2293809  23.4917006   3.3393406  73.7687674  20.2044013   4.1185864
  73.2526722  19.4202469   3.9315793  74.6527622  19.8762729   4.2832384
  77.5185032  22.6156839   3.8108069  76.7918196  22.4812804   3.2024561
  77.1032319  22.9233667   4.6164787  65.3415209  26.3346768  11.5755442
  66.2618218  26.5125367  11.7695488  65.3064792  25.3902814  11.4235141
  58.3377281  24.2447803   4.2178223  58.5563291  25.1764911   4.2366257
  58.7503055  23.8855777   5.0033027  63.2105146  19.8181009  13.6080972
  63.1101873  20.7675366  13.5393063  62.9926688  19.4899248  12.7357042
  63.0736416  23.2478148  12.4246034  62.5903498  24.0478508  12.6309923
  63.1597355  23.2586093  11.4713478  59.0009754  27.1382682   4.4614467
  59.9553007  27.1066625   4.3944399  58.8022277  26.6773306   5.2764693
  59.5909136  25.7083798   7.0285265  60.4102025  26.2027877   7.0520102
  59.8645944  24.7915767   7.0002833  57.3559983  32.6802302   1.4784665
  57.2214451  31.9202703   0.9122663  56.9392045  33.4043202   1.0113454
  60.5129109  33.5771619   1.6903108  60.3961493  34.5217051   1.5881798
  59.6921555  33.2745180   2.0788907  67.3697442  27.1102780  13.2269603
  68.2388602  27.2843432  12.8656238  66.8904194  27.9297197  13.1045332
  61.5383623  34.2299881   4.9059036  62.4410869  34.2623491   5.2225531
  61.3120993  33.3000332   4.9205372  63.2937225  32.9830867   1.5669115
  62.3432856  32.9832729   1.4533487  63.5969711  32.2363602   1.0505150
  59.1841541  17.1889549  11.8252476  60.0473003  16.8326354  12.0355801
  58.6106952  16.8503444  12.5127881  79.0289918  38.8191406   2.6314877
  79.6668328  38.6998153   1.9278218  78.9110761  39.7672250   2.6902830
  75.8379624  38.7718834   2.5676402  75.4998136  38.6559898   1.6796937
  76.7069393  38.3709999   2.5477408  71.6966440  40.6254310  -1.4426707
  71.1331305  40.5344247  -2.2110419  71.5818835  39.8054215  -0.9624214
  76.3199407  39.9253686   8.5262608  76.3088048  39.5306484   7.6543111
  76.4820047  39.1919758   9.1196379  69.2430872  42.1205502   1.3957514
  70.0352164  41.7796326   0.9803813  69.4827522  42.2300477   2.3159667
  77.2765999  44.2925278  -6.1312242  76.6253979  44.8779358  -6.5178228
  78.0710362  44.8231473  -6.0717205  71.2021626  41.3814415  -5.7325108
  71.9752502  40.8343402  -5.8712232  71.5547025  42.2458664  -5.5210646
  73.0406669  42.7090797   7.4741792  72.7496535  43.6136428   7.3588458
  73.6763653  42.7507325   8.1885861  73.9662875  40.0867646   4.0643151
  74.5626448  39.8623668   3.3500114  74.0237847  39.3452391   4.6668599
  78.5831187  36.5442860  -0.2931915  79.3694276  36.1262283  -0.6441498
  78.8469891  37.4488952  -0.1250266  78.7541264  41.9815710  -5.5943258
  78.1187097  42.0550336  -4.8822353  78.4238670  42.5709309  -6.2724178
  73.2584193  39.4435187  -5.8982283  73.1420451  38.7680091  -5.2301198
  73.3686453  38.9567561  -6.7150130  75.6015734  38.9045334  -2.1935594
  75.2373941  38.3775955  -1.4822672  76.4582849  38.5143803  -2.3669108
  81.5065034  30.1939667   5.0695673  81.1748359  31.0635078   4.8456888
  80.9110648  29.8775951   5.7489703  77.9996554  42.3952213   4.4691585
  77.6997277  43.2977252   4.3607393  77.6547613  42.1284396   5.3212738
  71.4509035  38.8466010   0.5028290  70.5259532  38.7142224   0.7105982
  71.6993448  39.6260229   0.9998232  81.3993698  34.9134753   2.1489023
  80.4910575  34.8450161   1.8547784  81.3481293  35.3906698   2.9770848
  75.2210441  36.3892891  -6.2127578  75.1010067  36.8349942  -5.3742098
  74.5263030  36.7378209  -6.7714040  68.8117846  38.4899283   1.3372079
  68.9410227  38.7433762   2.2511491  68.1315298  39.0826991   1.0176734
  72.9817334  49.1596533  -2.5637447  72.9041363  50.1104358  -2.4848966
  72.3778977  48.8142406  -1.9062521  75.4734563  36.3324399  10.0923920
  74.6967897  36.8918319  10.0826785  76.1125126  36.8181182  10.6138790
  83.2655344  33.1151191   3.9266897  82.6229724  33.4083725   3.2806691
  82.7610272  33.0004112   4.7320093  73.7280936  39.1409852   9.6541887
  74.4695620  39.6794896   9.3776711  73.0217921  39.7676141   9.8113439
  79.2036275  41.2838992   8.2514048  79.6119631  40.8421403   7.5068681
  78.4813537  40.7091620   8.5048241  75.5567345  36.2211599   5.6247605
  76.4028540  36.6451013   5.7682254  75.4965983  35.5645224   6.3186168
  79.5265090  41.8440183   2.0066337  78.8973952  42.0085897   1.3042405
  79.1390752  42.2581793   2.7777301  83.4054322  42.7794621  -0.6389299
  82.7205360  43.1593522  -1.1892266  83.4898171  43.3889948   0.0942649
  78.7066791  33.8815968   7.2828779  78.4627722  34.6358028   6.7463055
  78.9826721  34.2601315   8.1176026  80.6605253  40.4254580   5.9606045
  80.8722149  41.0686340   5.2840426  80.6135002  39.5916896   5.4927975
  78.2631482  33.0372401   2.8642617  77.4015961  33.3353654   3.1559354
  78.2893917  33.2542799   1.9323649  75.0793052  41.5814591  -0.7283578
  75.5431397  41.8602294  -1.5178955  74.8149850  40.6798036  -0.9110487
  71.9717133  41.1286073   2.2096186  72.5418490  41.5573341   1.5713670
  72.5625245  40.8468657   2.9080371  74.0161938  37.7037744  -3.9194012
  74.7185981  38.1558787  -3.4520086  73.6842566  37.0621562  -3.2914119
  72.4642299  36.2949500  10.4557197  71.8340960  36.9765781  10.6892594
  72.3578387  36.1832582   9.5110335  67.7587272  35.9621296   1.3823121
  66.9686326  36.2178825   0.9063232  68.2498519  36.7769634   1.4875162
  81.7751081  43.3026535   4.1328402  82.5968525  42.9006723   3.8511084
  81.7713484  43.1994770   5.0844518  69.7102017  36.3265875  -1.6593402
  68.9133180  36.4384570  -1.1409907  69.4827609  36.6652528  -2.5252512
  75.5407685  42.8510579   6.2889112  75.6052117  43.3130986   7.1247284
  74.8318609  42.2207944   6.4171422  66.0424975  36.2151787   3.8138112
  66.2933013  37.0998797   4.0795688  66.5784523  36.0356388   3.0413204
  75.2555702  44.5178686  -3.8431907  75.1201377  45.3630222  -3.4147059
  75.7965515  44.7197964  -4.6065973  71.7423042  30.5970266  12.8182448
  71.3489988  30.0436465  13.4930092  72.5589182  30.9080844  13.2088966
  68.7085100  42.0354124  -3.2703982  69.2209620  42.8297374  -3.1198417
  69.3607813  41.3380415  -3.3370381  70.5179985  45.1519880  -1.1881229
  70.6946613  46.0737845  -1.3760245  71.3136818  44.8378300  -0.7586849
  74.6591003  32.0128145  10.4102705  75.4000716  32.6135298  10.3307167
  74.8908926  31.2705783   9.8520747  69.8032341  37.1984512   8.6880934
  69.6885856  36.2969770   8.9888033  68.9476859  37.4448209   8.3365751
  76.8824179  45.1402253  10.2868435  76.4388033  44.3538631   9.9689339
  77.5441392  45.3281403   9.6212326  71.6411300  46.6698054   4.8129113
  72.1918725  46.5415118   4.0406107  70.8022776  46.9692943   4.4624006
  78.9805417  45.4205053   8.3149836  78.9623892  46.2413934   7.8230105
  79.9025337  45.2959128   8.5399977  75.4378471  42.9349182   9.1573344
  75.9706808  42.1737470   8.9272652  74.9092552  42.6422834   9.8997499
  78.6048166  28.0409248   4.6866986  78.2612435  28.9310890   4.6106097
  78.9727129  27.8510906   3.8236571  66.6734017  40.3642778  -2.4944412
  67.5109239  40.7739787  -2.7110704  66.8512284  39.4242221  -2.5244218
  76.1545560  32.8767560  -1.7475340  75.2987156  32.4874410  -1.9269702
  76.5672512  32.9559521  -2.6075555  77.6844706  30.4113903   2.6516219
  77.1809502  30.3744038   1.8384025  77.9775313  31.3206646   2.7112876
  73.9287592  30.4952633   1.6582401  74.7940589  30.2995442   1.2988291
  73.9965101  30.2662985   2.5851758  76.8031184  42.0635175  -3.3307844
  76.2752545  41.3287934  -3.6434606  76.3018686  42.8409851  -3.5767875
  81.7824030  40.2584195   1.7859203  81.1247704  40.9483456   1.8739331
  82.5864429  40.6480627   2.1293189  71.5349911  32.7254841  -0.9701232
  72.1093663  32.5030022  -1.7028039  72.1220894  32.7943535  -0.2172631
  80.5929489  38.6128568  -0.1636855  81.1061370  39.2458560   0.3384854
  81.2430712  38.0129763  -0.5293495  73.8372579  29.5996090  -2.2426163
  73.1836991  29.2845107  -2.8669548  73.7953053  28.9771830  -1.5166340
  77.0710319  36.0878023   2.0821485  76.1532881  36.3092970   1.9243173
  77.4870463  36.1624334   1.2233192  77.8545367  37.4869439  -2.7875835
  78.6017186  37.9990836  -3.0968713  78.1236957  37.1653492  -1.9271441
  76.1272017  39.9827980  -5.8048880  75.2183237  39.6987012  -5.7076411
  76.1567101  40.4027058  -6.6645574  81.3591285  43.5934569  -2.0357713
  80.9053612  42.7525479  -1.9792522  80.7285251  44.2295968  -1.6982933
  79.8024224  45.4311066  -1.1007895  80.0947198  45.9916123  -1.8195529
  80.3122845  45.7239627  -0.3454736  66.6960188  37.7033494  -1.8233678
  66.4984588  37.1102855  -2.5482612  66.1406852  37.3985704  -1.1057739
  74.6756911  37.5956600   0.2960915  74.7305521  36.6430437   0.2203392
  73.8648113  37.7516039   0.7802213  72.6149271  36.2133660  -1.9448706
  71.8017137  36.5127831  -1.5383514  73.1108265  35.8189349  -1.2274224
  74.7657849  46.2091417  -0.0114441  74.7234028  46.4352263  -0.9405909
  75.6820548  45.9754792   0.1371360  78.2123483  36.6775484   6.8866188
  78.5672871  36.9046958   7.7460653  78.8595614  37.0093861   6.2643443
  72.1063346  33.7852016   3.6712529  72.7462725  33.6440775   2.9735492
  71.2740877  33.4986529   3.2951131  83.9690600  41.8670447   2.6026788
  84.4027106  41.7745736   3.4509842  84.6822180  41.8427948   1.9646804
  72.8823650  43.0854446  -0.2152479  73.6764248  42.5904766  -0.4169904
  72.1715342  42.5572309  -0.5784773  77.7018494  45.4672542   4.1359889
  77.7555517  46.0363478   4.9037605  76.8333276  45.6374427   3.7713926
  69.1906413  37.2297528  -4.1392726  68.2604002  37.1681983  -3.9222764
  69.2863885  36.7073480  -4.9356085  69.1091962  33.7552341  -1.5514484
  69.3698780  34.6697674  -1.6605324  69.9309135  33.2876783  -1.4017872
  70.5816888  35.1690098   5.6184340  71.2539941  34.9607460   4.9696989
  69.7546674  34.9712184   5.1789572  84.8306149  41.9094148   5.1359674
  85.0242039  42.8139959   5.3818949  84.7306767  41.4501567   5.9698259
  76.4842460  31.7952039   7.6350001  75.8370375  32.4941988   7.5414477
  77.2543475  32.2288183   8.0026249  79.8921258  42.0600891  10.7100554
  79.7406764  41.8311442   9.7930638  79.8825937  43.0171492  10.7231899
  76.6606594  39.6332804   5.6946821  77.5898654  39.7843963   5.5215788
  76.2397624  39.7216824   4.8395467  75.4594926  43.6583468   3.4645358
  75.3206012  43.2902252   4.3371296  74.6709522  44.1731107   3.2929316
  76.0543078  48.7592564  -5.1929105  76.2294834  48.2880608  -4.3783482
  75.3675866  49.3858331  -4.9647844  77.0100141  43.0365071   0.8534196
  76.6749974  42.9965841   1.7491846  76.5104087  42.3709787   0.3804606
  70.9844385  38.4432701   6.3786777  70.8464183  37.7112940   6.9798316
  71.8949309  38.3541601   6.0970965  73.6126686  38.1552660   5.8670457
  74.3226304  37.5145852   5.8257075  73.5695994  38.4065555   6.7896638
  81.6013464  45.0920013   8.7877036  81.5426011  44.4079233   8.1207619
  82.0032983  45.8339003   8.3357662  72.3255620  35.1417878   7.6866096
  71.7892977  34.6908616   8.3387693  71.7372328  35.2763787   6.9436561
  70.6204163  51.9081927   1.5810755  70.8600761  52.5400451   2.2589774
  69.7773360  51.5569967   1.8676114  81.6030872  43.0559597   7.0191016
  80.7157650  42.7185519   7.1417415  82.1729423  42.3242629   7.2559781
  63.2560019  39.3883689   0.3434067  63.9431059  39.0745419  -0.2444917
  63.1008148  40.2925054   0.0701319  68.0594741  34.2773886   4.7719091
  67.9752930  33.6699555   4.0369501  67.2377447  34.7682904   4.7728587
  75.1332025  47.7161050   3.9852259  75.0602197  48.5216021   4.4971564
  74.6909418  47.9153015   3.1600280  74.9221805  46.9532820  -2.5044919
  74.1389327  47.4954500  -2.4106695  75.6214550  47.4706799  -2.1050678
  78.2318455  32.7627449   0.1389286  78.7287154  32.0097411  -0.1809644
  77.4605436  32.7991766  -0.4267505  86.0848212  38.4667815   1.7807577
  86.0738088  39.3492530   1.4101511  85.2165592  38.1139365   1.5862115
  77.5930709  47.6147884   6.1410418  78.3058681  48.2495348   6.0686319
  77.1020737  47.7111750   5.3250420  79.3148236  41.5199136  -2.2872291
  78.3804514  41.6400599  -2.4567586  79.4924904  40.6171603  -2.5512281
  74.8153424  34.9044832  -0.1339029  74.4451211  34.3515872   0.5541876
  75.3112516  34.3002966  -0.6864029  72.6442622  45.3642327   6.9615989
  73.3452082  45.9978810   7.1145383  72.1737737  45.7057059   6.2011628
  80.7697018  43.7060277  -4.7536104  81.0456862  43.5916871  -3.8442230
  79.9001517  43.3077762  -4.7923931  80.6737450  29.7297043   2.2868645
  79.7600529  29.9601269   2.4550852  81.1030551  29.8135487   3.1382677
  80.4443908  37.9186935   4.7868539  79.7915358  38.1662842   4.1320992
  80.8224288  37.1051073   4.4531016  77.4051082  47.9546628  -1.1103291
  77.5873477  47.1368284  -0.6475539  78.2284068  48.1714320  -1.5478401
  77.7393247  46.8814813  -3.8488242  78.2681014  46.3707267  -4.4618080
  78.0021467  46.5657343  -2.9842709  76.4931481  38.6606746  11.2734576
  75.8172118  38.5600875  11.9436951  77.3159115  38.5045959  11.7370573
  68.2410340  44.8978682   3.8947091  68.8263777  44.1522370   4.0274995
  68.0435179  45.2082639   4.7783755  71.0948995  47.9329930  -1.0890466
  70.4259371  48.4176057  -1.5726426  70.9561865  48.1799150  -0.1747088
  62.8327995  37.4684282   2.6151534  62.8712094  36.9347873   3.4088652
  62.3268288  36.9419488   1.9962512  75.2354264  49.9673673   5.5092192
  75.7872572  50.1305295   6.2741277  75.5760457  50.5578111   4.8372217
  70.2118757  32.3148823   6.1114077  70.2760084  33.1763654   5.6991474
  70.1485877  31.7022825   5.3786435  69.6871030  34.3871955   9.7587111
  70.3143069  34.0049033  10.3724635  68.8298949  34.1686157  10.1242803
  80.0865138  44.7934931  11.3640846  80.6305042  45.4064889  10.8695801
  79.5051983  45.3514509  11.8807859  66.4636573  36.1948385  -4.3094534
  66.7590014  35.2859063  -4.3627481  65.5624608  36.1736124  -4.6313532
  78.3722651  47.9155649   2.4955874  78.2473791  47.1145388   1.9866820
  79.0301742  48.4101842   2.0069844  69.9930820  34.2704381   1.6733014
  69.2717405  34.8840349   1.5340488  70.7824075  34.8062146   1.5949660
  80.4357560  45.7164669   4.1235424  79.4887895  45.5970020   4.0513751
  80.7840333  44.8287167   4.2061686  72.7957133  31.6058808   7.9473666
  73.3191535  31.8521104   8.7099975  72.5769466  32.4378842   7.5276803
  68.1924414  33.8762482  -4.1855209  67.8637120  32.9959861  -4.3680103
  68.5463785  33.8210151  -3.2978820  77.4403993  45.5117385   0.3239776
  77.2928955  44.5834092   0.5047346  78.2657486  45.5337476  -0.1603148
  71.3066237  34.1635452  -3.8179731  71.6462310  34.6921373  -4.5401123
  71.7538358  34.5015858  -3.0421165  81.0438115  46.3345944   1.4104649
  81.9684662  46.1288805   1.2729100  80.8753418  46.0862345   2.3193991
  74.0009678  32.5472503   5.6323337  73.6606498  31.7480316   6.0344016
  73.2948684  32.8474214   5.0600170  74.6526150  29.6321815   4.0850660
  75.4752219  29.1582293   3.9629550  74.8964213  30.4112299   4.5849346
  72.1764729  36.3240936   1.8942638  72.0309309  36.6381239   2.7866920
  71.6989932  36.9425836   1.3413537  74.0361112  33.3143484   1.9423528
  74.0222680  32.4184577   1.6055826  74.7533540  33.3214148   2.5761814
  75.8887242  33.7480824   3.9876655  75.6305020  34.6697895   3.9860986
  75.3572283  33.3511259   4.6777119  80.8333431  46.8531611  -3.2333259
  81.0070309  46.2878034  -3.9859407  81.3262322  47.6532506  -3.4153769
  66.6510391  38.8646280   4.8330299  66.1063859  39.6406088   4.9650574
  67.5289741  39.2117085   4.6749421  73.4398007  32.1957864  -2.7888902
  73.5613919  31.2674510  -2.5898015  73.1500050  32.2096550  -3.7010587
  76.3089198  29.8812774   0.3477818  76.3310895  29.9452108  -0.6070203
  76.7257257  29.0417283   0.5418324  67.4376413  37.9916176   7.7260456
  66.6958149  38.1398812   8.3125087  67.1169157  38.2524442   6.8627206
  75.3820075  47.5332155   7.5240846  75.6907202  47.2881301   8.3963546
  76.1795557  47.7378793   7.0359717  75.4040687  49.6870064  -0.2453777
  74.9645678  49.1946443   0.4479080  76.1548804  49.1443032  -0.4861702
  67.8833026  45.8781605  -0.2429149  68.7091046  45.5785377  -0.6230506
  67.5327078  45.1089228   0.2060640  72.8514560  45.2308073   1.8268525
  72.2294569  44.5678778   1.5270752  73.5219426  45.2569205   1.1442172
  66.0841631  43.7967932   0.7159785  65.2473540  43.3690106   0.5343786
  66.0565277  43.9900375   1.6530576  72.9239087  33.7089861  11.4201031
  72.9727242  34.5851984  11.0378800  73.4661601  33.1667254  10.8472674
  83.4093933  44.2530985  10.7002168  82.6189476  44.2355124  10.1606667
  83.1727287  44.7919278  11.4551204  83.5291808  41.1023451   8.0134896
  83.5789813  40.9373458   8.9550419  83.4205731  40.2350710   7.6232777
  72.4128066  43.7811997  -4.6973015  72.5616187  44.4647461  -5.3506342
  73.2194510  43.7617087  -4.1823559  80.8195570  37.0854379   9.3294203
  81.7205433  36.9460844   9.0378201  80.8943545  37.2508834  10.2692380
  75.1538375  34.4621234   8.1747389  74.2841685  34.7554800   7.9029978
  75.3897856  35.0461679   8.8954653  85.0310005  43.5220393   8.2576918
  84.7394813  43.8850373   9.0940379  84.4182136  42.8087401   8.0790250
  83.2797193  38.6453007   6.7256976  83.7551314  38.8380653   5.9175827
  82.3562758  38.7012193   6.4800359  70.1680699  39.8077174  -3.6911946
  69.9226741  38.9039504  -3.4931736  70.3376614  39.8094325  -4.6332468
  77.8577409  30.6800851   5.6912810  78.3759353  31.4161878   5.3659298
  77.5032542  30.9864844   6.5259569  81.9798862  35.5218767   4.9585281
  82.9316285  35.6216865   4.9797505  81.8102312  34.7297036   5.4683366
  80.0013241  32.6074350   5.1444682  79.4063173  32.8879363   4.4491171
  79.7162938  33.0968251   5.9161423  84.4586940  38.7424887   4.0727581
  84.4263260  37.8040888   4.2587265  85.0687563  38.8208924   3.3393406
  84.6081428  35.5335930   4.1185864  84.0920477  34.7494387   3.9315793
  85.4921377  35.2054647   4.2832384  88.3578787  37.9448756   3.8108069
  87.6311950  37.8104721   3.2024561  87.9426073  38.2525585   4.6164787
  76.1808963  41.6638686  11.5755442  77.1011972  41.8417285  11.7695488
  76.1458546  40.7194731  11.4235141  65.3991128  36.8577280   0.5008717
  65.0793912  36.0042588   0.2083091  64.8524556  37.0725858   1.2566684
  69.1771036  39.5739721   4.2178223  69.3957045  40.5056829   4.2366257
  69.5896809  39.2147695   5.0033027  74.0498901  35.1472926  13.6080972
  73.9495628  36.0967283  13.5393063  73.8320443  34.8191165  12.7357042
  65.2679388  40.4780191   2.4701838  64.5742859  40.0634144   1.9571793
  66.0152379  40.5200728   1.8735257  73.9130171  38.5770065  12.4246034
  73.4297253  39.3770425  12.6309923  73.9991110  38.5878010  11.4713478
  67.1816131  40.4098445   0.3467853  67.1586819  40.5086132  -0.6050264
  67.4916767  41.2563596   0.6685019  69.8403508  42.4674600   4.4614467
  70.7946762  42.4358542   4.3944399  69.6416032  42.0065224   5.2764693
  70.4302891  41.0375716   7.0285265  71.2495780  41.5319795   7.0520102
  70.7039698  40.1207684   7.0002833  68.1953737  48.0094220   1.4784665
  68.0608205  47.2494620   0.9122663  67.7785799  48.7335119   1.0113454
  71.3522863  48.9063537   1.6903108  71.2355247  49.8508969   1.5881798
  70.5315309  48.6037098   2.0788907  65.6837805  35.3713850   7.7277462
  66.3296668  34.8612804   8.2164687  65.4754956  36.1082532   8.3020887
  78.2091197  42.4394697  13.2269603  79.0782357  42.6135350  12.8656238
  77.7297948  43.2589114  13.1045332  72.3777377  49.5591798   4.9059036
  73.2804624  49.5915409   5.2225531  72.1514747  48.6292249   4.9205372
  74.1330979  48.3122785   1.5669115  73.1826610  48.3124647   1.4533487
  74.4363465  47.5655520   1.0505150  70.0235296  32.5181467  11.8252476
  70.8866757  32.1618272  12.0355801  69.4500706  32.1795362  12.5127881
  86.6773379  54.1010751   2.5676402  86.3391891  53.9851816   1.6796937
  87.5463147  53.7001917   2.5477408  87.1593162  55.2545603   8.5262608
  87.1481803  54.8598401   7.6543111  87.3213801  54.5211676   9.1196379
  80.0824627  57.4497419   1.3957514  80.8745919  57.1088244   0.9803813
  80.3221277  57.5592395   2.3159667  83.8800423  58.0382715   7.4741792
  83.5890289  58.9428346   7.3588458  84.5157407  58.0799243   8.1885861
  84.8056630  55.4159564   4.0643151  85.4020202  55.1915586   3.3500114
  84.8631602  54.6744309   4.6668599  92.3458789  45.5231585   5.0695673
  92.0142113  46.3926995   4.8456888  91.7504402  45.2067869   5.7489703
  82.2902790  54.1757927   0.5028290  81.3653286  54.0434141   0.7105982
  82.5387203  54.9552147   0.9998232  92.2387452  50.2426671   2.1489023
  91.3304329  50.1742079   1.8547784  92.1875048  50.7198616   2.9770848
  79.6511601  53.8191201   1.3372079  79.7803982  54.0725680   2.2511491
  78.9709052  54.4118909   1.0176734  86.3128318  51.6616316  10.0923920
  85.5361652  52.2210236  10.0826785  86.9518881  52.1473099  10.6138790
  94.1049098  48.4443109   3.9266897  93.4623479  48.7375642   3.2806691
  93.6004027  48.3296029   4.7320093  84.5674690  54.4701770   9.6541887
  85.3089374  55.0086814   9.3776711  83.8611676  55.0968058   9.8113439
  90.0430030  56.6130910   8.2514048  90.4513386  56.1713321   7.5068681
  89.3207291  56.0383538   8.5048241  86.3961100  51.5503517   5.6247605
  87.2422295  51.9742930   5.7682254  86.3359737  50.8937141   6.3186168
  89.5460545  49.2107885   7.2828779  89.3021477  49.9649946   6.7463055
  89.8220476  49.5893233   8.1176026  91.4999008  55.7546498   5.9606045
  91.7115903  56.3978258   5.2840426  91.4528756  54.9208814   5.4927975
  89.1025237  48.3664318   2.8642617  88.2409716  48.6645572   3.1559354
  89.1287671  48.5834717   1.9323649  83.3036054  51.6241418  10.4557197
  82.6734714  52.3057699  10.6892594  83.1972142  51.5124499   9.5110335
  78.5981026  51.2913214   1.3823121  77.8080080  51.5470742   0.9063232
  79.0892274  52.1061552   1.4875162  86.3801439  58.1802496   6.2889112
  86.4445872  58.6422904   7.1247284  85.6712363  57.5499861   6.4171422
  76.8818729  51.5443704   3.8138112  77.1326768  52.4290714   4.0795688
  77.4178278  51.3648306   3.0413204  82.5816797  45.9262184  12.8182448
  82.1883742  45.3728382  13.4930092  83.3982937  46.2372762  13.2088966
  85.4984758  47.3420063  10.4102705  86.2394471  47.9427216  10.3307167
  85.7302680  46.5997701   9.8520747  80.6426096  52.5276430   8.6880934
  80.5279611  51.6261687   8.9888033  79.7870613  52.7740127   8.3365751
  87.7217933  60.4694170  10.2868435  87.2781787  59.6830549   9.9689339
  88.3835147  60.6573321   9.6212326  89.8199171  60.7496970   8.3149836
  89.8017647  61.5705851   7.8230105  90.7419091  60.6251045   8.5399977
  86.2772226  58.2641100   9.1573344  86.8100562  57.5029388   8.9272652
  85.7486307  57.9714752   9.8997499  89.4441920  43.3701166   4.6866986
  89.1006190  44.2602807   4.6106097  89.8120883  43.1802823   3.8236571
  88.5238461  45.7405821   2.6516219  88.0203256  45.7035956   1.8384025
  88.8169068  46.6498564   2.7112876  84.7681347  45.8244551   1.6582401
  85.6334344  45.6287359   1.2988291  84.8358856  45.5954902   2.5851758
  82.3743666  48.0546759  -0.9701232  82.9487418  47.8321940  -1.7028039
  82.9614648  48.1235453  -0.2172631  84.6766334  44.9288007  -2.2426163
  84.0230746  44.6137025  -2.8669548  84.6346808  44.3063748  -1.5166340
  87.9104074  51.4169941   2.0821485  86.9926635  51.6384888   1.9243173
  88.3264218  51.4916251   1.2233192  77.5353942  53.0325411  -1.8233678
  77.3378342  52.4394772  -2.5482612  76.9800606  52.7277622  -1.1057739
  85.5150666  52.9248518   0.2960915  85.5699276  51.9722354   0.2203392
  84.7041868  53.0807957   0.7802213  89.0517237  52.0067402   6.8866188
  89.4066625  52.2338875   7.7460653  89.6989369  52.3385779   6.2643443
  82.9457101  49.1143933   3.6712529  83.5856480  48.9732692   2.9735492
  82.1134631  48.8278447   3.2951131  79.9485717  49.0844258  -1.5514484
  80.2092534  49.9989591  -1.6605324  80.7702889  48.6168701  -1.4017872
  81.4210642  50.4982015   5.6184340  82.0933696  50.2899378   4.9696989
  80.5940429  50.3004101   5.1789572  87.3236214  47.1243956   7.6350001
  86.6764129  47.8233906   7.5414477  88.0937230  47.5580100   8.0026249
  90.7315012  57.3892808  10.7100554  90.5800519  57.1603360   9.7930638
  90.7219692  58.3463410  10.7231899  87.5000349  54.9624721   5.6946821
  88.4292409  55.1135881   5.5215788  87.0791379  55.0508742   4.8395467
  81.8238140  53.7724618   6.3786777  81.6857938  53.0404857   6.9798316
  82.7343063  53.6833518   6.0970965  84.4520440  53.4844578   5.8670457
  85.1620059  52.8437770   5.8257075  84.4089748  53.7357473   6.7896638
  92.4407219  60.4211931   8.7877036  92.3819765  59.7371151   8.1207619
  92.8426737  61.1630921   8.3357662  83.1649374  50.4709796   7.6866096
  82.6286731  50.0200534   8.3387693  82.5766083  50.6055704   6.9436561
  92.4424626  58.3851515   7.0191016  91.5551405  58.0477437   7.1417415
  93.0123177  57.6534546   7.2559781  74.0953773  54.7175607   0.3434067
  74.7824813  54.4037337  -0.2444917  73.9401902  55.6216971   0.0701319
  78.8988495  49.6065803   4.7719091  78.8146684  48.9991473   4.0369501
  78.0771202  50.0974822   4.7728587  89.0712209  48.0919367   0.1389286
  89.5680909  47.3389329  -0.1809644  88.2999191  48.1283683  -0.4267505
  85.6547178  50.2336750  -0.1339029  85.2844966  49.6807790   0.5541876
  86.1506271  49.6294883  -0.6864029  83.4836377  60.6934245   6.9615989
  84.1845836  61.3270728   7.1145383  83.0131492  61.0348976   6.2011628
  91.5131204  45.0588960   2.2868645  90.5994284  45.2893187   2.4550852
  91.9424306  45.1427404   3.1382677  91.2837663  53.2478852   4.7868539
  90.6309113  53.4954760   4.1320992  91.6618043  52.4342990   4.4531016
  87.3325236  53.9898663  11.2734576  86.6565873  53.8892793  11.9436951
  88.1552870  53.8337877  11.7370573  79.0804095  60.2270600   3.8947091
  79.6657532  59.4814288   4.0274995  78.8828933  60.5374557   4.7783755
  73.6721749  52.7976200   2.6151534  73.7105849  52.2639791   3.4088652
  73.1662042  52.2711406   1.9962512  81.0512512  47.6440741   6.1114077
  81.1153838  48.5055571   5.6991474  80.9879632  47.0314742   5.3786435
  80.5264784  49.7163873   9.7587111  81.1536823  49.3340950  10.3724635
  79.6692703  49.4978075  10.1242803  90.9258893  60.1226848  11.3640846
  91.4698797  60.7356807  10.8695801  90.3445738  60.6806427  11.8807859
  80.8324574  49.5996299   1.6733014  80.1111160  50.2132266   1.5340488
  81.6217830  50.1354064   1.5949660  83.6350888  46.9350725   7.9473666
  84.1585289  47.1813022   8.7099975  83.4163221  47.7670760   7.5276803
  79.0318169  49.2054400  -4.1855209  78.7030875  48.3251779  -4.3680103
  79.3857539  49.1502069  -3.2978820  84.8403433  47.8764420   5.6323337
  84.5000253  47.0772233   6.0344016  84.1342439  48.1766131   5.0600170
  85.4919904  44.9613733   4.0850660  86.3145974  44.4874211   3.9629550
  85.7357968  45.7404217   4.5849346  83.0158483  51.6532853   1.8942638
  82.8703064  51.9673157   2.7866920  82.5383687  52.2717754   1.3413537
  84.8754866  48.6435401   1.9423528  84.8616435  47.7476495   1.6055826
  85.5927294  48.6506065   2.5761814  86.7280997  49.0772742   3.9876655
  86.4698775  49.9989812   3.9860986  86.1966037  48.6803176   4.6777119
  77.4904145  54.1938198   4.8330299  76.9457613  54.9698006   4.9650574
  78.3683495  54.5409002   4.6749421  87.1482952  45.2104692   0.3477818
  87.1704649  45.2744025  -0.6070203  87.5651011  44.3709201   0.5418324
  78.2770167  53.3208094   7.7260456  77.5351903  53.4690729   8.3125087
  77.9562911  53.5816360   6.8627206  86.2213830  62.8624072   7.5240846
  86.5300956  62.6173219   8.3963546  87.0189312  63.0670711   7.0359717
  76.9235386  59.1259849   0.7159785  76.0867294  58.6982024   0.5343786
  76.8959031  59.3192293   1.6530576  83.7632842  49.0381779  11.4201031
  83.8120997  49.9143902  11.0378800  84.3055356  48.4959172  10.8472674
  94.2487687  59.5822902  10.7002168  93.4583231  59.5647041  10.1606667
  94.0121042  60.1211196  11.4551204  94.3685562  56.4315369   8.0134896
  94.4183567  56.2665376   8.9550419  94.2599486  55.5642628   7.6232777
  91.6589325  52.4146297   9.3294203  92.5599187  52.2752762   9.0378201
  91.7337299  52.5800752  10.2692380  85.9932130  49.7913151   8.1747389
  85.1235439  50.0846718   7.9029978  86.2291610  50.3753596   8.8954653
  95.8703759  58.8512310   8.2576918  95.5788567  59.2142291   9.0940379
  95.2575890  58.1379319   8.0790250  94.1190947  53.9744925   6.7256976
  94.5945069  54.1672571   5.9175827  93.1956513  54.0304111   6.4800359
  88.6971164  46.0092768   5.6912810  89.2153108  46.7453795   5.3659298
  88.3426297  46.3156762   6.5259569  92.8192616  50.8510685   4.9585281
  93.7710039  50.9508783   4.9797505  92.6496067  50.0588953   5.4683366
  90.8406996  47.9366268   5.1444682  90.2456928  48.2171281   4.4491171
  90.5556692  48.4260169   5.9161423  95.4475183  50.8627848   4.1185864
  94.9314231  50.0786305   3.9315793  96.3315131  50.5346565   4.2832384
  87.0202717  56.9930604  11.5755442  87.9405727  57.1709203  11.7695488
  86.9852301  56.0486649  11.4235141  76.2384882  52.1869197   0.5008717
  75.9187667  51.3334506   0.2083091  75.6918311  52.4017776   1.2566684
  80.0164790  54.9031638   4.2178223  80.2350800  55.8348746   4.2366257
  80.4290564  54.5439613   5.0033027  84.8892655  50.4764844  13.6080972
  84.7889382  51.4259201  13.5393063  84.6714197  50.1483083  12.7357042
  76.1073142  55.8072109   2.4701838  75.4136614  55.3926062   1.9571793
  76.8546133  55.8492645   1.8735257  84.7523925  53.9061983  12.4246034
  84.2691007  54.7062343  12.6309923  84.8384864  53.9169928  11.4713478
  78.0209885  55.7390363   0.3467853  77.9980573  55.8378050  -0.6050264
  78.3310522  56.5855513   0.6685019  80.6797263  57.7966518   4.4614467
  81.6340516  57.7650460   4.3944399  80.4809786  57.3357141   5.2764693
  81.2696645  56.3667634   7.0285265  82.0889534  56.8611712   7.0520102
  81.5433453  55.4499602   7.0002833  76.5231559  50.7005768   7.7277462
  77.1690423  50.1904722   8.2164687  76.3148710  51.4374449   8.3020887
  89.0484951  57.7686615  13.2269603  89.9176111  57.9427267  12.8656238
  88.5691703  58.5881032  13.1045332  80.8629050  47.8473385  11.8252476
  81.7260512  47.4910190  12.0355801  80.2894461  47.5087280  12.5127881
  93.4210551  61.2554101  12.8182448  93.0277497  60.7020300  13.4930092
  94.2376691  61.5664680  13.2088966  91.3658539  65.0455791   9.7587111
  91.9930578  64.6632868  10.3724635  90.5086458  64.8269993  10.1242803
  95.7286410  65.8056762  13.6080972  95.6283137  66.7551119  13.5393063
  95.5107952  65.4775001  12.7357042  91.7022805  63.1765302  11.8252476
  92.5654266  62.8202107  12.0355801  91.1288215  62.8379197  12.5127881
   3.1507032  77.9695082  66.8586837   2.3970741  77.4002481  66.7030842
   3.2854573  77.9357747  67.8057472   3.5613447  78.1270692  69.5907081
   4.2916836  77.8655981  70.1514785   2.9520393  77.3899414  69.6309149
   1.6428744  76.2678555  70.1881533   0.9161908  76.1334520  69.5798024
   1.2276031  76.5755384  70.9938251   1.5677612  75.7956608  66.3158385
   1.0077170  75.8649797  67.0889947   0.9621115  75.6197593  65.5957882
   2.7074899  90.1964576  66.0841549   3.4937988  89.7783999  65.7331966
   2.9713603  91.1010668  66.2523198   8.1083326  90.1339809  66.9874528
   8.8408498  89.5639026  67.2212357   7.3522682  89.7461410  67.4281033
   5.6308746  83.8461383  71.4469136   5.2992071  84.7156794  71.2230351
   5.0354360  83.5297667  72.1263167   5.5237410  88.5656469  68.5262486
   4.6154287  88.4971878  68.2321247   5.4725006  89.0428414  69.3544312
   7.3899056  86.7672908  70.3040360   6.7473436  87.0605441  69.6580155
   6.8853985  86.6525828  71.1093557   5.0439220  90.5136081  60.9926220
   5.9557076  90.7463468  60.8173917   4.5348867  91.0973125  60.4301298
   2.8310503  87.5337684  73.6602243   2.5871435  88.2879744  73.1236518
   3.1070433  87.9123031  74.4949490   2.3875195  86.6894117  69.2416080
   1.5259674  86.9875370  69.5332818   2.4137629  86.9064516  68.3097113
  13.9900787  93.2987000  66.8586837  13.2364495  92.7294398  66.7030842
  14.1248328  93.2649665  67.8057472   2.7291878  81.6930964  71.0640450
   2.3856148  82.5832606  70.9879561   3.0970841  81.5032622  70.2010035
   2.6942161  91.6839575  59.5712885   2.1788784  92.4544180  59.8101272
   2.4219469  91.0104712  60.1945947   1.8088419  84.0635619  69.0289683
   1.3053214  84.0265755  68.2157488   2.1019026  84.9728362  69.0886340
   7.6676435  94.4371930  61.5066059   6.8905878  94.0983090  61.0621221
   8.3467916  94.4424553  60.8321024   2.4828464  89.5566668  61.3972666
   2.1778600  89.8712817  62.2482809   3.4358906  89.6348087  61.4399999
   4.7173201  92.2650284  66.2136608   5.2305083  92.8980276  66.7158318
   5.3674425  91.6651480  65.8479968   1.9789079  91.1391155  63.5897629
   2.7260898  91.6512552  63.2804751   2.2480669  90.8175208  64.4502023
   4.4267917  88.1748272  65.5716418   3.6890673  87.6625658  65.9026661
   4.6794690  87.7348653  64.7599695   4.5279544  80.9524524  66.1658188
   4.8338421  80.0921887  65.8784103   5.2532149  81.5442144  65.9657182
   2.3367195  90.3297201  73.2639651   2.6916583  90.5568674  74.1234117
   2.9839326  90.6615578  72.6416907   8.0664932  93.4515637  63.9688980
   7.9282831  93.6417233  63.0410170   7.7101151  94.2135020  64.4257032
   2.3562167  86.4149165  66.5162750   2.8530867  85.6619128  66.1963820
   1.5849149  86.4513482  65.9505959  10.2091925  92.1189531  68.1581041
  10.1981801  93.0014246  67.7874974   9.3409304  91.7661082  67.9635578
   6.8264499  91.0138172  64.6251207   7.2924951  91.8466164  64.5511510
   7.2772000  90.5483154  65.3296466   4.7981162  83.3818759  68.6642109
   3.8844242  83.6122986  68.8324315   5.2274263  83.4657203  69.5156141
   4.5687620  91.5708651  71.1642003   3.9159071  91.8184558  70.5094455
   4.9468000  90.7572789  70.8304480   1.5609220  87.0176939  61.6945357
   1.7772834  87.9001577  61.3934186   1.0803287  86.6263152  60.9650999
  10.8116534  93.2689750  64.7630504  11.2547681  92.5197076  64.3649627
   9.9343045  93.2599887  64.3804236   7.6535520  94.7545167  74.3908360
   7.7033525  94.5895175  75.3323883   7.5449443  93.8872426  74.0006241
   4.9439282  90.7376095  75.7067667   5.8449145  90.5982560  75.4151664
   5.0187257  90.9030550  76.6465844  10.3549399  94.7394989  67.1552952
  11.1896291  95.1784793  67.3190512  10.4908528  94.2633642  66.3361197
   7.4040905  92.2974723  73.1030439   7.8795027  92.4902370  72.2949291
   6.4806470  92.3533909  72.8573823   1.9821122  84.3322567  72.0686273
   2.5003065  85.0683594  71.7432762   1.6276254  84.6386560  72.9033032
   2.2333716  80.7522850  67.5887170   2.5135470  80.0846039  68.2147596
   3.0184323  80.9451945  67.0761834   6.1042574  89.1740484  71.3358745
   7.0559997  89.2738581  71.3570969   5.9346025  88.3818752  71.8456829
   4.1256954  86.2596067  71.5218146   3.5306886  86.5401080  70.8264635
   3.8406650  86.7489968  72.2934887   8.5830652  92.3946603  70.4501045
   8.5506972  91.4562604  70.6360728   9.1931276  92.4730640  69.7166870
   8.7325140  89.1857647  70.4959328   8.2164189  88.4016103  70.3089257
   9.6165089  88.8576363  70.6605847   6.3935867  82.9298662  66.4555141
   6.1960688  82.6213750  67.3398472   7.0035573  83.6560301  66.5853070
  14.4007202  93.4562610  69.5907081  15.1310590  93.1947898  70.1514785
  13.7914147  92.7191332  69.6309149  12.4822499  91.5970473  70.1881533
  11.7555662  91.4626438  69.5798024  12.0669786  91.9047301  70.9938251
   2.1509514  82.8107569  64.2051672   2.7040553  83.2303023  64.8641695
   2.3879600  81.8843317  64.2474628   5.5288321  84.9208094  63.7130336
   4.9486990  85.5792898  63.3308389   5.2624254  84.0985439  63.3017754
   3.9791887  84.3213152  65.9151656   4.4791666  84.4329687  65.1065975
   4.6227495  84.0174205  66.5552465   4.3113199  87.0808185  62.7686684
   3.4239054  87.3657835  62.5506879   4.7267188  86.9201948  61.9213961
   7.6627735  87.1054706  66.4841024   8.4388125  87.5951158  66.7565640
   6.9375869  87.5312760  66.9412893  10.1000294  87.8182325  67.5414964
  10.6944785  87.5778061  66.8308272  10.1726877  87.0989455  68.1688501
   4.2854223  92.5962721  62.9836975   4.2289424  93.0531272  62.1444607
   4.8382565  91.8353405  62.8059817   8.0959029  88.3852452  63.8087094
   7.8395963  87.9849088  64.6395302   7.4711897  89.0996246  63.6837233
  12.4071367  91.1248526  66.3158385  11.8470925  91.1941715  67.0889947
  11.8014870  90.9489510  65.5957882   2.1437247  79.8818388  64.1120759
   1.3769643  79.3276874  64.2577441   2.5547952  79.9540256  64.9734911
  15.3673298  96.2816441  66.1658188  15.6732175  95.4213805  65.8784103
  16.0925903  96.8734061  65.9657182  13.0727470  96.0814767  67.5887170
  13.3529224  95.4137956  68.2147596  13.8578077  96.2743863  67.0761834
  12.9831001  95.2110305  64.1120759  12.2163397  94.6568792  64.2577441
  13.3941706  95.2832174  64.9734911   3.1507033  54.9757205  53.5832144
   2.3970742  54.4064603  53.4276148   3.2854575  54.9419870  54.5302778
   3.5613449  55.1332815  56.3152388   4.2916837  54.8718103  56.8760091
   2.9520394  54.3961537  56.3554456   1.6428746  53.2740678  56.9126839
   0.9161909  53.1396643  56.3043331   1.2276033  53.5817506  57.7183557
   1.5677613  52.8018731  53.0403692   1.0077171  52.8711920  53.8135254
   0.9621117  52.6259715  52.3203188   3.1533632  69.4775245  55.7333648
   3.7912042  69.3581992  55.0296988   3.0354475  70.4256089  55.7921600
   1.4009712  74.9509117  46.9706528   0.7497692  75.5363197  46.5840542
   2.1954075  75.4815312  47.0301566   2.7074900  67.2026698  52.8086856
   3.4937989  66.7846122  52.4577273   2.9713605  68.1072791  52.9768504
   2.8784978  72.6399549  47.5075513   2.2430811  72.7134175  48.2196417
   2.5482384  73.2293148  46.8294592   8.1083327  67.1401932  53.7119834
   8.8408499  66.5701148  53.9457664   7.3522683  66.7523532  54.1526340
   5.6308748  60.8523506  58.1714443   5.2992072  61.7218917  57.9475658
   5.0354361  60.5359790  58.8508473   2.1240267  73.0536052  57.5710356
   1.8240990  73.9561091  57.4626163   1.7791327  72.7868235  58.4231509
   5.5237411  65.5718592  55.2507793   4.6154288  65.5034000  54.9566554
   5.4725007  66.0490537  56.0789619   7.3899057  63.7735030  57.0285667
   6.7473438  64.0667563  56.3825462   6.8853986  63.6587951  57.8338864
   5.0439221  67.5198204  47.7171526   5.9557077  67.7525590  47.5419224
   4.5348868  68.1035248  47.1546605   3.3279989  71.9422831  61.3532819
   3.7363345  71.5005242  60.6087451   2.6057250  71.3675459  61.6067012
   3.6508803  72.5024022  55.1085108   3.0217666  72.6669736  54.4061176
   3.2634465  72.9165632  55.8796072   7.5298035  73.4378460  52.4629471
   6.8449073  73.8177361  51.9126505   7.6141885  74.0473786  53.1961419
   2.8310504  64.5399806  60.3847549   2.5871436  65.2941867  59.8481825
   3.1070435  64.9185154  61.2194796   4.7848967  71.0838419  59.0624815
   4.9965862  71.7270179  58.3859196   4.7378715  70.2500735  58.5946745
   2.3875196  63.6956239  55.9661387   1.5259675  63.9937493  56.2578125
   2.4137631  63.9126638  55.0342420   5.8994795  73.9610374  57.2347172
   6.7212239  73.5590562  56.9529854   5.8957198  73.8578608  58.1863288
  13.9900788  70.3049123  53.5832144  13.2364496  69.7356521  53.4276148
  14.1248329  70.2711787  54.5302778   1.0067892  75.7986092  63.3887205
   0.5631747  75.0122470  63.0708110   1.6685106  75.9865242  62.7231096
   3.1049130  76.0788891  61.4168606   3.0867606  76.8997773  60.9248876
   4.0269050  75.9542967  61.6418748   2.7291880  58.6993087  57.7885757
   2.3856149  59.5894729  57.7124867   3.0970842  58.5094745  56.9255342
   2.6942162  68.6901698  46.2958192   2.1788786  69.4606303  46.5346579
   2.4219471  68.0166834  46.9191253   1.8088420  61.0697742  55.7534990
   1.3053216  61.0327877  54.9402795   2.1019027  61.9790485  55.8131647
   7.6676436  71.4434053  48.2311365   6.8905879  71.1045212  47.7866527
   8.3467917  71.4486676  47.5566330   2.4828465  66.5628790  48.1217973
   2.1778601  66.8774939  48.9728116   3.4358908  66.6410210  48.1645306
   5.9067743  70.9168034  54.8877973   5.2491418  71.6067295  54.9758102
   6.7108143  71.3064466  55.2311960   4.7173202  69.2712407  52.9381915
   5.2305084  69.9042398  53.4403625   5.3674426  68.6713602  52.5725275
   1.9795576  79.2496731  45.6942586   1.3057275  79.5528428  46.3027544
   2.3661398  80.0525811  45.3448043   1.9789081  68.1453278  50.3142936
   2.7260900  68.6574675  50.0050058   2.2480670  67.8237331  51.1747329
   5.4834998  74.2518408  51.0661058   5.0297325  73.4109318  51.1226248
   4.8528965  74.8879806  51.4035838   4.4267918  65.1810394  52.2961725
   3.6890675  64.6687780  52.6271968   4.6794691  64.7410776  51.4845002
   3.9267938  76.0894905  52.0010876   4.2190912  76.6499962  51.2823241
   4.4366558  76.3823466  52.7564035   4.5279545  57.9586646  52.8903494
   4.8338422  57.0984010  52.6029409   5.2532150  58.5504266  52.6902488
   2.3367197  67.3359323  59.9884958   2.6916584  67.5630797  60.8479424
   2.9839328  67.6677700  59.3662213   8.0664933  70.4577759  50.6934287
   7.9282832  70.6479355  49.7655476   7.7101152  71.2197142  51.1502338
   8.0934313  72.5254286  55.7045559   8.5270820  72.4329575  56.5528613
   8.8065894  72.5011787  55.0665575   1.8262208  76.1256380  57.2378659
   1.8799230  76.6947317  58.0056375   0.9576989  76.2958265  56.8732696
   8.9549863  72.5677987  58.2378444   9.1485753  73.4723797  58.4837719
   8.8550481  72.1085406  59.0717029   4.0164971  72.7184730  63.8119325
   3.8650478  72.4895281  62.8949408   4.0069651  73.6755331  63.8250670
   1.1343855  73.6948910  53.9552966   0.7993687  73.6549680  54.8510616
   0.6347800  73.0293625  53.4823377   4.0703046  71.0404944  44.2290026
   3.4532217  70.3151772  44.1323079   3.6019535  71.8014304  43.8857100
   5.7257178  75.7503852  61.8895807   5.6669724  75.0663072  61.2226390
   6.1276696  76.4922842  61.4376432   5.7274585  73.7143436  60.1209786
   4.8401364  73.3769358  60.2436185   6.2973136  72.9826467  60.3578552
   2.3562168  63.4211288  53.2408056   2.8530868  62.6681250  52.9209127
   1.5849150  63.4575605  52.6751266  10.2091926  69.1251654  54.8826348
  10.1981802  70.0076369  54.5120281   9.3409305  68.7723204  54.6880885
   1.7174422  78.2731723  59.2429188   2.4302394  78.9079187  59.1705090
   1.2264451  78.3695589  58.4269190   3.4391949  72.1782975  50.8146480
   2.5048228  72.2984438  50.6451184   3.6168618  71.2755442  50.5506490
   6.8264500  68.0200295  51.3496514   7.2924953  68.8528286  51.2756817
   7.2772001  67.5545276  52.0541772   4.8940732  74.3644116  48.3482666
   5.1700575  74.2500710  49.2576540   4.0245230  73.9661601  48.3094839
   4.7981163  60.3880882  55.3887415   3.8844243  60.6185108  55.5569622
   5.2274265  60.4719326  56.2401448   4.5687622  68.5770773  57.8887309
   3.9159072  68.8246681  57.2339762   4.9468002  67.7634912  57.5549787
   1.5294796  78.6130467  51.9915480   1.7117190  77.7952123  52.4543232
   2.3527782  78.8298159  51.5540370   1.8636961  77.5398652  49.2530528
   2.3924727  77.0291106  48.6400690   2.1265181  77.2241182  50.1176061
   4.2108852  75.4518770  64.4659617   4.7548756  76.0648728  63.9714572
   3.6295697  76.0098348  64.9826630   2.4966365  78.5739488  55.5974644
   2.3717504  77.7729227  55.0885590   3.1545456  79.0685681  55.1088614
   4.5601273  76.3748508  57.2254195   3.6131609  76.2553859  57.1532521
   4.9084046  75.4871006  57.3080456   1.5647707  76.1701224  53.4258547
   1.4172669  75.2417931  53.6066117   2.3901200  76.1921315  52.9415622
   5.1681828  76.9929783  54.5123420   6.0928376  76.7872644  54.3747871
   4.9997132  76.7446184  55.4212761   1.5609221  64.0239061  48.4190664
   1.7772835  64.9063699  48.1179492   1.0803288  63.6325275  47.6896306
   4.9577145  77.5115450  49.8685511   5.1314022  76.9461872  49.1159363
   5.4506036  78.3116345  49.6865001  10.8116536  70.2751873  51.4875811
  11.2547682  69.5259198  51.0894934   9.9343046  70.2662009  51.1049543
   5.9452317  76.8282214  46.9682409   6.6403222  77.4488907  47.1869724
   6.2875467  75.9777566  47.2434787   7.8443740  74.2781920  48.4969740
   8.3695064  74.6169193  47.7719060   7.7566093  73.3428935  48.3132875
   7.5337646  74.9114824  63.8020938   6.7433190  74.8938962  63.2625437
   7.2971001  75.4503117  64.5569975   7.6535521  71.7607290  61.1153667
   7.7033526  71.5957297  62.0569189   7.5449445  70.8934549  60.7251547
   4.9439284  67.7438218  62.4312973   5.8449146  67.6044683  62.1396971
   5.0187258  67.9092673  63.3711151   9.1553718  74.1804231  61.3595688
   8.8638526  74.5434212  62.1959149   8.5425849  73.4671240  61.1809020
  10.3549400  71.7457111  53.8798258  11.1896292  72.1846915  54.0435819
  10.4908529  71.2695764  53.0606504   7.4040906  69.3036846  59.8275746
   7.8795028  69.4964492  59.0194597   6.4806472  69.3596032  59.5819130
   1.9821123  61.3384690  58.7931580   2.5003067  62.0745717  58.4678069
   1.6276256  61.6448683  59.6278339   2.2333717  57.7584972  54.3132477
   2.5135471  57.0908161  54.9392903   3.0184324  57.9514068  53.8007140
   6.1042575  66.1802606  58.0604052   7.0559998  66.2800704  58.0816276
   5.9346026  65.3880875  58.5702136   4.1256955  63.2658189  58.2463453
   3.5306887  63.5463202  57.5509941   3.8406652  63.7552090  59.0180194
   3.2564445  77.2181116  47.0066085   4.1895118  77.1526678  47.2098961
   3.1687658  78.0537383  46.5480618   5.8852462  76.5346987  43.9670033
   5.8066093  76.2006850  44.8605791   6.7062129  77.0268754  43.9661505
   8.5830653  69.4008726  57.1746351   8.5506973  68.4624727  57.3606035
   9.1931277  69.4792763  56.4412176   8.7325142  66.1919769  57.2204634
   8.2164190  65.4078226  57.0334563   9.6165090  65.8638486  57.3851154
   6.3935869  59.9360785  53.1800447   6.1960690  59.6275873  54.0643779
   7.0035574  60.6622424  53.3098377  14.4007203  70.4624733  56.3152388
  15.1310591  70.2010021  56.8760091  13.7914148  69.7253455  56.3554456
  12.4822500  68.6032595  56.9126839  11.7555664  68.4688560  56.3043331
  12.0669787  68.9109424  57.7183557   2.1509515  59.8169692  50.9296979
   2.7040554  60.2365145  51.5887002   2.3879602  58.8905440  50.9719935
   5.5288322  61.9270217  50.4375643   4.9486991  62.5855021  50.0553695
   5.2624255  61.1047562  50.0263060   3.9791889  61.3275275  52.6396963
   4.4791667  61.4391809  51.8311282   4.6227497  61.0236327  53.2797772
   4.3113200  64.0870307  49.4931991   3.4239055  64.3719958  49.2752186
   4.7267189  63.9264071  48.6459268   7.6627736  64.1116828  53.2086330
   8.4388127  64.6013281  53.4810947   6.9375871  64.5374882  53.6658200
  10.1000295  64.8244447  54.2660271  10.6944786  64.5840183  53.5553579
  10.1726879  64.1051578  54.8933807   3.4556414  73.8514982  43.5880011
   4.1592264  74.0564984  44.2037667   2.7319063  74.4191744  43.8529095
   4.2854224  69.6024843  49.7082281   4.2289425  70.0593395  48.8689914
   4.8382566  68.8415528  49.5305124   8.0959030  65.3914575  50.5332401
   7.8395964  64.9911211  51.3640608   7.4711898  66.1058369  50.4082540
  12.4071368  68.1310648  53.0403692  11.8470926  68.2003838  53.8135254
  11.8014871  67.9551633  52.3203188   5.3643111  74.2897511  45.6378471
   6.1988715  73.8578710  45.4555946   5.2027454  74.1179525  46.5655366
   5.0189003  70.7929624  47.0034810   4.9637807  70.6273896  46.0623254
   4.3935059  71.5005657  47.1597000   2.3334911  73.0978536  66.3288373
   3.2026070  73.2719189  65.9675008   1.8541662  73.9172953  66.2064102
   2.1437248  56.8880510  50.8366066   1.3769644  56.3338997  50.9822748
   2.5547953  56.9602379  51.6980217  13.9927386  84.8067162  55.7333648
  14.6305796  84.6873910  55.0296988  13.8748229  85.7548006  55.7921600
  10.8017093  84.7594590  55.6695173  10.4635604  84.6435655  54.7815707
  11.6706861  84.3585755  55.6496179   6.6603908  86.6130067  51.6592063
   6.0968773  86.5220004  50.8908351   6.5456303  85.7929971  52.1394556
  11.2836876  85.9129442  61.6281378  11.2725516  85.5182240  60.7561882
  11.4457515  85.1795515  62.2215149   4.2068340  88.1081258  54.4976284
   4.9989632  87.7672083  54.0822583   4.4464990  88.2176233  55.4178437
  12.2403467  90.2801034  46.9706528  11.5891447  90.8655115  46.5840542
  13.0347830  90.8107229  47.0301566   6.1659094  87.3690172  47.3693663
   6.9389970  86.8219159  47.2306539   6.5184493  88.2334421  47.5808124
   8.0044137  88.6966554  60.5760562   7.7134003  89.6012185  60.4607228
   8.6401121  88.7383082  61.2904632   8.9300344  86.0743402  57.1661922
   9.5263916  85.8499425  56.4518885   8.9875315  85.3328148  57.7687370
   8.5025372  83.5282838  45.0012113   8.7550893  83.0064359  44.2395576
   7.5649931  83.3648983  45.1038796  13.5468655  82.5318616  52.8086856
  14.3331744  82.1138039  52.4577273  13.8107359  83.4364708  52.9768504
  13.7178732  87.9691466  47.5075513  13.0824565  88.0426093  48.2196417
  13.3876138  88.5585065  46.8294592  18.9477082  82.4693849  53.7119834
  19.6802254  81.8993066  53.9457664  18.1916438  82.0815450  54.1526340
   8.2221661  85.4310944  47.2036488   8.1057919  84.7555847  47.8717572
   8.3323921  84.9443318  46.3868641  10.5653202  84.8921091  50.9083177
  10.2011409  84.3651712  51.6196098  11.4220317  84.5019560  50.7349662
  16.4702502  76.1815423  58.1714443  16.1385827  77.0510834  57.9475658
  15.8748116  75.8651707  58.8508473  10.2058689  79.9210991  45.9044525
  10.3733091  80.7891227  46.2714996  10.0155858  80.0838272  44.9805815
  12.9634022  88.3827969  57.5710356  12.6634745  89.2853008  57.4626163
  12.6185081  88.1160153  58.4231509   6.4146503  84.8341766  53.6047060
   5.4897000  84.7017980  53.8124752   6.6630916  85.6135986  54.1017003
  16.3631166  80.9010510  55.2507793  15.4548043  80.8325918  54.9566554
  16.3118761  81.3782455  56.0789619  10.1847909  82.3768648  46.8891192
  10.0647535  82.8225699  47.7276672   9.4900498  82.7253966  46.3304730
   3.7755314  84.4775040  54.4390849   3.9047695  84.7309519  55.3530261
   3.0952766  85.0702748  54.1195504  10.4372031  82.3200155  63.1942690
   9.6605365  82.8794075  63.1845555  11.0762594  82.8056938  63.7157560
  18.2292812  79.1026948  57.0285667  17.5867192  79.3959481  56.3825462
  17.7247740  78.9879868  57.8338864  15.8832976  82.8490121  47.7171526
  16.7950832  83.0817508  47.5419224  15.3742623  83.4327165  47.1546605
   8.6918404  85.1285609  62.7560657   9.4333088  85.6670653  62.4795481
   7.9855389  85.7551897  62.9132209  14.1673743  87.2714749  61.3532819
  14.5757099  86.8297160  60.6087451  13.4451005  86.6967377  61.6067012
  10.5204813  82.2087356  58.7266376  11.3666009  82.6326769  58.8701025
  10.4603451  81.5520980  59.4204939  14.4902558  87.8315940  55.1085108
  13.8611420  87.9961654  54.4061176  14.1028220  88.2457549  55.8796072
  18.3691790  88.7670378  52.4629471  17.6842828  89.1469279  51.9126505
  18.4535639  89.3765704  53.1961419  13.6704259  79.8691724  60.3847549
  13.4265191  80.6233785  59.8481825  13.9464189  80.2477072  61.2194796
  15.6242721  86.4130337  59.0624815  15.8359617  87.0562096  58.3859196
  15.5772470  85.5792653  58.5946745  13.2268950  79.0248157  55.9661387
  12.3653429  79.3229411  56.2578125  13.2531385  79.2418556  55.0342420
  10.0430520  87.5690348  52.3735193  10.5068865  87.8478051  51.5839815
   9.7787318  86.6673792  52.1908283   6.9354601  87.1161829  55.3114956
   7.5055958  87.5449098  54.6732441   7.5262713  86.8344414  56.0099142
   8.9799406  83.6913500  49.1824758   9.6823449  84.1434544  49.6498684
   8.6480034  83.0497319  49.8104651   7.4279767  82.2825257  63.5575967
   6.7978428  82.9641538  63.7911364   7.3215855  82.1708338  62.6129106
   2.7224740  81.9497053  54.4841891   1.9323794  82.2054581  54.0082002
   3.2135987  82.7645391  54.5893932  16.7388549  89.2902292  57.2347172
  17.5605993  88.8882479  56.9529854  16.7350952  89.1870526  58.1863288
   4.6739485  82.3141632  51.4425368   3.8770648  82.4260326  51.9608864
   4.4465077  82.6528284  50.5766259  10.5045153  88.8386335  59.3907883
  10.5689585  89.3006742  60.2266055   9.7956077  88.2083700  59.5190193
   1.0062443  82.2027543  56.9156882   1.2570481  83.0874553  57.1814458
   1.5421991  82.0232145  56.1431974  24.8294542  85.6341040  53.5832144
  24.0758251  85.0648438  53.4276148  24.9642084  85.6003705  54.5302778
  10.2193170  90.5054443  49.2586863  10.0838845  91.3505978  49.6871711
  10.7602983  90.7073720  48.4952797   6.7060510  76.5846023  65.9201218
   6.3127456  76.0312221  66.5948863   7.5226650  76.8956601  66.3107736
   3.6722568  88.0229881  49.8314788   4.1847088  88.8173131  49.9820353
   4.3245281  87.3256171  49.7648390   5.4817453  91.1395637  51.9137541
   5.6584081  92.0613602  51.7258525   6.2774286  90.8254056  52.3431921
   9.6228471  78.0003902  63.5121475  10.3638184  78.6011055  63.4325937
   9.8546394  77.2581539  62.9539517   4.7669809  83.1860269  61.7899705
   4.6523324  82.2845526  62.0906804   3.9114327  83.4323966  61.4384521
  11.8461647  91.1278009  63.3887205  11.4025501  90.3414388  63.0708110
  12.5078860  91.3157160  62.7231096   6.6048768  92.6573811  57.9147884
   7.1556193  92.5290874  57.1424878   5.7660244  92.9568700  57.5642777
  13.9442885  91.4080809  61.4168606  13.9261360  92.2289690  60.9248876
  14.8662805  91.2834884  61.6418748  10.4015939  88.9224939  62.2592115
  10.9344276  88.1613227  62.0291423   9.8730020  88.6298590  63.0016269
  13.5685634  74.0285005  57.7885757  13.2249903  74.9186646  57.7124867
  13.9364597  73.8386662  56.9255342   1.6371485  86.3518535  50.6074359
   2.4746707  86.7615543  50.3908066   1.8149752  85.4117977  50.5774553
  13.5335917  84.0193616  46.2958192  13.0182540  84.7898220  46.5346579
  13.2613225  83.3458752  46.9191253  11.1183028  78.8643316  51.3543430
  10.2624624  78.4750167  51.1749069  11.5309980  78.9435277  50.4943216
  12.6482174  76.3989660  55.7534990  12.1446970  76.3619795  54.9402795
  12.9412781  77.3082402  55.8131647   8.8925060  76.4828389  54.7601172
   9.7578057  76.2871198  54.4007061   8.9602569  76.2538741  55.6870528
  18.5070191  86.7725970  48.2311365  17.7299634  86.4337130  47.7866527
  19.1861672  86.7778594  47.5566330  13.3222220  81.8920708  48.1217973
  13.0172355  82.2066857  48.9728116  14.2752662  81.9702128  48.1645306
  11.7668652  88.0510931  49.7710927  11.2390013  87.3163691  49.4584164
  11.2656154  88.8285607  49.5250895  16.7461498  86.2459952  54.8877973
  16.0885172  86.9359213  54.9758102  17.5501897  86.6356384  55.2311960
   6.4987379  78.7130597  52.1317538   7.0731131  78.4905779  51.3990731
   7.0858362  78.7819292  52.8846140  15.5566957  84.6004324  52.9381915
  16.0698838  85.2334316  53.4403625  16.2068180  84.0005520  52.5725275
   6.8256966  80.7435058  46.1513424   5.9894279  81.0809745  46.4722698
   6.6861736  80.6084038  45.2140561   8.8010047  75.5871846  50.8592608
   8.1474459  75.2720863  50.2349223   8.7590521  74.9647587  51.5852431
   9.9121252  85.8691141  42.7745900   9.0048314  85.6380395  42.9737049
  10.4092284  85.0728761  42.9619881  12.8189331  94.5788649  45.6942586
  12.1451030  94.8820345  46.3027544  13.2055153  95.3817729  45.3448043
  12.0347787  82.0753780  55.1840255  11.1170349  82.2968727  55.0261943
  12.4507931  82.1500090  54.3251963  12.8182835  83.4745196  50.3142936
  13.5654654  83.9866593  50.0050058  13.0874425  83.1529248  51.1747329
  11.0909485  85.9703736  47.2969890  10.1820705  85.6862769  47.3942360
  11.1204569  86.3902815  46.4373197  16.3228753  89.5810326  51.0661058
  15.8691080  88.7401236  51.1226248  15.6922720  90.2171724  51.4035838
  15.2661672  80.5102312  52.2961725  14.5284429  79.9979698  52.6271968
  15.5188446  80.0702693  51.4845002  14.7661692  91.4186822  52.0010876
  15.0584666  91.9791880  51.2823241  15.2760313  91.7115383  52.7564035
  15.3673300  73.2878564  52.8903494  15.6732176  72.4275927  52.6029409
  16.0925904  73.8796184  52.6902488   1.6597656  83.6909250  51.2785092
   1.4622056  83.0978611  50.5536159   1.1044320  83.3861461  51.9961031
   9.6394379  83.5832357  53.3979685   9.6942989  82.6306193  53.3222162
   8.8285581  83.7391796  53.8820984  10.7885573  87.5112480  44.6357969
  10.3505003  86.7948339  44.1763606  11.5296014  87.7388595  44.0743060
   7.5786739  82.2009417  51.1570064   6.7654605  82.5003587  51.5635256
   8.0745734  81.8065105  51.8744546   9.7295317  92.1967174  53.0904329
   9.6871496  92.4228020  52.1612861  10.6458016  91.9630548  53.2390130
  13.1760951  82.6651241  59.9884958  13.5310339  82.8922714  60.8479424
  13.8233082  82.9969618  59.3662213  18.9058688  85.7869677  50.6934287
  18.7676587  85.9771273  49.7655476  18.5494907  86.5489060  51.1502338
   7.0700814  79.7727772  56.7731299   7.7100193  79.6316531  56.0754262
   6.2378345  79.4862286  56.3969901  18.9328068  87.8546204  55.7045559
  19.3664574  87.7621493  56.5528613  19.6459648  87.8303704  55.0665575
   7.8461118  89.0730203  52.8866292   8.6401716  88.5780523  52.6848867
   7.1352810  88.5448066  52.5233997  12.6655962  91.4548298  57.2378659
  12.7192985  92.0239234  58.0056375  11.7970744  91.6250183  56.8732696
   4.1543881  83.2173284  48.9626044   3.2241470  83.1557740  49.1796006
   4.2501353  82.6949237  48.1662686   4.0729431  79.7428097  51.5504286
   4.3336248  80.6573430  51.4413446   4.8946603  79.2752540  51.7000899
   5.5454356  81.1565854  58.7203110   6.2177409  80.9483216  58.0715759
   4.7184142  80.9587940  58.2808343  19.7943617  87.8969905  58.2378444
  19.9879507  88.8015715  58.4837719  19.6944235  87.4377324  59.0717029
  11.4479928  77.7827795  60.7368771  10.8007843  78.4817745  60.6433248
  12.2180943  78.2163939  61.1045020  14.8558726  88.0476647  63.8119325
  14.7044232  87.8187199  62.8949408  14.8463405  89.0047249  63.8250670
  11.6244062  85.6208560  58.7965591  12.5536122  85.7719720  58.6234558
  11.2035092  85.7092581  57.9414238  10.4232394  89.6459225  56.5664129
  10.2843480  89.2778009  57.4390067   9.6346990  90.1606864  56.3948087
  11.0180546  94.7468321  47.9089665  11.1932302  94.2756364  48.7235288
  10.3313334  95.3734087  48.1370926  11.9737609  89.0240827  53.9552966
  11.6387442  88.9841597  54.8510616  11.4741555  88.3585543  53.4823377
   5.9481853  84.4308457  59.4805548   5.8101651  83.6988696  60.0817087
   6.8586777  84.3417357  59.1989735  14.9096801  86.3696862  44.2290026
  14.2925971  85.6443690  44.1323079  14.4413289  87.1306222  43.8857100
   8.5764154  84.1428417  58.9689227   9.2863772  83.5021609  58.9275846
   8.5333462  84.3941311  59.8915408  16.5650932  91.0795770  61.8895807
  16.5063479  90.3954990  61.2226390  16.9670451  91.8214760  61.4376432
   7.2893088  81.1293634  60.7884867   6.7530445  80.6784373  61.4406463
   6.7009796  81.2639543  60.0455331   6.6995347  80.5882286  43.3511330
   5.8224813  80.4671087  42.9873577   7.1753100  79.7968364  43.0990219
  16.5668340  89.0435354  60.1209786  15.6795118  88.7061276  60.2436185
  17.1366891  88.3118385  60.3578552   3.0232209  80.2649642  57.8737861
   2.9390398  79.6575312  57.1388271   2.2014915  80.7558660  57.8747358
  10.0969493  93.7036806  57.0871029  10.0239665  94.5091778  57.5990334
   9.6546886  93.9028772  56.2619051   9.8859273  92.9408576  50.5973851
   9.1026795  93.4830256  50.6912075  10.5852018  93.4582556  50.9968092
  13.1955923  78.7503206  53.2408056  13.6924622  77.9973168  52.9209127
  12.4242904  78.7867522  52.6751266  21.0485680  84.4543571  54.8826348
  21.0375557  85.3368287  54.5120281  20.1803060  84.1015122  54.6880885
  12.5568177  93.6023640  59.2429188  13.2696149  94.2371105  59.1705090
  12.0658205  93.6987506  58.4269190  14.2785704  87.5074893  50.8146480
  13.3441982  87.6276355  50.6451184  14.4562372  86.6047360  50.5506490
   9.7790892  80.8920589  52.9679741   9.4088679  80.3391629  53.6560646
  10.2749984  80.2878722  52.4154741  17.6658255  83.3492212  51.3496514
  18.1318707  84.1820204  51.2756817  18.1165755  82.8837194  52.0541772
   7.6080090  91.3518084  60.0634759   8.3089550  91.9854567  60.2164153
   7.1375205  91.6932815  59.3030398  15.7334486  89.6936033  48.3482666
  16.0094330  89.5792628  49.2576540  14.8638985  89.2953518  48.3094839
  15.6374918  75.7172799  55.3887415  14.7237997  75.9477026  55.5569622
  16.0668019  75.8011243  56.2401448  15.4081376  83.9062691  57.8887309
  14.7552826  84.1538599  57.2339762  15.7861756  83.0926829  57.5549787
  12.3688550  93.9422384  51.9915480  12.5510945  93.1244040  52.4543232
  13.1921536  94.1590077  51.5540370  12.7030716  92.8690569  49.2530528
  13.2318482  92.3583024  48.6400690  12.9658935  92.5533100  50.1176061
  11.4568949  84.6482502  64.3753346  10.7809586  84.5476632  65.0455722
  12.2796583  84.4921716  64.8389344   3.2047808  90.8854439  56.9965862
   3.7901245  90.1398127  57.1293766   3.0072647  91.1958395  57.8802525
   5.1756225  78.3024579  59.2132847   5.2397552  79.1639410  58.8010245
   5.1123346  77.6898581  58.4805206   4.6508498  80.3747712  62.8605881
   5.2780537  79.9924789  63.4743406   3.7936417  80.1561914  63.2261574
  15.0502606  90.7810687  64.4659617  15.5942510  91.3940645  63.9714572
  14.4689451  91.3390266  64.9826630   1.4274041  82.1824141  48.7924236
   1.7227482  81.2734820  48.7391290   0.5262076  82.1611881  48.4705238
  13.3360119  93.9031405  55.5974644  13.2111259  93.1021145  55.0885590
  13.9939210  94.3977599  55.1088614   4.9568288  80.2580138  54.7751785
   4.2354873  80.8716105  54.6359258   5.7461543  80.7937903  54.6968431
  15.3995028  91.7040425  57.2254195  14.4525363  91.5845776  57.1532521
  15.7477801  90.8162923  57.3080456   7.7594601  77.5934564  61.0492436
   8.2829003  77.8396861  61.8118746   7.5406934  78.4254599  60.6295574
   3.1561882  79.8638239  48.9163561   2.8274588  78.9835618  48.7338667
   3.5101253  79.8085907  49.8039950  12.4041461  91.4993141  53.4258547
  12.2566423  90.5709849  53.6066117  13.2294955  91.5213232  52.9415622
   6.2703705  80.1511209  49.2839039   6.6099778  80.6797130  48.5617647
   6.7175826  80.4891615  50.0597605  16.0075583  92.3221700  54.5123420
  16.9322130  92.1164562  54.3747871  15.8390886  92.0738101  55.4212761
   8.9647146  78.5348259  58.7342107   8.6243966  77.7356072  59.1362787
   8.2586152  78.8349970  58.1618940   9.6163618  75.6197572  57.1869430
  10.4389687  75.1458050  57.0648320   9.8601681  76.3988055  57.6868116
   8.2571852  78.6485830  47.4832332   8.9780215  79.0267083  46.9796049
   7.6337157  79.3674707  47.5867310  12.4002975  79.3530979  48.4190664
  12.6166590  80.2355617  48.1179492  11.9197042  78.9617193  47.6896306
   7.1402197  82.3116692  54.9961409   6.9946777  82.6256995  55.8885690
   6.6627400  82.9301593  54.4432307   8.9998580  79.3019240  55.0442298
   8.9860148  78.4060334  54.7074596   9.7171008  79.3089904  55.6780584
  10.8524710  79.7356581  57.0895426  10.5942488  80.6573651  57.0879756
  10.3209751  79.3387015  57.7795890  15.7970899  92.8407368  49.8685511
  15.9707777  92.2753790  49.1159363  16.2899790  93.6408263  49.6865001
   1.6147859  84.8522037  57.9349070   1.0701327  85.6281845  58.0669344
   2.4927209  85.1992841  57.7768191   8.4035476  78.1833621  50.3129868
   8.5251387  77.2550267  50.5120756   8.1137518  78.1972307  49.4008184
  11.2726666  75.8688531  53.4496588  11.2948363  75.9327864  52.4948568
  11.6894725  75.0293040  53.6437094  21.6510290  85.6043791  51.4875811
  22.0941436  84.8551116  51.0894934  20.7736801  85.5953927  51.1049543
  16.7846072  92.1574132  46.9682409  17.4796976  92.7780825  47.1869724
  17.1269222  91.3069483  47.2434787   2.4013881  83.9791933  60.8279227
   1.6595617  84.1274568  61.4143857   2.0806625  84.2400199  59.9645976
  18.6837495  89.6073838  48.4969740  19.2088819  89.9461110  47.7719060
  18.5959847  88.6720853  48.3132875  10.3457543  93.5207911  60.6259617
  10.6544670  93.2757058  61.4982316  11.1433025  93.7254550  60.1378487
  10.3678155  95.6745821  52.8564993   9.9283146  95.1822200  53.5497850
  11.1186272  95.1318789  52.6157068   2.8470494  91.8657362  52.8589621
   3.6728514  91.5661134  52.4788265   2.4964546  91.0964984  53.3079410
   7.8152028  91.2183830  54.9287295   7.1932037  90.5554535  54.6289523
   8.4856894  91.2444962  54.2460943   7.8876555  79.6965618  64.5219801
   7.9364711  80.5727741  64.1397571   8.4299069  79.1543011  63.9491444
  18.3731401  90.2406741  63.8020938  17.5826944  90.2230880  63.2625437
  18.1364755  90.7795035  64.5569975  18.4929276  87.0899208  61.1153667
  18.5427281  86.9249215  62.0569189  18.3843199  86.2226467  60.7251547
   7.3765534  89.7687753  48.4045755   7.5253655  90.4523218  47.7512428
   8.1831978  89.7492843  48.9195211  15.7833038  83.0730136  62.4312973
  16.6842901  82.9336601  62.1396971  15.8581013  83.2384590  63.3711151
  10.1175843  80.4496990  61.2766160   9.2479153  80.7430556  61.0048748
  10.3535324  81.0337435  61.9973423  19.9947473  89.5096149  61.3595688
  19.7032281  89.8726130  62.1959149  19.3819604  88.7963157  61.1809020
  21.1943155  87.0749029  53.8798258  22.0290046  87.5138833  54.0435819
  21.3302284  86.5987682  53.0606504  18.2434661  84.6328764  59.8275746
  18.7188782  84.8256410  59.0194597  17.3200226  84.6887950  59.5819130
   5.1318167  85.7952931  49.4106824   4.8864209  84.8915261  49.6087034
   5.3014082  85.7970081  48.4686302  12.8214877  76.6676607  58.7931580
  13.3396821  77.4037634  58.4678069  12.4670010  76.9740601  59.6278339
   4.4013815  81.5281289  46.9092986   3.7083060  81.6025644  46.2533022
   4.1565567  80.7641632  47.4314503  13.0727471  73.0876890  54.3132477
  13.3529225  72.4200079  54.9392903  13.8578078  73.2805985  53.8007140
  10.8760940  92.2635884  45.8757503  10.3034907  92.8826071  45.4227975
  11.4493734  92.8135245  46.4097425  16.9436330  81.5094524  58.0604052
  17.8953753  81.6092622  58.0816276  16.7739780  80.7172792  58.5702136
  14.9650709  78.5950107  58.2463453  14.3700641  78.8755120  57.5509941
  14.6800406  79.0844008  59.0180194  14.0958200  92.5473034  47.0066085
  15.0288873  92.4818596  47.2098961  14.0081413  93.3829301  46.5480618
  16.7246216  91.8638904  43.9670033  16.6459848  91.5298768  44.8605791
  17.5455883  92.3560672  43.9661505  19.4224408  84.7300644  57.1746351
  19.3900728  83.7916644  57.3606035  20.0325031  84.8084680  56.4412176
  11.2607738  83.5996697  43.2173555  12.2066843  83.4702905  43.2861973
  10.8821983  82.8611358  43.6942984  19.5718896  81.5211687  57.2204634
  19.0557945  80.7370144  57.0334563  20.4558845  81.1930404  57.3851154
  17.2329623  75.2652703  53.1800447  17.0354444  74.9567791  54.0643779
  17.8429329  75.9914341  53.3098377  25.2400957  85.7916650  56.3152388
  25.9704346  85.5301939  56.8760091  24.6307903  85.0545372  56.3554456
  23.3216255  83.9324513  56.9126839  22.5949418  83.7980478  56.3043331
  22.9063541  84.2401342  57.7183557  11.1446431  87.6514443  64.6774212
  12.0649440  87.8293042  64.8714259  11.1096014  86.7070488  64.5253912
   9.4450656  81.5246673  43.1528441   8.5382111  81.2279786  43.2291154
   9.7226637  81.2276491  42.2862727   4.1408504  85.5615477  57.3196993
   4.3594513  86.4932585  57.3385027   4.5534277  85.2023452  58.1051797
  11.0612721  76.0683563  49.3072682  10.2513450  75.7230648  49.6827928
  11.7497138  75.7591106  49.8960293  12.9903270  75.1461609  50.9296979
  13.5434308  75.5657063  51.5887002  13.2273356  74.2197358  50.9719935
   9.0136369  81.1348683  66.7099742   8.9133096  82.0843040  66.6411834
   8.7957911  80.8066922  65.8375813   8.2149440  78.3833608  43.2940420
   9.0768604  78.7088506  43.5536237   8.3999784  77.5965104  42.7813486
  16.3682077  77.2562135  50.4375643  15.7880746  77.9146939  50.0553695
  16.1018009  76.4339479  50.0263060  14.8185643  76.6567192  52.6396963
  15.3185421  76.7683727  51.8311282  15.4621251  76.3528245  53.2797772
   8.8767639  84.5645822  65.5264804   8.3934721  85.3646182  65.7328693
   8.9628578  84.5753767  64.5732248   2.1453599  86.3974202  53.4486623
   2.1224287  86.4961889  52.4968507   2.4554235  87.2439352  53.7703790
   4.8040976  88.4550357  57.5633238   5.7584230  88.4234299  57.4963169
   4.6053500  87.9940980  58.3783464   5.3940359  87.0251473  60.1304036
   6.2133248  87.5195551  60.1538873   5.6677166  86.1083441  60.1021603
  15.1506955  79.4162225  49.4931991  14.2632810  79.7011876  49.2752186
  15.5660944  79.2555988  48.6459268  18.5021491  79.4408746  53.2086330
  19.2781881  79.9305198  53.4810947  17.7769625  79.8666800  53.6658200
  20.9394050  80.1536365  54.2660271  21.5338540  79.9132101  53.5553579
  21.0120633  79.4343496  54.8933807  14.2950168  89.1806900  43.5880011
  14.9986018  89.3856902  44.2037667  13.5712817  89.7483662  43.8529095
  15.1247979  84.9316761  49.7082281  15.0683180  85.3885312  48.8689914
  15.6776321  84.1707446  49.5305124  18.9352784  80.7206493  50.5332401
  18.6789719  80.3203128  51.3640608  18.3105652  81.4350287  50.4082540
  23.2465122  83.4602566  53.0403692  22.6864680  83.5295755  53.8135254
  22.6408626  83.2843551  52.3203188  16.2036866  89.6189429  45.6378471
  17.0382470  89.1870627  45.4555946  16.0421209  89.4471443  46.5655366
  15.8582758  86.1221542  47.0034810  15.8031562  85.9565814  46.0623254
  15.2328813  86.8297575  47.1597000  13.1728665  88.4270454  66.3288373
  14.0419825  88.6011106  65.9675008  12.6935416  89.2464871  66.2064102
   9.1678883  75.6229651  46.5820129   9.1557553  76.5671491  46.7388400
  10.0602305  75.4399797  46.2879590   9.0968447  94.2998542  54.6687885
   8.1464078  94.3000403  54.5552258   9.4000933  93.5531276  54.1523920
  12.9831003  72.2172428  50.8366066  12.2163399  71.6630914  50.9822748
  13.3941708  72.2894297  51.6980217   4.9872764  78.5057224  64.9271247
   5.8504225  78.1494028  65.1374571   4.4138174  78.1671118  65.6146651
  19.3419126  98.8574755  45.0012113  19.5944647  98.3356277  44.2395576
  18.4043685  98.6940901  45.1038796  24.3862409  97.8610534  52.8086856
  25.1725498  97.4429957  52.4577273  24.6501114  98.7656626  52.9768504
  29.7870836  97.7985767  53.7119834  30.5196008  97.2284984  53.9457664
  29.0310192  97.4107367  54.1526340  27.3096257  91.5107341  58.1714443
  26.9779581  92.3802752  57.9475658  26.7141870  91.1943625  58.8508473
  21.0452443  95.2502908  45.9044525  21.2126845  96.1183145  46.2714996
  20.8549612  95.4130190  44.9805815  27.2024920  96.2302427  55.2507793
  26.2941797  96.1617836  54.9566554  27.1512516  96.7074372  56.0789619
  21.0241664  97.7060566  46.8891192  20.9041289  98.1517616  47.7276672
  20.3294252  98.0545883  46.3304730  21.2765786  97.6492073  63.1942690
  20.4999120  98.2085993  63.1845555  21.9156349  98.1348856  63.7157560
  29.0686566  94.4318866  57.0285667  28.4260947  94.7251399  56.3825462
  28.5641495  94.3171786  57.8338864  26.7226730  98.1782039  47.7171526
  27.6344586  98.4109426  47.5419224  26.2136377  98.7619083  47.1546605
  21.3598568  97.5379273  58.7266376  22.2059763  97.9618687  58.8701025
  21.2997205  96.8812898  59.4204939  24.5098013  95.1983642  60.3847549
  24.2658945  95.9525702  59.8481825  24.7857944  95.5768989  61.2194796
  24.0662705  94.3540075  55.9661387  23.2047184  94.6521328  56.2578125
  24.0925140  94.5710474  55.0342420  19.8193160  99.0205418  49.1824758
  20.5217204  99.4726461  49.6498684  19.4873789  98.3789237  49.8104651
  18.2673522  97.6117174  63.5575967  17.6372182  98.2933455  63.7911364
  18.1609610  97.5000256  62.6129106  35.6688297 100.9632958  53.5832144
  34.9152005 100.3940356  53.4276148  35.8035838 100.9295623  54.5302778
  17.5454265  91.9137940  65.9201218  17.1521210  91.3604139  66.5948863
  18.3620405  92.2248519  66.3107736  20.4622226  93.3295819  63.5121475
  21.2031939  93.9302972  63.4325937  20.6940148  92.5873457  62.9539517
  24.4079389  89.3576922  57.7885757  24.0643658  90.2478564  57.7124867
  24.7758351  89.1678580  56.9255342  24.3729671  99.3485533  46.2958192
  23.8576295 100.1190138  46.5346579  24.1006980  98.6750670  46.9191253
  21.9576782  94.1935234  51.3543430  21.1018379  93.8042085  51.1749069
  22.3703734  94.2727195  50.4943216  23.4875929  91.7281577  55.7534990
  22.9840724  91.6911713  54.9402795  23.7806536  92.6374320  55.8131647
  19.7318815  91.8120307  54.7601172  20.5971812  91.6163116  54.4007061
  19.7996324  91.5830659  55.6870528  29.3463945 102.1017888  48.2311365
  28.5693388 101.7629048  47.7866527  30.0255426 102.1070511  47.5566330
  24.1615974  97.2212625  48.1217973  23.8566110  97.5358775  48.9728116
  25.1146417  97.2994045  48.1645306  17.3381134  94.0422515  52.1317538
  17.9124886  93.8197697  51.3990731  17.9252116  94.1111210  52.8846140
  26.3960711  99.9296242  52.9381915  26.9092593 100.5626234  53.4403625
  27.0461935  99.3297437  52.5725275  17.6650721  96.0726976  46.1513424
  16.8288033  96.4101663  46.4722698  17.5255491  95.9375956  45.2140561
  19.6403802  90.9163764  50.8592608  18.9868214  90.6012781  50.2349223
  19.5984276  90.2939504  51.5852431  22.8741542  97.4045698  55.1840255
  21.9564103  97.6260645  55.0261943  23.2901686  97.4792008  54.3251963
  23.6576590  98.8037113  50.3142936  24.4048409  99.3158510  50.0050058
  23.9268179  98.4821166  51.1747329  26.1055427  95.8394229  52.2961725
  25.3678184  95.3271616  52.6271968  26.3582200  95.3994611  51.4845002
  26.2067054  88.6170481  52.8903494  26.5125931  87.7567845  52.6029409
  26.9319659  89.2088102  52.6902488  20.4788134  98.9124275  53.3979685
  20.5336744  97.9598111  53.3222162  19.6679336  99.0683714  53.8820984
  18.4180494  97.5301334  51.1570064  17.6048359  97.8295505  51.5635256
  18.9139488  97.1357023  51.8744546  24.0154706  97.9943159  59.9884958
  24.3704093  98.2214632  60.8479424  24.6626837  98.3261536  59.3662213
  29.7452442 101.1161595  50.6934287  29.6070341 101.3063191  49.7655476
  29.3888661 101.8780977  51.1502338  17.9094569  95.1019690  56.7731299
  18.5493948  94.9608449  56.0754262  17.0772099  94.8154203  56.3969901
  14.9123185  95.0720015  51.5504286  15.1730002  95.9865348  51.4413446
  15.7340357  94.6044457  51.7000899  16.3848110  96.4857772  58.7203110
  17.0571164  96.2775134  58.0715759  15.5577897  96.2879858  58.2808343
  22.2873682  93.1119713  60.7368771  21.6401597  93.8109663  60.6433248
  23.0574698  93.5455857  61.1045020  18.1286842  96.4585552  60.7884867
  17.5924199  96.0076291  61.4406463  17.5403551  96.5931461  60.0455331
  17.5389101  95.9174204  43.3511330  16.6618568  95.7963004  42.9873577
  18.0146854  95.1260282  43.0990219  13.8625963  95.5941560  57.8737861
  13.7784152  94.9867229  57.1388271  13.0408670  96.0850578  57.8747358
  24.0349677  94.0795123  53.2408056  24.5318377  93.3265086  52.9209127
  23.2636659  94.1159440  52.6751266  31.8879435  99.7835489  54.8826348
  31.8769311 100.6660204  54.5120281  31.0196814  99.4307040  54.6880885
  20.6184646  96.2212506  52.9679741  20.2482434  95.6683547  53.6560646
  21.1143739  95.6170640  52.4154741  28.5052009  98.6784130  51.3496514
  28.9712462  99.5112121  51.2756817  28.9559510  98.2129111  52.0541772
  26.4768672  91.0464717  55.3887415  25.5631752  91.2768944  55.5569622
  26.9061774  91.1303161  56.2401448  26.2475131  99.2354609  57.8887309
  25.5946581  99.4830516  57.2339762  26.6255511  98.4218747  57.5549787
  22.2962704  99.9774420  64.3753346  21.6203341  99.8768549  65.0455722
  23.1190338  99.8213634  64.8389344  16.0149980  93.6316497  59.2132847
  16.0791306  94.4931328  58.8010245  15.9517100  93.0190499  58.4805206
  15.4902252  95.7039630  62.8605881  16.1174291  95.3216707  63.4743406
  14.6330171  95.4853832  63.2261574  15.7962042  95.5872055  54.7751785
  15.0748628  96.2008023  54.6359258  16.5855298  96.1229820  54.6968431
  18.5988356  92.9226482  61.0492436  19.1222757  93.1688778  61.8118746
  18.3800689  93.7546517  60.6295574  13.9955637  95.1930156  48.9163561
  13.6668343  94.3127535  48.7338667  14.3495007  95.1377825  49.8039950
  17.1097460  95.4803126  49.2839039  17.4493532  96.0089048  48.5617647
  17.5569580  95.8183532  50.0597605  19.8040901  93.8640177  58.7342107
  19.4637721  93.0647990  59.1362787  19.0979907  94.1641888  58.1618940
  20.4557372  90.9489489  57.1869430  21.2783442  90.4749968  57.0648320
  20.6995436  91.7279973  57.6868116  19.0965607  93.9777748  47.4832332
  19.8173969  94.3559001  46.9796049  18.4730911  94.6966625  47.5867310
  23.2396730  94.6822897  48.4190664  23.4560344  95.5647535  48.1179492
  22.7590797  94.2909110  47.6896306  17.9795951  97.6408610  54.9961409
  17.8340532  97.9548913  55.8885690  17.5021155  98.2593510  54.4432307
  19.8392334  94.6311158  55.0442298  19.8253903  93.7352251  54.7074596
  20.5564762  94.6381822  55.6780584  21.6918465  95.0648498  57.0895426
  21.4336243  95.9865569  57.0879756  21.1603505  94.6678933  57.7795890
  19.2429230  93.5125538  50.3129868  19.3645141  92.5842184  50.5120756
  18.9531272  93.5264224  49.4008184  22.1120420  91.1980449  53.4496588
  22.1342117  91.2619782  52.4948568  22.5288479  90.3584957  53.6437094
  32.4904045 100.9335708  51.4875811  32.9335191 100.1843033  51.0894934
  31.6130555 100.9245845  51.1049543  18.7270310  95.0257536  64.5219801
  18.7758465  95.9019658  64.1397571  19.2692824  94.4834929  63.9491444
  29.3323030 102.4191125  61.1153667  29.3821035 102.2541133  62.0569189
  29.2236954 101.5518384  60.7251547  26.6226793  98.4022053  62.4312973
  27.5236655  98.2628518  62.1396971  26.6974767  98.5676508  63.3711151
  20.9569598  95.7788908  61.2766160  20.0872907  96.0722474  61.0048748
  21.1929078  96.3629353  61.9973423  32.0336909 102.4040947  53.8798258
  32.8683801 102.8430751  54.0435819  32.1696038 101.9279600  53.0606504
  29.0828415  99.9620681  59.8275746  29.5582537 100.1548328  59.0194597
  28.1593981 100.0179867  59.5819130  23.6608632  91.9968525  58.7931580
  24.1790576  92.7329552  58.4678069  23.3063765  92.3032518  59.6278339
  15.2407569  96.8573206  46.9092986  14.5476814  96.9317561  46.2533022
  14.9959321  96.0933550  47.4314503  23.9121226  88.4168808  54.3132477
  24.1922980  87.7491997  54.9392903  24.6971833  88.6097903  53.8007140
  27.7830084  96.8386442  58.0604052  28.7347507  96.9384539  58.0816276
  27.6133535  96.0464710  58.5702136  25.8044464  93.9242025  58.2463453
  25.2094396  94.2047037  57.5509941  25.5194161  94.4135926  59.0180194
  30.2618162 100.0592561  57.1746351  30.2294482  99.1208562  57.3606035
  30.8718786 100.1376598  56.4412176  22.1001493  98.9288614  43.2173555
  23.0460598  98.7994822  43.2861973  21.7215738  98.1903276  43.6942984
  30.4112651  96.8503605  57.2204634  29.8951699  96.0662061  57.0334563
  31.2952599  96.5222321  57.3851154  28.0723378  90.5944620  53.1800447
  27.8748199  90.2859708  54.0643779  28.6823083  91.3206259  53.3098377
  36.0794712 101.1208568  56.3152388  36.8098100 100.8593856  56.8760091
  35.4701657 100.3837290  56.3554456  34.1610009  99.2616431  56.9126839
  33.4343173  99.1272396  56.3043331  33.7457296  99.5693259  57.7183557
  20.2844410  96.8538591  43.1528441  19.3775866  96.5571703  43.2291154
  20.5620391  96.5568409  42.2862727  21.9006476  91.3975480  49.3072682
  21.0907204  91.0522565  49.6827928  22.5890893  91.0883024  49.8960293
  23.8297024  90.4753527  50.9296979  24.3828063  90.8948981  51.5887002
  24.0667111  89.5489275  50.9719935  19.8530123  96.4640601  66.7099742
  19.7526850  97.4134958  66.6411834  19.6351665  96.1358840  65.8375813
  19.0543195  93.7125526  43.2940420  19.9162359  94.0380424  43.5536237
  19.2393539  92.9257022  42.7813486  27.2075831  92.5854052  50.4375643
  26.6274500  93.2438856  50.0553695  26.9411764  91.7631397  50.0263060
  25.6579398  91.9859110  52.6396963  26.1579176  92.0975645  51.8311282
  26.3015006  91.6820163  53.2797772  25.9900709  94.7454143  49.4931991
  25.1026564  95.0303793  49.2752186  26.4054698  94.5847906  48.6459268
  29.3415245  94.7700664  53.2086330  30.1175636  95.2597116  53.4810947
  28.6163380  95.1958718  53.6658200  31.7787804  95.4828283  54.2660271
  32.3732295  95.2424019  53.5553579  31.8514388  94.7635413  54.8933807
  25.9641733 100.2608679  49.7082281  25.9076934 100.7177230  48.8689914
  26.5170075  99.4999363  49.5305124  29.7746539  96.0498410  50.5332401
  29.5183473  95.6495046  51.3640608  29.1499407  96.7642204  50.4082540
  34.0858877  98.7894484  53.0403692  33.5258435  98.8587673  53.8135254
  33.4802380  98.6135468  52.3203188  20.0072638  90.9521569  46.5820129
  19.9951308  91.8963409  46.7388400  20.8996060  90.7691714  46.2879590
  23.8224757  87.5464345  50.8366066  23.0557153  86.9922832  50.9822748
  24.2335462  87.6186214  51.6980217  15.8266518  93.8349141  64.9271247
  16.6897980  93.4785946  65.1374571  15.2531929  93.4963036  65.6146651
  37.0460809 103.9462399  52.8903494  37.3519685 103.0859763  52.6029409
  37.7713413 104.5380019  52.6902488  34.7514980 103.7460725  54.3132477
  35.0316734 103.0783914  54.9392903  35.5365587 103.9389821  53.8007140
  34.6618512 102.8756263  50.8366066  33.8950908 102.3214750  50.9822748
  35.0729217 102.9478132  51.6980217   3.1507035  31.9819328  40.3077450
   2.3970743  31.4126726  40.1521455   3.2854576  31.9481992  41.2548085
   3.5613450  32.1394938  43.0397695   4.2916838  31.8780226  43.6005398
   2.9520395  31.4023660  43.0799763   1.6428747  30.2802800  43.6372146
   0.9161910  30.1458765  43.0288638   1.2276034  30.5879629  44.4428864
   1.5677615  29.8080853  39.7648999   1.0077173  29.8774043  40.5380561
   0.9621118  29.6321838  39.0448495   3.1533633  46.4837367  42.4578954
   3.7912043  46.3644115  41.7542295   3.0354476  47.4318211  42.5166907
   1.4009714  51.9571239  33.6951835   0.7497693  52.5425320  33.3085849
   2.1954077  52.4877434  33.7546872   2.7074901  44.2088821  39.5332162
   3.4937991  43.7908244  39.1822580   2.9713606  45.1134913  39.7013811
   2.8784979  49.6461671  34.2320819   2.2430812  49.7196298  34.9441724
   2.5482385  50.2355270  33.5539899   8.1083329  44.1464054  40.4365141
   8.8408501  43.5763271  40.6702970   7.3522684  43.7585655  40.8771647
   5.6308749  37.8585628  44.8959750   5.2992074  38.7281039  44.6720965
   5.0354362  37.5421912  45.5753780   2.1240268  50.0598174  44.2955662
   1.8240992  50.9623213  44.1871470   1.7791328  49.7930358  45.1476815
   5.5237412  42.5780715  41.9753100   4.6154290  42.5096123  41.6811861
   5.4725008  43.0552659  42.8034925   7.3899059  40.7797153  43.7530974
   6.7473439  41.0729686  43.1070768   6.8853987  40.6650073  44.5584170
   5.0439222  44.5260326  34.4416833   5.9557078  44.7587713  34.2664530
   4.5348869  45.1097370  33.8791911   3.3279990  48.9484954  48.0778125
   3.7363346  48.5067364  47.3332758   2.6057252  48.3737581  48.3312318
   3.6508805  49.5086145  41.8330414   3.0217667  49.6731859  41.1306482
   3.2634467  49.9227754  42.6041378   7.5298037  50.4440582  39.1874778
   6.8449075  50.8239484  38.6371811   7.6141886  51.0535909  39.9206726
   2.8310505  41.5461929  47.1092856   2.5871437  42.3003990  46.5727132
   3.1070436  41.9247277  47.9440103   4.7848968  48.0900541  45.7870122
   4.9965863  48.7332301  45.1104503   4.7378716  47.2562858  45.3192052
   2.3875197  40.7018362  42.6906694   1.5259676  40.9999616  42.9823431
   2.4137632  40.9188761  41.7587726   5.8994796  50.9672497  43.9592479
   6.7212240  50.5652684  43.6775161   5.8957199  50.8640731  44.9108595
  13.9900789  47.3111245  40.3077450  13.2364498  46.7418643  40.1521455
  14.1248330  47.2773910  41.2548085   1.0067894  52.8048214  50.1132512
   0.5631748  52.0184593  49.7953416   1.6685107  52.9927365  49.4476403
   3.1049132  53.0851014  48.1413913   3.0867607  53.9059895  47.6494182
   4.0269052  52.9605089  48.3664054   2.7291881  35.7055210  44.5131063
   2.3856150  36.5956851  44.4370174   3.0970843  35.5156867  43.6500648
   2.6942164  45.6963821  33.0203498   2.1788787  46.4668425  33.2591886
   2.4219472  45.0228957  33.6436560   1.8088421  38.0759865  42.4780296
   1.3053217  38.0390000  41.6648102   2.1019028  38.9852607  42.5376953
   7.6676438  48.4496175  34.9556672   6.8905880  48.1107335  34.5111834
   8.3467919  48.4548798  34.2811637   2.4828467  43.5690913  34.8463280
   2.1778602  43.8837062  35.6973423   3.4358909  43.6472333  34.8890613
   5.9067745  47.9230157  41.6123280   5.2491419  48.6129418  41.7003408
   6.7108144  48.3126588  41.9557266   4.7173203  46.2774529  39.6627222
   5.2305085  46.9104521  40.1648931   5.3674427  45.6775725  39.2970582
   1.9795578  56.2558854  32.4187893   1.3057276  56.5590550  33.0272851
   2.3661400  57.0587934  32.0693350   1.9789082  45.1515400  37.0388242
   2.7260901  45.6636798  36.7295364   2.2480672  44.8299453  37.8992636
   5.4835000  51.2580531  37.7906364   5.0297327  50.4171441  37.8471555
   4.8528966  51.8941929  38.1281144   4.4267919  42.1872517  39.0207032
   3.6890676  41.6749903  39.3517274   4.6794693  41.7472898  38.2090309
   3.9267939  53.0957027  38.7256182   4.2190913  53.6562084  38.0068548
   4.4366559  53.3885588  39.4809341   4.5279546  34.9648769  39.6148801
   4.8338423  34.1046132  39.3274716   5.2532151  35.5566389  39.4147795
   2.3367198  44.3421446  46.7130265   2.6916586  44.5692919  47.5724730
   2.9839329  44.6739823  46.0907520   8.0664935  47.4639882  37.4179594
   7.9282833  47.6541478  36.4900783   7.7101154  48.2259265  37.8747645
   8.0934314  49.5316409  42.4290865   8.5270821  49.4391698  43.2773919
   8.8065895  49.5073909  41.7910881   1.8262209  53.1318503  43.9623966
   1.8799232  53.7009439  44.7301682   0.9576991  53.3020388  43.5978003
   8.9549864  49.5740110  44.9623751   9.1485754  50.4785920  45.2083026
   8.8550482  49.1147529  45.7962336   4.0164973  49.7246852  50.5364631
   3.8650479  49.4957404  49.6194715   4.0069652  50.6817454  50.5495976
   1.1343856  50.7011032  40.6798273   0.7993689  50.6611802  41.5755923
   0.6347802  50.0355748  40.2068683   4.0703048  48.0467066  30.9535333
   3.4532218  47.3213895  30.8568385   3.6019536  48.8076427  30.6102407
   5.7257179  52.7565975  48.6141113   5.6669725  52.0725195  47.9471696
   6.1276698  53.4984965  48.1621739   5.7274586  50.7205559  46.8455093
   4.8401365  50.3831481  46.9681492   6.2973138  49.9888590  47.0823858
   2.3562170  40.4273411  39.9653363   2.8530869  39.6743373  39.6454433
   1.5849151  40.4637727  39.3996572  10.2091927  46.1313776  41.6071654
  10.1981803  47.0138492  41.2365588   9.3409306  45.7785327  41.4126192
   1.7174423  55.2793845  45.9674495   2.4302396  55.9141310  45.8950396
   1.2264452  55.3757711  45.1514497   3.4391950  49.1845098  37.5391786
   2.5048229  49.3046560  37.3696491   3.6168619  48.2817565  37.2751796
   6.8264502  45.0262417  38.0741820   7.2924954  45.8590409  38.0002123
   7.2772002  44.5607399  38.7787079   4.8940733  51.3706238  35.0727973
   5.1700577  51.2562833  35.9821847   4.0245232  50.9723723  35.0340146
   4.7981164  37.3943004  42.1132722   3.8844244  37.6247231  42.2814929
   5.2274266  37.4781448  42.9646754   4.5687623  45.5832896  44.6132616
   3.9159073  45.8308804  43.9585069   4.9468003  44.7697034  44.2795093
   1.5294797  55.6192589  38.7160786   1.7117191  54.8014245  39.1788538
   2.3527783  55.8360282  38.2785676   1.8636962  54.5460774  35.9775835
   2.3924729  54.0353229  35.3645997   2.1265182  54.2303305  36.8421368
   4.2108853  52.4580892  51.1904923   4.7548757  53.0710850  50.6959878
   3.6295698  53.0160471  51.7071936   2.4966366  55.5801610  42.3219951
   2.3717506  54.7791350  41.8130897   3.1545457  56.0747803  41.8333921
   4.5601274  53.3810630  43.9499501   3.6131610  53.2615981  43.8777828
   4.9084048  52.4933128  44.0325763   1.5647708  53.1763346  40.1503853
   1.4172670  52.2480054  40.3311423   2.3901201  53.1983437  39.6660929
   5.1681830  53.9991905  41.2368726   6.0928377  53.7934766  41.0993177
   4.9997133  53.7508306  42.1458068   1.5609222  41.0301184  35.1435971
   1.7772836  41.9125822  34.8424799   1.0803289  40.6387397  34.4141613
   4.9577146  54.5177573  36.5930818   5.1314023  53.9523995  35.8404670
   5.4506037  55.3178467  36.4110308  10.8116537  47.2813996  38.2121117
  11.2547683  46.5321321  37.8140241   9.9343047  47.2724132  37.8294849
   5.9452318  53.8344337  33.6927716   6.6403223  54.4551030  33.9115031
   6.2875468  52.9839688  33.9680094   7.8443741  51.2844043  35.2215047
   8.3695066  51.6231315  34.4964367   7.7566094  50.3491058  35.0378181
   7.5337647  51.9176946  50.5266245   6.7433191  51.9001085  49.9870744
   7.2971002  52.4565240  51.2815281   7.6535523  48.7669413  47.8398973
   7.7033527  48.6019420  48.7814496   7.5449446  47.8996672  47.4496854
   4.9439285  44.7500341  49.1558280   5.8449148  44.6106805  48.8642278
   5.0187259  44.9154795  50.0956457   9.1553719  51.1866354  48.0840995
   8.8638528  51.5496335  48.9204456   8.5425851  50.4733362  47.9054327
  10.3549402  48.7519234  40.6043565  11.1896293  49.1909038  40.7681125
  10.4908530  48.2757887  39.7851811   7.4040908  46.3098969  46.5521053
   7.8795029  46.5026615  45.7439904   6.4806473  46.3658155  46.3064436
   1.9821124  38.3446812  45.5176887   2.5003068  39.0807839  45.1923375
   1.6276257  38.6510806  46.3523646   2.2333718  34.7647095  41.0377783
   2.5135472  34.0970284  41.6638210   3.0184325  34.9576190  40.5252447
   6.1042577  43.1864729  44.7849358   7.0560000  43.2862826  44.8061582
   5.9346027  42.3942997  45.2947443   4.1256956  40.2720312  44.9708759
   3.5306888  40.5525325  44.2755248   3.8406653  40.7614213  45.7425500
   3.2564447  54.2243239  33.7311392   4.1895120  54.1588800  33.9344267
   3.1687659  55.0599506  33.2725924   5.8852463  53.5409109  30.6915339
   5.8066095  53.2068973  31.5851097   6.7062130  54.0330877  30.6906812
   8.5830654  46.4070848  43.8991658   8.5506975  45.4686849  44.0851342
   9.1931278  46.4854885  43.1657483   8.7325143  43.1981892  43.9449941
   8.2164192  42.4140349  43.7579870   9.6165091  42.8700609  44.1096461
   6.3935870  36.9422907  39.9045754   6.1960691  36.6337996  40.7889086
   7.0035575  37.6684546  40.0343684  14.4007204  47.4686855  43.0397695
  15.1310593  47.2072143  43.6005398  13.7914150  46.7315577  43.0799763
  12.4822501  45.6094718  43.6372146  11.7555665  45.4750683  43.0288638
  12.0669788  45.9171547  44.4428864   2.1509516  36.8231814  37.6542285
   2.7040555  37.2427268  38.3132308   2.3879603  35.8967562  37.6965241
   5.5288324  38.9332340  37.1620949   4.9486993  39.5917144  36.7799002
   5.2624256  38.1109684  36.7508367   3.9791890  38.3337397  39.3642270
   4.4791668  38.4453932  38.5556589   4.6227498  38.0298450  40.0043078
   4.3113202  41.0932430  36.2177298   3.4239057  41.3782081  35.9997492
   4.7267191  40.9326193  35.3704575   7.6627738  41.1178951  39.9331637
   8.4388128  41.6075403  40.2056254   6.9375872  41.5437005  40.3903506
  10.1000296  41.8306570  40.9905578  10.6944787  41.5902306  40.2798886
  10.1726880  41.1113701  41.6179114   3.4556415  50.8577105  30.3125318
   4.1592265  51.0627107  30.9282973   2.7319064  51.4253866  30.5774401
   4.2854225  46.6086966  36.4327588   4.2289427  47.0655517  35.5935220
   4.8382568  45.8477650  36.2550431   8.0959031  42.3976698  37.2577707
   7.8395965  41.9973333  38.0885915   7.4711899  43.1120492  37.1327846
  12.4071369  45.1372771  39.7648999  11.8470927  45.2065960  40.5380561
  11.8014872  44.9613756  39.0448495   5.3643112  51.2959634  32.3623778
   6.1988716  50.8640832  32.1801252   5.2027455  51.1241647  33.2900672
   5.0189005  47.7991747  33.7280117   4.9637808  47.6336018  32.7868561
   4.3935060  48.5067780  33.8842307   2.3334912  50.1040659  53.0533680
   3.2026071  50.2781311  52.6920315   1.8541663  50.9235076  52.9309409
   2.1437250  33.8942633  37.5611372   1.3769645  33.3401119  37.7068055
   2.5547954  33.9664501  38.4225524  13.9927387  61.8129285  42.4578954
  14.6305797  61.6936032  41.7542295  13.8748230  62.7610129  42.5166907
  10.8017094  61.7656713  42.3940479  10.4635605  61.6497778  41.5061014
  11.6706862  61.3647878  42.3741485   6.6603909  63.6192189  38.3837370
   6.0968775  63.5282126  37.6153658   6.5456305  62.7992094  38.8639863
  11.2836877  62.9191565  48.3526685  11.2725518  62.5244363  47.4807188
  11.4457516  62.1857637  48.9460456   4.2068341  65.1143381  41.2221591
   4.9989633  64.7734206  40.8067890   4.4464992  65.2238356  42.1423744
  12.2403468  67.2863157  33.6951835  11.5891448  67.8717238  33.3085849
  13.0347831  67.8169352  33.7546872   6.1659095  64.3752294  34.0938969
   6.9389971  63.8281281  33.9551845   6.5184494  65.2396544  34.3053431
   8.0044138  65.7028677  47.3005869   7.7134004  66.6074307  47.1852535
   8.6401122  65.7445204  48.0149938   8.9300345  63.0805525  43.8907228
   9.5263917  62.8561547  43.1764191   8.9875316  62.3390271  44.4932676
   8.5025373  60.5344960  31.7257419   8.7550894  60.0126482  30.9640882
   7.5649932  60.3711106  31.8284103  13.5468656  59.5380739  39.5332162
  14.3331745  59.1200162  39.1822580  13.8107360  60.4426831  39.7013811
  13.7178733  64.9753589  34.2320819  13.0824566  65.0488216  34.9441724
  13.3876140  65.5647188  33.5539899  18.9477083  59.4755972  40.4365141
  19.6802255  58.9055189  40.6702970  18.1916439  59.0877572  40.8771647
   8.2221662  62.4373066  33.9281794   8.1057920  61.7617970  34.5962879
   8.3323922  61.9505440  33.1113947  10.5653203  61.8983213  37.6328483
  10.2011410  61.3713834  38.3441405  11.4220319  61.5081682  37.4594969
  16.4702503  53.1877546  44.8959750  16.1385828  54.0572957  44.6720965
  15.8748117  52.8713830  45.5753780  10.2058690  56.9273113  32.6289832
  10.3733092  57.7953350  32.9960303  10.0155859  57.0900395  31.7051121
  12.9634023  65.3890092  44.2955662  12.6634746  66.2915131  44.1871470
  12.6185083  65.1222275  45.1476815   6.4146504  61.8403889  40.3292367
   5.4897001  61.7080103  40.5370059   6.6630918  62.6198108  40.8262309
  16.3631167  57.9072632  41.9753100  15.4548044  57.8388041  41.6811861
  16.3118763  58.3844577  42.8034925  10.1847911  59.3830771  33.6136499
  10.0647536  59.8287821  34.4521979   9.4900499  59.7316088  33.0550037
   3.7755316  61.4837162  41.1636156   3.9047697  61.7371641  42.0775568
   3.0952767  62.0764870  40.8440811   7.9454803  72.1534412  37.2626630
   7.8678832  73.1042237  37.3415111   7.3416446  71.8080285  37.9201556
  10.4372033  59.3262278  49.9187997   9.6605367  59.8856198  49.9090862
  11.0762596  59.8119061  50.4402867  18.2292813  56.1089071  43.7530974
  17.5867193  56.4021604  43.1070768  17.7247742  55.9941991  44.5584170
  15.8832977  59.8552244  34.4416833  16.7950833  60.0879631  34.2664530
  15.3742624  60.4389288  33.8791911   8.6918405  62.1347731  49.4805964
   9.4333089  62.6732775  49.2040788   7.9855390  62.7614020  49.6377516
  14.1673745  64.2776872  48.0778125  14.5757101  63.8359282  47.3332758
  13.4451006  63.7029499  48.3312318  10.5204815  59.2149478  45.4511682
  11.3666010  59.6388892  45.5946331  10.4603452  58.5583103  46.1450245
  14.4902559  64.8378062  41.8330414  13.8611422  65.0023776  41.1306482
  14.1028221  65.2519672  42.6041378  18.3691791  65.7732500  39.1874778
  17.6842829  66.1531401  38.6371811  18.4535640  66.3827827  39.9206726
  13.6704260  56.8753847  47.1092856  13.4265192  57.6295907  46.5727132
  13.9464190  57.2539194  47.9440103  15.6242723  63.4192459  45.7870122
  15.8359618  64.0624219  45.1104503  15.5772471  62.5854776  45.3192052
  13.2268952  56.0310280  42.6906694  12.3653431  56.3291533  42.9823431
  13.2531386  56.2480679  41.7587726  10.0430521  64.5752470  39.0980499
  10.5068867  64.8540173  38.3085122   9.7787319  63.6735915  38.9153590
   6.9354602  64.1223952  42.0360263   7.5055959  64.5511220  41.3977747
   7.5262714  63.8406537  42.7344448   8.9799407  60.6975623  35.9070065
   9.6823450  61.1496666  36.3743991   8.6480036  60.0559442  36.5349958
   7.4279769  59.2887379  50.2821274   6.7978429  59.9703660  50.5156671
   7.3215857  59.1770461  49.3374412   2.7224741  58.9559175  41.2087198
   1.9323795  59.2116704  40.7327309   3.2135988  59.7707513  41.3139239
  16.7388551  66.2964415  43.9592479  17.5605994  65.8944602  43.6775161
  16.7350953  66.1932649  44.9108595   4.6739486  59.3203755  38.1670675
   3.8770650  59.4322449  38.6854170   4.4465079  59.6590407  37.3011565
  10.5045154  65.8448458  46.1153189  10.5689587  66.3068865  46.9511361
   9.7956078  65.2145823  46.2435499   1.0062444  59.2089666  43.6402189
   1.2570482  60.0936676  43.9059765   1.5421992  59.0294267  42.8677281
  24.8294544  62.6403163  40.3077450  24.0758252  62.0710561  40.1521455
  24.9642085  62.6065828  41.2548085  10.2193172  67.5116565  35.9832170
  10.0838846  68.3568101  36.4117018  10.7602984  67.7135843  35.2198104
   6.7060511  53.5908145  52.6446525   6.3127457  53.0374344  53.3194169
   7.5226652  53.9018724  53.0353043   3.6722569  65.0292003  36.5560095
   4.1847090  65.8235254  36.7065660   4.3245282  64.3318294  36.4893696
   5.4817454  68.1457760  38.6382848   5.6584082  69.0675724  38.4503832
   6.2774287  67.8316179  39.0677228   9.6228472  55.0066024  50.2366782
  10.3638186  55.6073177  50.1571244   9.8546395  54.2643662  49.6784824
   4.7669810  60.1922392  48.5145011   4.6523325  59.2907649  48.8152110
   3.9114328  60.4386088  48.1629828  11.8461648  68.1340132  50.1132512
  11.4025502  67.3476510  49.7953416  12.5078862  68.3219282  49.4476403
   6.6048769  69.6635933  44.6393190   7.1556194  69.5352997  43.8670184
   5.7660245  69.9630822  44.2888083  13.9442886  68.4142932  48.1413913
  13.9261362  69.2351813  47.6494182  14.8662806  68.2897007  48.3664054
  10.4015940  65.9287061  48.9837421  10.9344277  65.1675349  48.7536729
   9.8730021  65.6360713  49.7261576  13.5685635  51.0347127  44.5131063
  13.2249905  51.9248769  44.4370174  13.9364598  50.8448785  43.6500648
   1.6371486  63.3580658  37.3319665   2.4746708  63.7677666  37.1153373
   1.8149754  62.4180100  37.3019859  13.5335918  61.0255738  33.0203498
  13.0182541  61.7960343  33.2591886  13.2613226  60.3520874  33.6436560
  11.1183029  55.8705439  38.0788737  10.2624625  55.4812289  37.8994375
  11.5309981  55.9497400  37.2188522  12.6482176  53.4051782  42.4780296
  12.1446971  53.3681918  41.6648102  12.9412783  54.3144525  42.5376953
   8.8925062  53.4890512  41.4846478   9.7578058  53.2933321  41.1252368
   8.9602570  53.2600864  42.4115835  18.5070192  63.7788093  34.9556672
  17.7299635  63.4399252  34.5111834  19.1861673  63.7840716  34.2811637
  13.3222221  58.8982830  34.8463280  13.0172357  59.2128980  35.6973423
  14.2752663  58.9764250  34.8890613  11.7668653  65.0573054  36.4956233
  11.2390015  64.3225813  36.1829471  11.2656156  65.8347730  36.2496202
  16.7461499  63.2522074  41.6123280  16.0885173  63.9421336  41.7003408
  17.5501898  63.6418506  41.9557266   6.4987381  55.7192720  38.8562845
   7.0731133  55.4967902  38.1236038   7.0858363  55.7881415  39.6091446
  15.5566958  61.6066447  39.6627222  16.0698840  62.2396439  40.1648931
  16.2068182  61.0067642  39.2970582   6.8256968  57.7497181  32.8758730
   5.9894280  58.0871868  33.1968005   6.6861737  57.6146161  31.9385867
   8.8010048  52.5933969  37.5837914   8.1474461  52.2782986  36.9594529
   8.7590522  51.9709709  38.3097737   9.9121253  62.8753264  29.4991207
   9.0048315  62.6442517  29.6982355  10.4092285  62.0790883  29.6865188
  12.8189332  71.5850771  32.4187893  12.1451031  71.8882468  33.0272851
  13.2055154  72.3879852  32.0693350  12.0347789  59.0815902  41.9085562
  11.1170350  59.3030849  41.7507250  12.4507932  59.1562213  41.0497269
  12.8182836  60.4807318  37.0388242  13.5654655  60.9928715  36.7295364
  13.0874426  60.1591371  37.8992636  11.0909487  62.9765859  34.0215197
  10.1820706  62.6924892  34.1187666  11.1204570  63.3964937  33.1618503
  16.3228754  66.5872448  37.7906364  15.8691081  65.7463358  37.8471555
  15.6922721  67.2233847  38.1281144  15.2661674  57.5164434  39.0207032
  14.5284430  57.0041821  39.3517274  15.5188447  57.0764816  38.2090309
  14.7661693  68.4248945  38.7256182  15.0584668  68.9854002  38.0068548
  15.2760314  68.7177506  39.4809341  15.3673301  50.2940686  39.6148801
  15.6732178  49.4338050  39.3274716  16.0925906  50.8858307  39.4147795
   1.6597657  60.6971373  38.0030399   1.4622057  60.1040734  37.2781465
   1.1044321  60.3923583  38.7206338   9.6394381  60.5894479  40.1224992
   9.6942990  59.6368316  40.0467469   8.8285583  60.7453919  40.6066290
  10.7885574  64.5174603  31.3603275  10.3505004  63.8010461  30.9008913
  11.5296015  64.7450717  30.7988367   7.5786741  59.2071539  37.8815371
   6.7654606  59.5065710  38.2880563   8.0745735  58.8127228  38.5989853
   9.7295318  69.2029296  39.8149636   9.6871497  69.4290142  38.8858168
  10.6458017  68.9692671  39.9635437  13.1760952  59.6713364  46.7130265
  13.5310340  59.8984837  47.5724730  13.8233084  60.0031740  46.0907520
  18.9058689  62.7931800  37.4179594  18.7676588  62.9833396  36.4900783
  18.5494908  63.5551182  37.8747645   7.0700815  56.7789895  43.4976606
   7.7100195  56.6378654  42.7999569   6.2378346  56.4924408  43.1215208
  18.9328069  64.8608327  42.4290865  19.3664575  64.7683616  43.2773919
  19.6459650  64.8365827  41.7910881   7.8461119  66.0792325  39.6111598
   8.6401718  65.5842645  39.4094173   7.1352812  65.5510188  39.2479304
  12.6655964  68.4610421  43.9623966  12.7192986  69.0301357  44.7301682
  11.7970745  68.6312306  43.5978003   4.1543883  60.2235407  35.6871351
   3.2241471  60.1619862  35.9041313   4.2501355  59.7011360  34.8907992
   4.0729432  56.7490220  38.2749593   4.3336249  57.6635553  38.1658753
   4.8946604  56.2814662  38.4246205   5.5454357  58.1627977  45.4448417
   6.2177411  57.9545339  44.7961066   4.7184144  57.9650063  45.0053649
  19.7943618  64.9032027  44.9623751  19.9879508  65.8077838  45.2083026
  19.6944237  64.4439446  45.7962336  11.4479929  54.7889918  47.4614078
  10.8007844  55.4879867  47.3678554  12.2180945  55.2226062  47.8290326
  14.8558727  65.0538770  50.5364631  14.7044233  64.8249322  49.6194715
  14.8463407  66.0109371  50.5495976  11.6244063  62.6270683  45.5210898
  12.5536123  62.7781842  45.3479865  11.2035093  62.7154704  44.6659544
  10.4232395  66.6521347  43.2909435  10.2843481  66.2840132  44.1635373
   9.6346991  67.1668987  43.1193393  11.0180547  71.7530444  34.6334972
  11.1932303  71.2818487  35.4480595  10.3313335  72.3796210  34.8616233
  11.9737610  66.0302950  40.6798273  11.6387443  65.9903720  41.5755923
  11.4741556  65.3647666  40.2068683   5.9481854  61.4370580  46.2050854
   5.8101652  60.7050819  46.8062393   6.8586778  61.3479480  45.9235042
  14.9096802  63.3758984  30.9535333  14.2925973  62.6505812  30.8568385
  14.4413291  64.1368344  30.6102407   8.5764155  61.1490539  45.6934534
   9.2863774  60.5083731  45.6521152   8.5333463  61.4003434  46.6160715
  16.5650934  68.0857893  48.6141113  16.5063480  67.4017113  47.9471696
  16.9670452  68.8276883  48.1621739   7.2893089  58.1355757  47.5130173
   6.7530446  57.6846496  48.1651770   6.7009797  58.2701666  46.7700638
   5.5841633  74.9019806  41.4074832   5.8238231  75.5338331  42.0853851
   4.7410829  74.5507846  41.6940191   6.6995348  57.5944408  30.0756637
   5.8224814  57.4733209  29.7118884   7.1753101  56.8030487  29.8235526
  16.5668341  66.0497476  46.8455093  15.6795120  65.7123398  46.9681492
  17.1366892  65.3180508  47.0823858   3.0232210  57.2711765  44.5983168
   2.9390399  56.6637434  43.8633578   2.2014917  57.7620783  44.5992664
  10.0969494  70.7098929  43.8116336  10.0239666  71.5153900  44.3235641
   9.6546887  70.9090895  42.9864357   9.8859274  69.9470699  37.3219158
   9.1026796  70.4892379  37.4157382  10.5852019  70.4644678  37.7213399
  13.1955924  55.7565328  39.9653363  13.6924624  55.0035291  39.6454433
  12.4242906  55.7929645  39.3996572  21.0485682  61.4605694  41.6071654
  21.0375558  62.3430409  41.2365588  20.1803061  61.1077245  41.4126192
  12.5568178  70.6085763  45.9674495  13.2696150  71.2433228  45.8950396
  12.0658207  70.7049629  45.1514497  14.2785705  64.5137016  37.5391786
  13.3441984  64.6338478  37.3696491  14.4562373  63.6109482  37.2751796
   9.7790893  57.8982711  39.6925048   9.4088680  57.3453752  40.3805953
  10.2749985  57.2940845  39.1400048  17.6658256  60.3554335  38.0741820
  18.1318708  61.1882326  38.0002123  18.1165757  59.8899316  38.7787079
   7.6080091  68.3580206  46.7880066   8.3089551  68.9916689  46.9409460
   7.1375206  68.6994938  46.0275705  15.7334487  66.6998156  35.0727973
  16.0094331  66.5854751  35.9821847  14.8638986  66.3015641  35.0340146
  15.6374919  52.7234922  42.1132722  14.7237999  52.9539149  42.2814929
  16.0668020  52.8073366  42.9646754  15.4081377  60.9124814  44.6132616
  14.7552828  61.1600721  43.9585069  15.7861757  60.0988952  44.2795093
  12.3688551  70.9484507  38.7160786  12.5510946  70.1306163  39.1788538
  13.1921537  71.1652199  38.2785676  12.7030717  69.8752692  35.9775835
  13.2318483  69.3645147  35.3645997  12.9658936  69.5595222  36.8421368
  11.4568950  61.6544625  51.0998653  10.7809587  61.5538754  51.7701028
  12.2796584  61.4983839  51.5634650   3.2047809  67.8916561  43.7211168
   3.7901246  67.1460249  43.8539072   3.0072648  68.2020518  44.6047832
   6.0586465  70.9267809  38.7373611   5.3896840  71.4113936  38.2537651
   5.9199334  71.1737029  39.6516989  10.1991733  72.9611552  45.3356269
  10.7510041  73.1243174  46.1005354  10.5397927  73.5515990  44.6636294
   5.1756227  55.3086702  45.9378154   5.2397553  56.1701533  45.5255551
   5.1123347  54.6960704  45.2050512   4.6508499  57.3809835  49.5851188
   5.2780538  56.9986912  50.1988712   3.7936418  57.1624037  49.9506880
  15.0502608  67.7872810  51.1904923  15.5942512  68.4002768  50.6959878
  14.4689452  68.3452388  51.7071936   1.4274042  59.1886264  35.5169543
   1.7227483  58.2796942  35.4636596   0.5262078  59.1674003  35.1950545
  13.3360121  70.9093528  42.3219951  13.2111260  70.1083268  41.8130897
  13.9939212  71.4039721  41.8333921   4.9568289  57.2642260  41.4997091
   4.2354875  57.8778228  41.3604565   5.7461545  57.8000025  41.4213737
  15.3995029  68.7102548  43.9499501  14.4525364  68.5907899  43.8777828
  15.7477802  67.8225046  44.0325763   7.7594602  54.5996687  47.7737743
   8.2829004  54.8458983  48.5364052   7.5406936  55.4316722  47.3540880
   3.1561883  56.8700361  35.6408868   2.8274590  55.9897740  35.4583974
   3.5101254  56.8148030  36.5285257  12.4041462  68.5055264  40.1503853
  12.2566425  67.5771972  40.3311423  13.2294956  68.5275355  39.6660929
   6.2703707  57.1573331  36.0084346   6.6099779  57.6859252  35.2862954
   6.7175827  57.4953737  36.7842912  16.0075584  69.3283823  41.2368726
  16.9322132  69.1226684  41.0993177  15.8390887  69.0800224  42.1458068
   8.9647147  55.5410382  45.4587414   8.6243968  54.7418195  45.8608093
   8.2586154  55.8412093  44.8864247   9.6163619  52.6259694  43.9114737
  10.4389689  52.1520173  43.7893627   9.8601683  53.4050178  44.4113423
   8.2571854  55.6547953  34.2077638   8.9780216  56.0329206  33.7041355
   7.6337158  56.3736830  34.3112616  12.4002977  56.3593102  35.1435971
  12.6166591  57.2417740  34.8424799  11.9197044  55.9679315  34.4141613
   7.1402198  59.3178815  41.7206715   6.9946779  59.6319118  42.6130997
   6.6627402  59.9363715  41.1677614   8.9998581  56.3081363  41.7687605
   8.9860150  55.4122456  41.4319903   9.7171009  56.3152027  42.4025891
  10.8524712  56.7418703  43.8140732  10.5942489  57.6635774  43.8125063
  10.3209752  56.3449138  44.5041196  15.7970900  69.8469490  36.5930818
  15.9707778  69.2815913  35.8404670  16.2899792  70.6470385  36.4110308
   1.6147860  61.8584159  44.6594376   1.0701328  62.6343967  44.7914651
   2.4927210  62.2054964  44.5013498   8.4035477  55.1895743  37.0375175
   8.5251388  54.2612389  37.2366062   8.1137519  55.2034429  36.1253490
  11.2726667  52.8750654  40.1741895  11.2948364  52.9389987  39.2193874
  11.6894726  52.0355162  40.3682401  21.6510291  62.6105913  38.2121117
  22.0941438  61.8613238  37.8140241  20.7736802  62.6016050  37.8294849
  16.7846073  69.1636255  33.6927716  17.4796977  69.7842947  33.9115031
  17.1269223  68.3131606  33.9680094   2.4013882  60.9854056  47.5524533
   1.6595618  61.1336691  48.1389164   2.0806626  61.2462321  46.6891283
  18.6837496  66.6135960  35.2215047  19.2088820  66.9523233  34.4964367
  18.5959848  65.6782976  35.0378181  10.3457545  70.5270034  47.3504923
  10.6544671  70.2819181  48.2227623  11.1433027  70.7316672  46.8623794
  10.3678157  72.6807943  39.5810300   9.9283147  72.1884322  40.2743157
  11.1186274  72.1380911  39.3402375   2.8470496  68.8719484  39.5834928
   3.6728516  68.5723256  39.2033571   2.4964548  68.1027107  40.0324717
   7.8152029  68.2245953  41.6532602   7.1932038  67.5616658  41.3534829
   8.4856896  68.2507084  40.9706249   7.8876556  56.7027741  51.2465108
   7.9364712  57.5789863  50.8642877   8.4299071  56.1605134  50.6736751
  18.3731402  67.2468864  50.5266245  17.5826946  67.2293003  49.9870744
  18.1364757  67.7857158  51.2815281  18.4929277  64.0961330  47.8398973
  18.5427282  63.9311338  48.7814496  18.3843200  63.2288589  47.4496854
   7.3765536  66.7749876  35.1291062   7.5253656  67.4585340  34.4757735
   8.1831979  66.7554966  35.6440518  15.7833039  60.0792258  49.1558280
  16.6842902  59.9398723  48.8642278  15.8581014  60.2446713  50.0956457
  10.1175845  57.4559113  48.0011466   9.2479154  57.7492679  47.7294055
  10.3535325  58.0399558  48.7218730  19.9947474  66.5158272  48.0840995
  19.7032282  66.8788252  48.9204456  19.3819605  65.8025280  47.9054327
  21.1943156  64.0811152  40.6043565  22.0290048  64.5200956  40.7681125
  21.3302285  63.6049805  39.7851811  18.2434662  61.6390886  46.5521053
  18.7188784  61.8318533  45.7439904  17.3200227  61.6950072  46.3064436
   5.1318169  62.8015054  36.1352131   4.8864211  61.8977384  36.3332341
   5.3014083  62.8032204  35.1931609  12.8214879  53.6738730  45.5176887
  13.3396822  54.4099757  45.1923375  12.4670011  53.9802723  46.3523646
   4.4013816  58.5343411  33.6338292   3.7083061  58.6087766  32.9778328
   4.1565568  57.7703755  34.1559809  13.0727473  50.0939012  41.0377783
  13.3529227  49.4262202  41.6638210  13.8578080  50.2868108  40.5252447
  10.8760941  69.2698006  32.6002809  10.3034908  69.8888193  32.1473281
  11.4493735  69.8197368  33.1342731  16.9436331  58.5156646  44.7849358
  17.8953754  58.6154744  44.8061582  16.7739782  57.7234915  45.2947443
  14.9650711  55.6012230  44.9708759  14.3700643  55.8817242  44.2755248
  14.6800407  56.0906131  45.7425500  14.0958201  69.5535156  33.7311392
  15.0288874  69.4880718  33.9344267  14.0081414  70.3891423  33.2725924
  16.7246218  68.8701027  30.6915339  16.6459849  68.5360890  31.5851097
  17.5455884  69.3622795  30.6906812  19.4224409  61.7362766  43.8991658
  19.3900729  60.7978767  44.0851342  20.0325033  61.8146803  43.1657483
  11.2607740  60.6058819  29.9418862  12.2066844  60.4765027  30.0107280
  10.8821985  59.8673481  30.4188290  19.5718897  58.5273810  43.9449941
  19.0557946  57.7432266  43.7579870  20.4558846  58.1992526  44.1096461
  17.2329624  52.2714825  39.9045754  17.0354445  51.9629913  40.7889086
  17.8429330  52.9976464  40.0343684  25.2400959  62.7978773  43.0397695
  25.9704347  62.5364061  43.6005398  24.6307904  62.0607495  43.0799763
  23.3216256  60.9386636  43.6372146  22.5949419  60.8042601  43.0288638
  22.9063543  61.2463464  44.4428864  11.1446432  64.6576565  51.4019519
  12.0649442  64.8355164  51.5959565  11.1096015  63.7132611  51.2499218
   9.4450657  58.5308796  29.8773747   8.5382112  58.2341908  29.9536461
   9.7226638  58.2338614  29.0108033   4.1408505  62.5677600  44.0442300
   4.3594515  63.4994708  44.0630334   4.5534279  62.2085574  44.8297104
  11.0612723  53.0745685  36.0317989  10.2513451  52.7292770  36.4073235
  11.7497140  52.7653229  36.6205600  12.9903271  52.1523732  37.6542285
  13.5434310  52.5719185  38.3132308  13.2273357  51.2259480  37.6965241
   9.0136370  58.1410806  53.4345049   8.9133097  59.0905163  53.3657140
   8.7957912  57.8129045  52.5621119   8.2149442  55.3895731  30.0185726
   9.0768606  55.7150629  30.2781544   8.3999786  54.6027227  29.5058792
  16.3682078  54.2624257  37.1620949  15.7880747  54.9209061  36.7799002
  16.1018011  53.4401602  36.7508367  14.8185644  53.6629315  39.3642270
  15.3185423  53.7745849  38.5556589  15.4621252  53.3590368  40.0043078
   8.8767640  61.5707945  52.2510111   8.3934722  62.3708305  52.4574000
   8.9628579  61.5815889  51.2977555   2.1453600  63.4036324  40.1731930
   2.1224288  63.5024011  39.2213813   2.4554236  64.2501475  40.4949096
   4.8040978  65.4612479  44.2878544   5.7584231  65.4296422  44.2208476
   4.6053501  65.0003103  45.1028770   5.3940360  64.0313595  46.8549342
   6.2133249  64.5257674  46.8784179   5.6677168  63.1145563  46.8266910
  15.1506956  56.4224348  36.2177298  14.2632811  56.7073998  35.9997492
  15.5660945  56.2618111  35.3704575  18.5021492  56.4470869  39.9331637
  19.2781882  56.9367321  40.2056254  17.7769626  56.8728923  40.3903506
  20.9394051  57.1598488  40.9905578  21.5338542  56.9194224  40.2798886
  21.0120634  56.4405618  41.6179114   3.1591206  71.0032099  41.3048742
   3.0245674  70.2432500  40.7386740   2.7423269  71.7272999  40.8377531
  14.2950169  66.1869022  30.3125318  14.9986020  66.3919025  30.9282973
  13.5712818  66.7545784  30.5774401  15.1247980  61.9378883  36.4327588
  15.0683181  62.3947435  35.5935220  15.6776322  61.1769568  36.2550431
  18.9352786  57.7268615  37.2577707  18.6789720  57.3265251  38.0885915
  18.3105654  58.4412409  37.1327846  23.2465124  60.4664689  39.7648999
  22.6864682  60.5357878  40.5380561  22.6408627  60.2905673  39.0448495
   6.3160332  71.9001416  41.5167185   6.1992717  72.8446848  41.4145875
   5.4952779  71.5974977  41.9052984  16.2036867  66.6251551  32.3623778
  17.0382471  66.1932750  32.1801252  16.0421210  66.4533565  33.2900672
  15.8582759  63.1283665  33.7280117  15.8031563  62.9627936  32.7868561
  15.2328814  63.8359698  33.8842307  13.1728666  65.4332577  53.0533680
  14.0419826  65.6073229  52.6920315  12.6935418  66.2526993  52.9309409
   9.1678885  52.6291774  33.3065435   9.1557554  53.5733614  33.4633706
  10.0602306  52.4461919  33.0124897   7.3414846  72.5529678  44.7323113
   8.2442093  72.5853288  45.0489608   7.1152217  71.6230129  44.7469449
   9.0968448  71.3060664  41.3933192   8.1464080  71.3062526  41.2797564
   9.4000935  70.5593399  40.8769227  12.9831004  49.2234550  37.5611372
  12.2163400  48.6693037  37.7068055  13.3941709  49.2956419  38.4225524
   4.9872765  55.5119346  51.6516553   5.8504227  55.1556151  51.8619878
   4.4138176  55.1733241  52.3391958  24.8321142  77.1421203  42.4578954
  25.4699552  77.0227950  41.7542295  24.7141985  78.0902047  42.5166907
  21.6410848  77.0948631  42.3940479  21.3029360  76.9789695  41.5061014
  22.5100616  76.6939796  42.3741485  17.4997664  78.9484107  38.3837370
  16.9362529  78.8574044  37.6153658  17.3850059  78.1284012  38.8639863
  22.1230631  78.2483482  48.3526685  22.1119272  77.8536281  47.4807188
  22.2851271  77.5149555  48.9460456  15.0462096  80.4435299  41.2221591
  15.8383388  80.1026123  40.8067890  15.2858746  80.5530274  42.1423744
  23.0797223  82.6155075  33.6951835  22.4285202  83.2009155  33.3085849
  23.8741585  83.1461270  33.7546872  17.0052850  79.7044212  34.0938969
  17.7783726  79.1573199  33.9551845  17.3578249  80.5688461  34.3053431
  18.8437892  81.0320594  47.3005869  18.5527758  81.9366225  47.1852535
  19.4794877  81.0737122  48.0149938  19.7694099  78.4097443  43.8907228
  20.3657672  78.1853465  43.1764191  19.8269071  77.6682188  44.4932676
  19.3419128  75.8636878  31.7257419  19.5944648  75.3418399  30.9640882
  18.4043687  75.7003023  31.8284103  24.3862410  74.8672656  39.5332162
  25.1725500  74.4492080  39.1822580  24.6501115  75.7718749  39.7013811
  24.5572488  80.3045507  34.2320819  23.9218321  80.3780133  34.9441724
  24.2269894  80.8939106  33.5539899  29.7870838  74.8047890  40.4365141
  30.5196010  74.2347106  40.6702970  29.0310193  74.4169490  40.8771647
  19.0615416  77.7664984  33.9281794  18.9451674  77.0909887  34.5962879
  19.1717676  77.2797358  33.1113947  21.4046957  77.2275131  37.6328483
  21.0405165  76.7005752  38.3441405  22.2614073  76.8373600  37.4594969
  27.3096258  68.5169464  44.8959750  26.9779583  69.3864875  44.6720965
  26.7141871  68.2005748  45.5753780  21.0452444  72.2565031  32.6289832
  21.2126847  73.1245267  32.9960303  20.8549613  72.4192312  31.7051121
  23.8027777  80.7182010  44.2955662  23.5028501  81.6207049  44.1871470
  23.4578837  80.4514193  45.1476815  17.2540259  77.1695807  40.3292367
  16.3290755  77.0372021  40.5370059  17.5024672  77.9490026  40.8262309
  27.2024921  73.2364550  41.9753100  26.2941799  73.1679958  41.6811861
  27.1512517  73.7136495  42.8034925  21.0241665  74.7122688  33.6136499
  20.9041290  75.1579739  34.4521979  20.3294254  75.0608006  33.0550037
  14.6149070  76.8129080  41.1636156  14.7441451  77.0663559  42.0775568
  13.9346521  77.4056788  40.8440811  18.7848557  87.4826330  37.2626630
  18.7072587  88.4334155  37.3415111  18.1810201  87.1372203  37.9201556
  21.2765787  74.6554195  49.9187997  20.4999121  75.2148116  49.9090862
  21.9156350  75.1410978  50.4402867  29.0686568  71.4380988  43.7530974
  28.4260948  71.7313521  43.1070768  28.5641496  71.3233909  44.5584170
  26.7226731  75.1844161  34.4416833  27.6344587  75.4171548  34.2664530
  26.2136378  75.7681206  33.8791911  19.5312159  77.4639649  49.4805964
  20.2726844  78.0024693  49.2040788  18.8249145  78.0905938  49.6377516
  25.0067499  79.6068789  48.0778125  25.4150855  79.1651200  47.3332758
  24.2844761  79.0321417  48.3312318  21.3598569  74.5441396  45.4511682
  22.2059764  74.9680810  45.5946331  21.2997207  73.8875020  46.1450245
  25.3296314  80.1669980  41.8330414  24.7005176  80.3315694  41.1306482
  24.9421976  80.5811589  42.6041378  29.2085546  81.1024418  39.1874778
  28.5236584  81.4823319  38.6371811  29.2929395  81.7119744  39.9206726
  24.5098014  72.2045764  47.1092856  24.2658946  72.9587825  46.5727132
  24.7857945  72.5831112  47.9440103  26.4636477  78.7484377  45.7870122
  26.6753372  79.3916137  45.1104503  26.4166225  77.9146693  45.3192052
  24.0662706  71.3602197  42.6906694  23.2047185  71.6583451  42.9823431
  24.0925141  71.5772596  41.7587726  20.8824276  79.9044388  39.0980499
  21.3462621  80.1832091  38.3085122  20.6181074  79.0027833  38.9153590
  17.7748357  79.4515870  42.0360263  18.3449714  79.8803138  41.3977747
  18.3656468  79.1698454  42.7344448  19.8193162  76.0267540  35.9070065
  20.5217205  76.4788584  36.3743991  19.4873790  75.3851359  36.5349958
  18.2673523  74.6179297  50.2821274  17.6372184  75.2995578  50.5156671
  18.1609611  74.5062379  49.3374412  13.5618496  74.2851093  41.2087198
  12.7717550  74.5408622  40.7327309  14.0529743  75.0999431  41.3139239
  27.5782305  81.6256332  43.9592479  28.3999749  81.2236519  43.6775161
  27.5744708  81.5224566  44.9108595  15.5133241  74.6495672  38.1670675
  14.7164404  74.7614367  38.6854170  15.2858833  74.9882325  37.3011565
  21.3438909  81.1740376  46.1153189  21.4083341  81.6360783  46.9511361
  20.6349832  80.5437740  46.2435499  11.8456199  74.5381583  43.6402189
  12.0964237  75.4228593  43.9059765  12.3815747  74.3586185  42.8677281
  35.6688298  77.9695081  40.3077450  34.9152007  77.4002479  40.1521455
  35.8035839  77.9357745  41.2548085  21.0586926  82.8408483  35.9832170
  20.9232601  83.6860019  36.4117018  21.5996739  83.0427761  35.2198104
  17.5454266  68.9200063  52.6446525  17.1521211  68.3666261  53.3194169
  18.3620406  69.2310641  53.0353043  14.5116324  80.3583921  36.5560095
  15.0240844  81.1527171  36.7065660  15.1639036  79.6610211  36.4893696
  16.3211208  83.4749677  38.6382848  16.4977837  84.3967642  38.4503832
  17.1168042  83.1608097  39.0677228  20.4622227  70.3357942  50.2366782
  21.2031940  70.9365095  50.1571244  20.6940150  69.5935580  49.6784824
  15.6063565  75.5214309  48.5145011  15.4917080  74.6199566  48.8152110
  14.7508083  75.7678006  48.1629828  22.6855403  83.4632050  50.1132512
  22.2419257  82.6768428  49.7953416  23.3472616  83.6511200  49.4476403
  17.4442524  84.9927851  44.6393190  17.9949949  84.8644914  43.8670184
  16.6054000  85.2922740  44.2888083  24.7836641  83.7434849  48.1413913
  24.7655116  84.5643730  47.6494182  25.7056561  83.6188925  48.3664054
  21.2409695  81.2578979  48.9837421  21.7738032  80.4967267  48.7536729
  20.7123776  80.9652631  49.7261576  24.4079390  66.3639045  44.5131063
  24.0643659  67.2540687  44.4370174  24.7758352  66.1740703  43.6500648
  12.4765240  78.6872575  37.3319665  13.3140462  79.0969584  37.1153373
  12.6543508  77.7472018  37.3019859  24.3729672  76.3547656  33.0203498
  23.8576296  77.1252261  33.2591886  24.1006981  75.6812792  33.6436560
  21.9576784  71.1997357  38.0788737  21.1018380  70.8104207  37.8994375
  22.3703735  71.2789318  37.2188522  23.4875930  68.7343700  42.4780296
  22.9840726  68.6973835  41.6648102  23.7806537  69.6436443  42.5376953
  19.7318816  68.8182430  41.4846478  20.5971813  68.6225238  41.1252368
  19.7996325  68.5892782  42.4115835  29.3463947  79.1080011  34.9556672
  28.5693389  78.7691170  34.5111834  30.0255428  79.1132634  34.2811637
  24.1615976  74.2274748  34.8463280  23.8566111  74.5420897  35.6973423
  25.1146418  74.3056168  34.8890613  22.6062408  80.3864971  36.4956233
  22.0783769  79.6517731  36.1829471  22.1049910  81.1639648  36.2496202
  27.5855254  78.5813992  41.6123280  26.9278928  79.2713253  41.7003408
  28.3895653  78.9710424  41.9557266  17.3381135  71.0484638  38.8562845
  17.9124887  70.8259819  38.1236038  17.9252118  71.1173332  39.6091446
  26.3960712  76.9358365  39.6627222  26.9092594  77.5688356  40.1648931
  27.0461936  76.3359560  39.2970582  17.6650722  73.0789099  32.8758730
  16.8288034  73.4163785  33.1968005  17.5255492  72.9438079  31.9385867
  19.6403803  67.9225887  37.5837914  18.9868215  67.6074904  36.9594529
  19.5984277  67.3001627  38.3097737  20.7515008  78.2045182  29.4991207
  19.8442069  77.9734435  29.6982355  21.2486040  77.4082801  29.6865188
  23.6583087  86.9142689  32.4187893  22.9844785  87.2174386  33.0272851
  24.0448909  87.7171769  32.0693350  22.8741543  74.4107820  41.9085562
  21.9564105  74.6322767  41.7507250  23.2901687  74.4854131  41.0497269
  23.6576591  75.8099236  37.0388242  24.4048410  76.3220633  36.7295364
  23.9268180  75.4883289  37.8992636  21.9303241  78.3057777  34.0215197
  21.0214460  78.0216809  34.1187666  21.9598325  78.7256855  33.1618503
  27.1622509  81.9164366  37.7906364  26.7084836  81.0755276  37.8471555
  26.5316475  82.5525764  38.1281144  26.1055428  72.8456352  39.0207032
  25.3678185  72.3333738  39.3517274  26.3582202  72.4056734  38.2090309
  25.6055448  83.7540863  38.7256182  25.8978422  84.3145920  38.0068548
  26.1154068  84.0469424  39.4809341  26.2067055  65.6232604  39.6148801
  26.5125932  64.7629967  39.3274716  26.9319660  66.2150224  39.4147795
  12.4991412  76.0263291  38.0030399  12.3015811  75.4332651  37.2781465
  11.9438075  75.7215501  38.7206338  20.4788135  75.9186397  40.1224992
  20.5336745  74.9660234  40.0467469  19.6679337  76.0745836  40.6066290
  21.6279329  79.8466520  31.3603275  21.1898759  79.1302379  30.9008913
  22.3689770  80.0742635  30.7988367  18.4180495  74.5363457  37.8815371
  17.6048361  74.8357627  38.2880563  18.9139489  74.1419146  38.5989853
  20.5689073  84.5321214  39.8149636  20.5265252  84.7582060  38.8858168
  21.4851772  84.2984588  39.9635437  24.0154707  75.0005281  46.7130265
  24.3704094  75.2276754  47.5724730  24.6626838  75.3323658  46.0907520
  29.7452444  78.1223717  37.4179594  29.6070342  78.3125313  36.4900783
  29.3888663  78.8843100  37.8747645  17.9094570  72.1081812  43.4976606
  18.5493949  71.9670572  42.7999569  17.0772100  71.8216326  43.1215208
  29.7721823  80.1900244  42.4290865  30.2058330  80.0975533  43.2773919
  30.4853404  80.1657745  41.7910881  18.6854874  81.4084243  39.6111598
  19.4795472  80.9134563  39.4094173  17.9746566  80.8802106  39.2479304
  23.5049718  83.7902338  43.9623966  23.5586741  84.3593275  44.7301682
  22.6364500  83.9604223  43.5978003  14.9937637  75.5527325  35.6871351
  14.0635225  75.4911780  35.9041313  15.0895109  75.0303277  34.8907992
  14.9123186  72.0782137  38.2749593  15.1730004  72.9927471  38.1658753
  15.7340359  71.6106580  38.4246205  16.3848112  73.4919895  45.4448417
  17.0571165  73.2837257  44.7961066  15.5577898  73.2941981  45.0053649
  30.6337373  80.2323945  44.9623751  30.8273263  81.1369755  45.2083026
  30.5337991  79.7731364  45.7962336  22.2873684  70.1181835  47.4614078
  21.6401599  70.8171785  47.3678554  23.0574699  70.5517979  47.8290326
  25.6952482  80.3830688  50.5364631  25.5437988  80.1541239  49.6194715
  25.6857161  81.3401289  50.5495976  22.4637818  77.9562600  45.5210898
  23.3929878  78.1073760  45.3479865  22.0428848  78.0446621  44.6659544
  21.2626150  81.9813265  43.2909435  21.1237235  81.6132049  44.1635373
  20.4740746  82.4960904  43.1193393  21.8574302  87.0822361  34.6334972
  22.0326057  86.6110404  35.4480595  21.1707090  87.7088127  34.8616233
  22.8131365  81.3594868  40.6798273  22.4781197  81.3195637  41.5755923
  22.3135311  80.6939583  40.2068683  16.7875609  76.7662498  46.2050854
  16.6495407  76.0342736  46.8062393  17.6980532  76.6771398  45.9235042
  25.7490557  78.7050902  30.9535333  25.1319727  77.9797730  30.8568385
  25.2807045  79.4660262  30.6102407  19.4157910  76.4782457  45.6934534
  20.1257528  75.8375649  45.6521152  19.3727218  76.7295352  46.6160715
  27.4044688  83.4149810  48.6141113  27.3457234  82.7309030  47.9471696
  27.8064207  84.1568800  48.1621739  18.1286843  73.4647675  47.5130173
  17.5924201  73.0138413  48.1651770  17.5403552  73.5993584  46.7700638
  16.4235387  90.2311724  41.4074832  16.6631985  90.8630248  42.0853851
  15.5804583  89.8799764  41.6940191  17.5389102  72.9236326  30.0756637
  16.6618569  72.8025127  29.7118884  18.0146856  72.1322404  29.8235526
  27.4062095  81.3789394  46.8455093  26.5188874  81.0415316  46.9681492
  27.9760647  80.6472425  47.0823858   9.0591243  77.7113486  40.1698144
   9.7462282  77.3975216  39.5819160   8.9039371  78.6154851  39.8965396
  13.8625965  72.6003682  44.5983168  13.7784153  71.9929352  43.8633578
  13.0408671  73.0912701  44.5992664  20.9363249  86.0390846  43.8116336
  20.8633420  86.8445818  44.3235641  20.4940642  86.2382812  42.9864357
  20.7253028  85.2762617  37.3219158  19.9420550  85.8184297  37.4157382
  21.4245774  85.7936596  37.7213399  24.0349679  71.0857246  39.9653363
  24.5318378  70.3327208  39.6454433  23.2636660  71.1221563  39.3996572
  31.8879436  76.7897612  41.6071654  31.8769312  77.6722327  41.2365588
  31.0196815  76.4369162  41.4126192  23.3961932  85.9377681  45.9674495
  24.1089905  86.5725145  45.8950396  22.9051961  86.0341547  45.1514497
  25.1179459  79.8428933  37.5391786  24.1835738  79.9630396  37.3696491
  25.2956128  78.9401400  37.2751796  20.6184647  73.2274629  39.6925048
  20.2482435  72.6745669  40.3805953  21.1143740  72.6232762  39.1400048
  28.5052011  75.6846252  38.0741820  28.9712463  76.5174244  38.0002123
  28.9559511  75.2191234  38.7787079  18.4473846  83.6872124  46.7880066
  19.1483305  84.3208607  46.9409460  17.9768961  84.0286856  46.0275705
  26.5728242  82.0290074  35.0727973  26.8488086  81.9146668  35.9821847
  25.7032740  81.6307559  35.0340146  26.4768673  68.0526839  42.1132722
  25.5631753  68.2831066  42.2814929  26.9061775  68.1365284  42.9646754
  26.2475132  76.2416731  44.6132616  25.5946582  76.4892639  43.9585069
  26.6255512  75.4280870  44.2795093  23.2082306  86.2776425  38.7160786
  23.3904700  85.4598081  39.1788538  24.0315292  86.4944117  38.2785676
  23.5424471  85.2044610  35.9775835  24.0712238  84.6937064  35.3645997
  23.8052691  84.8887140  36.8421368  22.2962705  76.9836542  51.0998653
  21.6203342  76.8830672  51.7701028  23.1190339  76.8275756  51.5634650
  14.0441564  83.2208479  43.7211168  14.6295001  82.4752167  43.8539072
  13.8466402  83.5312436  44.6047832  16.8980219  86.2559726  38.7373611
  16.2290594  86.7405854  38.2537651  16.7593089  86.5028947  39.6516989
   8.6359219  75.7914079  42.4415611   8.6743318  75.2577670  43.2352729
   8.1299512  75.2649285  41.8226589  21.0385488  88.2903470  45.3356269
  21.5903796  88.4535091  46.1005354  21.3791681  88.8807908  44.6636294
  16.0149981  70.6378620  45.9378154  16.0791308  71.4993451  45.5255551
  15.9517101  70.0252621  45.2050512  15.4902254  72.7101752  49.5851188
  16.1174292  72.3278830  50.1988712  14.6330172  72.4915954  49.9506880
  25.8896362  83.1164727  51.1904923  26.4336266  83.7294686  50.6959878
  25.3083207  83.6744306  51.7071936  12.2667796  74.5178181  35.5169543
  12.5621237  73.6088860  35.4636596  11.3655832  74.4965921  35.1950545
  24.1753875  86.2385445  42.3219951  24.0505015  85.4375185  41.8130897
  24.8332966  86.7331639  41.8333921  15.7962043  72.5934178  41.4997091
  15.0748629  73.2070146  41.3604565  16.5855299  73.1291943  41.4213737
  26.2388783  84.0394466  43.9499501  25.2919119  83.9199817  43.8777828
  26.5871557  83.1516964  44.0325763  18.5988357  69.9288604  47.7737743
  19.1222759  70.1750901  48.5364052  18.3800690  70.7608639  47.3540880
  13.9955638  72.1992279  35.6408868  13.6668344  71.3189658  35.4583974
  14.3495009  72.1439948  36.5285257  23.2435217  83.8347182  40.1503853
  23.0960179  82.9063889  40.3311423  24.0688710  83.8567272  39.6660929
  17.1097461  72.4865249  36.0084346  17.4493534  73.0151170  35.2862954
  17.5569582  72.8245655  36.7842912  26.8469339  84.6575740  41.2368726
  27.7715886  84.4518602  41.0993177  26.6784642  84.4092142  42.1458068
  19.8040902  70.8702300  45.4587414  19.4637722  70.0710113  45.8608093
  19.0979908  71.1704010  44.8864247  20.4557374  67.9551612  43.9114737
  21.2783443  67.4812090  43.7893627  20.6995437  68.7342096  44.4113423
  19.0965608  70.9839870  34.2077638  19.8173971  71.3621123  33.7041355
  18.4730912  71.7028747  34.3112616  23.2396731  71.6885019  35.1435971
  23.4560345  72.5709657  34.8424799  22.7590798  71.2971233  34.4141613
  17.9795952  74.6470733  41.7206715  17.8340533  74.9611036  42.6130997
  17.5021156  75.2655633  41.1677614  19.8392335  71.6373281  41.7687605
  19.8253904  70.7414374  41.4319903  20.5564763  71.6443944  42.4025891
  21.6918466  72.0710621  43.8140732  21.4336244  72.9927691  43.8125063
  21.1603506  71.6741055  44.5041196  26.6364655  85.1761408  36.5930818
  26.8101532  84.6107830  35.8404670  27.1293546  85.9762303  36.4110308
  12.4541615  77.1876077  44.6594376  11.9095083  77.9635885  44.7914651
  13.3320964  77.5346882  44.5013498  19.2429231  70.5187661  37.0375175
  19.3645142  69.5904307  37.2366062  18.9531274  70.5326347  36.1253490
  22.1120422  68.2042571  40.1741895  22.1342118  68.2681904  39.2193874
  22.5288481  67.3647080  40.3682401  32.4904046  77.9397831  38.2121117
  32.9335192  77.1905156  37.8140241  31.6130556  77.9307967  37.8294849
  27.6239827  84.4928172  33.6927716  28.3190732  85.1134865  33.9115031
  27.9662977  83.6423524  33.9680094  13.2407636  76.3145973  47.5524533
  12.4989373  76.4628609  48.1389164  12.9200381  76.5754239  46.6891283
  29.5231250  81.9427878  35.2215047  30.0482574  82.2815151  34.4964367
  29.4353603  81.0074893  35.0378181  21.1851299  85.8561952  47.3504923
  21.4938426  85.6111098  48.2227623  21.9826781  86.0608590  46.8623794
  21.2071911  88.0099861  39.5810300  20.7676901  87.5176240  40.2743157
  21.9580028  87.4672829  39.3402375  13.6864250  84.2011402  39.5834928
  14.5122270  83.9015174  39.2033571  13.3358302  83.4319024  40.0324717
  18.6545783  83.5537870  41.6532602  18.0325793  82.8908575  41.3534829
  19.3250650  83.5799002  40.9706249  11.8872855  82.1197728  40.5423862
  11.0504763  81.6919903  40.3607863  11.8596501  82.3130172  41.4794653
  18.7270311  72.0319658  51.2465108  18.7758466  72.9081781  50.8642877
  19.2692825  71.4897051  50.6736751  29.2125156  82.5760782  50.5266245
  28.4220700  82.5584920  49.9870744  28.9758511  83.1149075  51.2815281
  29.3323032  79.4253248  47.8398973  29.3821036  79.2603255  48.7814496
  29.2236955  78.5580507  47.4496854  18.2159290  82.1041794  35.1291062
  18.3647411  82.7877258  34.4757735  19.0225734  82.0846884  35.6440518
  26.6226794  75.4084176  49.1558280  27.5236657  75.2690641  48.8642278
  26.6974768  75.5738631  50.0956457  20.9569599  72.7851031  48.0011466
  20.0872909  73.0784597  47.7294055  21.1929080  73.3691476  48.7218730
  30.8341228  81.8450189  48.0840995  30.5426037  82.2080170  48.9204456
  30.2213360  81.1317198  47.9054327  32.0336911  79.4103069  40.6043565
  32.8683802  79.8492873  40.7681125  32.1696039  78.9341722  39.7851811
  29.0828417  76.9682804  46.5521053  29.5582538  77.1610450  45.7439904
  28.1593982  77.0241990  46.3064436  15.9711923  78.1306971  36.1352131
  15.7257965  77.2269301  36.3332341  16.1407838  78.1324122  35.1931609
  23.6608633  69.0030648  45.5176887  24.1790577  69.7391675  45.1923375
  23.3063766  69.3094641  46.3523646  15.2407571  73.8635329  33.6338292
  14.5476816  73.9379684  32.9778328  14.9959323  73.0995672  34.1559809
  23.9121227  65.4230930  41.0377783  24.1922981  64.7554119  41.6638210
  24.6971834  65.6160026  40.5252447  21.7154696  84.5989924  32.6002809
  21.1428663  85.2180111  32.1473281  22.2887489  85.1489286  33.1342731
  27.7830086  73.8448564  44.7849358  28.7347508  73.9446662  44.8061582
  27.6133536  73.0526833  45.2947443  25.8044465  70.9304147  44.9708759
  25.2094397  71.2109160  44.2755248  25.5194162  71.4198048  45.7425500
  24.9351956  84.8827074  33.7311392  25.8682629  84.8172636  33.9344267
  24.8475168  85.7183341  33.2725924  27.5639972  84.1992945  30.6915339
  27.4853604  83.8652808  31.5851097  28.3849639  84.6914712  30.6906812
  30.2618163  77.0654684  43.8991658  30.2294483  76.1270685  44.0851342
  30.8718787  77.1438721  43.1657483  22.1001494  75.9350737  29.9418862
  23.0460599  75.8056945  30.0107280  21.7215739  75.1965399  30.4188290
  30.4112652  73.8565727  43.9449941  29.8951701  73.0724184  43.7579870
  31.2952600  73.5284444  44.1096461  28.0723379  67.6006743  39.9045754
  27.8748200  67.2921831  40.7889086  28.6823084  68.3268382  40.0343684
  36.0794713  78.1270691  43.0397695  36.8098102  77.8655979  43.6005398
  35.4701659  77.3899413  43.0799763  34.1610010  76.2678553  43.6372146
  33.4343174  76.1334518  43.0288638  33.7457297  76.5755382  44.4428864
  21.9840187  79.9868483  51.4019519  22.9043196  80.1647082  51.5959565
  21.9489770  79.0424528  51.2499218  20.2844411  73.8600713  29.8773747
  19.3775867  73.5633826  29.9536461  20.5620392  73.5630531  29.0108033
  11.2022352  75.1807077  40.3272794  10.8825136  74.3272385  40.0347168
  10.6555780  75.3955655  41.0830761  14.9802259  77.8969518  44.0442300
  15.1988269  78.8286625  44.0630334  15.3928033  77.5377492  44.8297104
  21.9006477  68.4037603  36.0317989  21.0907205  68.0584688  36.4073235
  22.5890894  68.0945147  36.6205600  23.8297025  67.4815650  37.6542285
  24.3828064  67.9011103  38.3132308  24.0667112  66.5551398  37.6965241
  19.8530125  73.4702723  53.4345049  19.7526852  74.4197080  53.3657140
  19.6351667  73.1420962  52.5621119  19.0543196  70.7187648  30.0185726
  19.9162360  71.0442547  30.2781544  19.2393540  69.9319144  29.5058792
  11.0710612  78.8009988  42.2965915  10.3774083  78.3863941  41.7835870
  11.8183603  78.8430525  41.6999334  27.2075832  69.5916175  37.1620949
  26.6274502  70.2500979  36.7799002  26.9411765  68.7693519  36.7508367
  25.6579399  68.9921233  39.3642270  26.1579177  69.1037767  38.5556589
  26.3015007  68.6882285  40.0043078  19.7161395  76.8999862  52.2510111
  19.2328476  77.7000222  52.4574000  19.8022334  76.9107807  51.2977555
  12.9847354  78.7328242  40.1731930  12.9618042  78.8315929  39.2213813
  13.2947991  79.5793393  40.4949096  15.6434732  80.7904397  44.2878544
  16.5977986  80.7588339  44.2208476  15.4447256  80.3295021  45.1028770
  16.2334114  79.3605513  46.8549342  17.0527003  79.8549592  46.8784179
  16.5070922  78.4437481  46.8266910  25.9900711  71.7516265  36.2177298
  25.1026566  72.0365916  35.9997492  26.4054700  71.5910029  35.3704575
  29.3415247  71.7762786  39.9331637  30.1175637  72.2659239  40.2056254
  28.6163381  72.2020840  40.3903506  31.7787805  72.4890405  40.9905578
  32.3732296  72.2486141  40.2798886  31.8514389  71.7697536  41.6179114
  13.9984961  86.3324016  41.3048742  13.8639429  85.5724417  40.7386740
  13.5817023  87.0564916  40.8377531  25.1343924  81.5160940  30.3125318
  25.8379774  81.7210942  30.9282973  24.4106573  82.0837702  30.5774401
  25.9641734  77.2670801  36.4327588  25.9076936  77.7239353  35.5935220
  26.5170077  76.5061486  36.2550431  29.7746540  73.0560533  37.2577707
  29.5183474  72.6557169  38.0885915  29.1499408  73.7704327  37.1327846
  34.0858878  75.7956606  39.7648999  33.5258436  75.8649796  40.5380561
  33.4802381  75.6197591  39.0448495  17.1554087  87.2293333  41.5167185
  17.0386471  88.1738766  41.4145875  16.3346533  86.9266895  41.9052984
  27.0430621  81.9543469  32.3623778  27.8776225  81.5224668  32.1801252
  26.8814964  81.7825483  33.2900672  26.6976514  78.4575582  33.7280117
  26.6425317  78.2919854  32.7868561  26.0722569  79.1651615  33.8842307
  11.4869029  73.6943647  47.5541539  12.1327892  73.1842601  48.0428764
  11.2786180  74.4312328  48.1284964  24.0122421  80.7624494  53.0533680
  24.8813580  80.9365147  52.6920315  23.5329172  81.5818911  52.9309409
  20.0072639  67.9583691  33.3065435  19.9951309  68.9025531  33.4633706
  20.8996061  67.7753837  33.0124897  18.1808601  87.8821595  44.7323113
  19.0835848  87.9145206  45.0489608  17.9545971  86.9522046  44.7469449
  19.9362203  86.6352582  41.3933192  18.9857834  86.6354443  41.2797564
  20.2394689  85.8885316  40.8769227  23.8224758  64.5526468  37.5611372
  23.0557154  63.9984955  37.7068055  24.2335463  64.6248337  38.4225524
  15.8266520  70.8411264  51.6516553  16.6897981  70.4848069  51.8619878
  15.2531930  70.5025159  52.3391958  35.6714896  92.4713120  42.4578954
  36.3093306  92.3519868  41.7542295  35.5535739  93.4193964  42.5166907
  32.4804603  92.4240548  42.3940479  32.1423114  92.3081613  41.5061014
  33.3494371  92.0231713  42.3741485  28.3391418  94.2776025  38.3837370
  27.7756284  94.1865962  37.6153658  28.2243813  93.4575929  38.8639863
  32.9624386  93.5775400  48.3526685  32.9513027  93.1828198  47.4807188
  33.1245025  92.8441473  48.9460456  25.8855850  95.7727216  41.2221591
  26.6777142  95.4318041  40.8067890  26.1252501  95.8822191  42.1423744
  33.9190977  97.9446992  33.6951835  33.2678957  98.5301073  33.3085849
  34.7135340  98.4753187  33.7546872  27.8446604  95.0336130  34.0938969
  28.6177480  94.4865117  33.9551845  28.1972003  95.8980379  34.3053431
  29.6831647  96.3612512  47.3005869  29.3921513  97.2658143  47.1852535
  30.3188631  96.4029039  48.0149938  30.6087854  93.7389360  43.8907228
  31.2051426  93.5145383  43.1764191  30.6662825  92.9974106  44.4932676
  30.1812882  91.1928796  31.7257419  30.4338403  90.6710317  30.9640882
  29.2437441  91.0294941  31.8284103  35.2256165  90.1964574  39.5332162
  36.0119254  89.7783997  39.1822580  35.4894869  91.1010666  39.7013811
  35.3966242  95.6337424  34.2320819  34.7612075  95.7072051  34.9441724
  35.0663649  96.2231023  33.5539899  40.6264592  90.1339807  40.4365141
  41.3589764  89.5639024  40.6702970  39.8703948  89.7461408  40.8771647
  29.9009171  93.0956902  33.9281794  29.7845429  92.4201805  34.5962879
  30.0111431  92.6089276  33.1113947  32.2440712  92.5567049  37.6328483
  31.8798919  92.0297670  38.3441405  33.1007828  92.1665518  37.4594969
  38.1490012  83.8461381  44.8959750  37.8173337  84.7156792  44.6720965
  37.5535626  83.5297665  45.5753780  31.8846199  87.5856948  32.6289832
  32.0520601  88.4537185  32.9960303  31.6943368  87.7484230  31.7051121
  34.6421532  96.0473927  44.2955662  34.3422255  96.9498966  44.1871470
  34.2972591  95.7806111  45.1476815  28.0934013  92.4987724  40.3292367
  27.1684510  92.3663938  40.5370059  28.3418427  93.2781943  40.8262309
  38.0418676  88.5656468  41.9753100  37.1335553  88.4971876  41.6811861
  37.9906272  89.0428412  42.8034925  31.8635420  90.0414606  33.6136499
  31.7435045  90.4871657  34.4521979  31.1688008  90.3899924  33.0550037
  25.4542824  92.1420998  41.1636156  25.5835206  92.3955477  42.0775568
  24.7740276  92.7348706  40.8440811  32.1159542  89.9846113  49.9187997
  31.3392876  90.5440033  49.9090862  32.7550105  90.4702896  50.4402867
  39.9080322  86.7672906  43.7530974  39.2654702  87.0605439  43.1070768
  39.4035251  86.6525826  44.5584170  37.5620486  90.5136079  34.4416833
  38.4738342  90.7463466  34.2664530  37.0530133  91.0973123  33.8791911
  30.3705914  92.7931567  49.4805964  31.1120598  93.3316610  49.2040788
  29.6642899  93.4197855  49.6377516  35.8461253  94.9360707  48.0778125
  36.2544610  94.4943117  47.3332758  35.1238515  94.3613334  48.3312318
  32.1992324  89.8733314  45.4511682  33.0453519  90.2972727  45.5946331
  32.1390961  89.2166938  46.1450245  36.1690068  95.4961898  41.8330414
  35.5398931  95.6607612  41.1306482  35.7815730  95.9103507  42.6041378
  40.0479300  96.4316335  39.1874778  39.3630338  96.8115237  38.6371811
  40.1323149  97.0411662  39.9206726  35.3491769  87.5337682  47.1092856
  35.1052701  88.2879743  46.5727132  35.6251699  87.9123030  47.9440103
  37.3030232  94.0776294  45.7870122  37.5147127  94.7208054  45.1104503
  37.2559980  93.2438611  45.3192052  34.9056461  86.6894115  42.6906694
  34.0440940  86.9875369  42.9823431  34.9318895  86.9064514  41.7587726
  31.7218030  95.2336306  39.0980499  32.1856376  95.5124009  38.3085122
  31.4574828  94.3319750  38.9153590  28.6142111  94.7807787  42.0360263
  29.1843468  95.2095056  41.3977747  29.2050223  94.4990372  42.7344448
  30.6586916  91.3559458  35.9070065  31.3610959  91.8080502  36.3743991
  30.3267545  90.7143277  36.5349958  29.1067278  89.9471215  50.2821274
  28.4765938  90.6287496  50.5156671  29.0003365  89.8354296  49.3374412
  24.4012250  89.6143011  41.2087198  23.6111304  89.8700539  40.7327309
  24.8923497  90.4291349  41.3139239  38.4176060  96.9548250  43.9592479
  39.2393503  96.5528437  43.6775161  38.4138462  96.8516484  44.9108595
  26.3526995  89.9787590  38.1670675  25.5558159  90.0906284  38.6854170
  26.1252588  90.3174242  37.3011565  32.1832663  96.5032293  46.1153189
  32.2477096  96.9652700  46.9511361  31.4743587  95.8729658  46.2435499
  22.6849953  89.8673501  43.6402189  22.9357991  90.7520511  43.9059765
  23.2209501  89.6878103  42.8677281  46.5082053  93.2986998  40.3077450
  45.7545761  92.7294396  40.1521455  46.6429594  93.2649663  41.2548085
  31.8980681  98.1700401  35.9832170  31.7626355  99.0151936  36.4117018
  32.4390493  98.3719678  35.2198104  28.3848020  84.2491981  52.6446525
  27.9914966  83.6958179  53.3194169  29.2014161  84.5602559  53.0353043
  25.3510078  95.6875839  36.5560095  25.8634599  96.4819089  36.7065660
  26.0032791  94.9902129  36.4893696  27.1604963  98.8041595  38.6382848
  27.3371591  99.7259560  38.4503832  27.9561796  98.4900014  39.0677228
  31.3015981  85.6649860  50.2366782  32.0425695  86.2657013  50.1571244
  31.5333904  84.9227497  49.6784824  26.4457319  90.8506227  48.5145011
  26.3310834  89.9491484  48.8152110  25.5901837  91.0969924  48.1629828
  33.5249157  98.7923967  50.1132512  33.0813011  98.0060346  49.7953416
  34.1866371  98.9803118  49.4476403  28.2836278 100.3219769  44.6393190
  28.8343703 100.1936832  43.8670184  27.4447754 100.6214658  44.2888083
  35.6230395  99.0726767  48.1413913  35.6048870  99.8935648  47.6494182
  36.5450315  98.9480842  48.3664054  32.0803449  96.5870897  48.9837421
  32.6131786  95.8259185  48.7536729  31.5517530  96.2944548  49.7261576
  35.2473144  81.6930963  44.5131063  34.9037414  82.5832604  44.4370174
  35.6152107  81.5032620  43.6500648  23.3158995  94.0164493  37.3319665
  24.1534217  94.4261501  37.1153373  23.4937263  93.0763935  37.3019859
  35.2123427  91.6839574  33.0203498  34.6970050  92.4544178  33.2591886
  34.9400735  91.0104710  33.6436560  32.7970538  86.5289274  38.0788737
  31.9412134  86.1396125  37.8994375  33.2097490  86.6081235  37.2188522
  34.3269685  84.0635618  42.4780296  33.8234480  84.0265753  41.6648102
  34.6200292  84.9728360  42.5376953  30.5712571  84.1474347  41.4846478
  31.4365567  83.9517156  41.1252368  30.6390079  83.9184699  42.4115835
  40.1857701  94.4371928  34.9556672  39.4087144  94.0983088  34.5111834
  40.8649182  94.4424551  34.2811637  35.0009730  89.5566666  34.8463280
  34.6959866  89.8712815  35.6973423  35.9540172  89.6348086  34.8890613
  33.4456162  95.7156889  36.4956233  32.9177524  94.9809649  36.1829471
  32.9443665  96.4931565  36.2496202  38.4249008  93.9105910  41.6123280
  37.7672682  94.6005171  41.7003408  39.2289407  94.3002342  41.9557266
  28.1774890  86.3776555  38.8562845  28.7518642  86.1551737  38.1236038
  28.7645872  86.4465250  39.6091446  37.2354467  92.2650282  39.6627222
  37.7486349  92.8980274  40.1648931  37.8855691  91.6651478  39.2970582
  28.5044477  88.4081016  32.8758730  27.6681789  88.7455703  33.1968005
  28.3649246  88.2729996  31.9385867  30.4797557  83.2517804  37.5837914
  29.8261970  82.9366821  36.9594529  30.4378031  82.6293545  38.3097737
  31.5908762  93.5337099  29.4991207  30.6835824  93.3026353  29.6982355
  32.0879794  92.7374719  29.6865188  34.4976841 102.2434607  32.4187893
  33.8238540 102.5466303  33.0272851  34.8842663 103.0463687  32.0693350
  33.7135298  89.7399738  41.9085562  32.7957859  89.9614685  41.7507250
  34.1295441  89.8146048  41.0497269  34.4970345  91.1391153  37.0388242
  35.2442164  91.6512551  36.7295364  34.7661935  90.8175206  37.8992636
  32.7696996  93.6349694  34.0215197  31.8608215  93.3508727  34.1187666
  32.7992079  94.0548773  33.1618503  38.0016263  97.2456284  37.7906364
  37.5478590  96.4047194  37.8471555  37.3710230  97.8817682  38.1281144
  36.9449183  88.1748270  39.0207032  36.2071939  87.6625656  39.3517274
  37.1975956  87.7348651  38.2090309  36.4449202  99.0832780  38.7256182
  36.7372177  99.6437838  38.0068548  36.9547823  99.3761341  39.4809341
  37.0460810  80.9524522  39.6148801  37.3519687  80.0921885  39.3274716
  37.7713415  81.5442142  39.4147795  23.3385166  91.3555208  38.0030399
  23.1409566  90.7624569  37.2781465  22.7831830  91.0507419  38.7206338
  31.3181890  91.2478315  40.1224992  31.3730499  90.2952151  40.0467469
  30.5073092  91.4037754  40.6066290  32.4673083  95.1758438  31.3603275
  32.0292513  94.4594297  30.9008913  33.2083524  95.4034553  30.7988367
  29.2574250  89.8655375  37.8815371  28.4442115  90.1649545  38.2880563
  29.7533244  89.4711063  38.5989853  31.4082827  99.8613131  39.8149636
  31.3659006 100.0873978  38.8858168  32.3245526  99.6276506  39.9635437
  34.8548461  90.3297199  46.7130265  35.2097849  90.5568672  47.5724730
  35.5020592  90.6615576  46.0907520  40.5846198  93.4515635  37.4179594
  40.4464097  93.6417231  36.4900783  40.2282417  94.2135018  37.8747645
  28.7488324  87.4373730  43.4976606  29.3887704  87.2962489  42.7999569
  27.9165855  87.1508243  43.1215208  40.6115578  95.5192162  42.4290865
  41.0452084  95.4267451  43.2773919  41.3247159  95.4949662  41.7910881
  29.5248628  96.7376160  39.6111598  30.3189227  96.2426481  39.4094173
  28.8140321  96.2094024  39.2479304  34.3443473  99.1194256  43.9623966
  34.3980495  99.6885192  44.7301682  33.4758254  99.2896141  43.5978003
  25.8331392  90.8819242  35.6871351  24.9028980  90.8203698  35.9041313
  25.9288864  90.3595195  34.8907992  25.7516941  87.4074055  38.2749593
  26.0123758  88.3219388  38.1658753  26.5734113  86.9398498  38.4246205
  27.2241866  88.8211812  45.4448417  27.8964920  88.6129174  44.7961066
  26.3971653  88.6233898  45.0053649  41.4731127  95.5615863  44.9623751
  41.6667017  96.4661673  45.2083026  41.3731746  95.1023282  45.7962336
  33.1267438  85.4473753  47.4614078  32.4795353  86.1463703  47.3678554
  33.8968454  85.8809897  47.8290326  36.5346236  95.7122605  50.5364631
  36.3831742  95.4833157  49.6194715  36.5250916  96.6693207  50.5495976
  33.3031572  93.2854518  45.5210898  34.2323632  93.4365678  45.3479865
  32.8822602  93.3738539  44.6659544  32.1019904  97.3105182  43.2909435
  31.9630990  96.9423967  44.1635373  31.3134500  97.8252822  43.1193393
  32.6968056 102.4114279  34.6334972  32.8719812 101.9402322  35.4480595
  32.0100844 103.0380045  34.8616233  33.6525119  96.6886785  40.6798273
  33.3174952  96.6487555  41.5755923  33.1529065  96.0231501  40.2068683
  27.6269363  92.0954415  46.2050854  27.4889161  91.3634654  46.8062393
  28.5374287  92.0063315  45.9235042  36.5884311  94.0342820  30.9535333
  35.9713482  93.3089648  30.8568385  36.1200799  94.7952180  30.6102407
  30.2551664  91.8074375  45.6934534  30.9651283  91.1667567  45.6521152
  30.2120972  92.0587269  46.6160715  38.2438443  98.7441728  48.6141113
  38.1850989  98.0600948  47.9471696  38.6457961  99.4860718  48.1621739
  28.9680598  88.7939592  47.5130173  28.4317955  88.3430331  48.1651770
  28.3797306  88.9285501  46.7700638  28.3782857  88.2528244  30.0756637
  27.5012323  88.1317045  29.7118884  28.8540610  87.4614322  29.8235526
  38.2455850  96.7081312  46.8455093  37.3582629  96.3707234  46.9681492
  38.8154401  95.9764343  47.0823858  19.8984997  93.0405404  40.1698144
  20.5856037  92.7267134  39.5819160  19.7433126  93.9446768  39.8965396
  24.7019719  87.9295600  44.5983168  24.6177908  87.3221270  43.8633578
  23.8802426  88.4204618  44.5992664  31.7757003 101.3682764  43.8116336
  31.7027175 102.1737736  44.3235641  31.3334396 101.5674730  42.9864357
  31.5646783 100.6054534  37.3219158  30.7814305 101.1476214  37.4157382
  32.2639528 101.1228514  37.7213399  34.8743433  86.4149164  39.9653363
  35.3712133  85.6619126  39.6454433  34.1030415  86.4513480  39.3996572
  42.7273190  92.1189529  41.6071654  42.7163067  93.0014245  41.2365588
  41.8590570  91.7661080  41.4126192  34.2355687 101.2669598  45.9674495
  34.9483659 101.9017063  45.8950396  33.7445716 101.3633464  45.1514497
  35.9573214  95.1720851  37.5391786  35.0229493  95.2922313  37.3696491
  36.1349882  94.2693318  37.2751796  31.4578402  88.5566547  39.6925048
  31.0876189  88.0037587  40.3805953  31.9537494  87.9524680  39.1400048
  39.3445765  91.0138170  38.0741820  39.8106217  91.8466162  38.0002123
  39.7953266  90.5483152  38.7787079  29.2867600  99.0164042  46.7880066
  29.9877060  99.6500525  46.9409460  28.8162715  99.3578773  46.0275705
  37.4121996  97.3581991  35.0727973  37.6881840  97.2438586  35.9821847
  36.5426495  96.9599476  35.0340146  37.3162428  83.3818757  42.1132722
  36.4025508  83.6122984  42.2814929  37.7455529  83.4657201  42.9646754
  37.0868886  91.5708649  44.6132616  36.4340337  91.8184557  43.9585069
  37.4649266  90.7572787  44.2795093  34.0476060 101.6068342  38.7160786
  34.2298455 100.7889998  39.1788538  34.8709046 101.8236035  38.2785676
  34.3818226 100.5336527  35.9775835  34.9105992 100.0228982  35.3645997
  34.6446445 100.2179058  36.8421368  33.1356459  92.3128460  51.0998653
  32.4597096  92.2122589  51.7701028  33.9584093  92.1567674  51.5634650
  24.8835318  98.5500397  43.7211168  25.4688755  97.8044085  43.8539072
  24.6860157  98.8604353  44.6047832  19.4752973  91.1205997  42.4415611
  19.5137073  90.5869588  43.2352729  18.9693266  90.5941202  41.8226589
  26.8543735  85.9670537  45.9378154  26.9185062  86.8285368  45.5255551
  26.7910856  85.3544539  45.2050512  26.3296008  88.0393670  49.5851188
  26.9568047  87.6570747  50.1988712  25.4723927  87.8207872  49.9506880
  36.7290117  98.4456645  51.1904923  37.2730021  99.0586603  50.6959878
  36.1476961  99.0036224  51.7071936  23.1061551  89.8470099  35.5169543
  23.4014992  88.9380777  35.4636596  22.2049587  89.8257839  35.1950545
  35.0147630 101.5677363  42.3219951  34.8898769 100.7667103  41.8130897
  35.6726721 102.0623557  41.8333921  26.6355798  87.9226096  41.4997091
  25.9142384  88.5362063  41.3604565  27.4249054  88.4583860  41.4213737
  37.0782538  99.3686383  43.9499501  36.1312873  99.2491734  43.8777828
  37.4265311  98.4808881  44.0325763  29.4382111  85.2580522  47.7737743
  29.9616513  85.5042819  48.5364052  29.2194445  86.0900557  47.3540880
  24.8349392  87.5284197  35.6408868  24.5062099  86.6481576  35.4583974
  25.1888763  87.4731865  36.5285257  34.0828971  99.1639099  40.1503853
  33.9353934  98.2355807  40.3311423  34.9082465  99.1859190  39.6660929
  27.9491216  87.8157167  36.0084346  28.2887288  88.3443088  35.2862954
  28.3963336  88.1537573  36.7842912  37.6863093  99.9867658  41.2368726
  38.6109641  99.7810520  41.0993177  37.5178396  99.7384059  42.1458068
  30.6434656  86.1994217  45.4587414  30.3031477  85.4002030  45.8608093
  29.9373663  86.4995928  44.8864247  31.2951128  83.2843530  43.9114737
  32.1177197  82.8104008  43.7893627  31.5389192  84.0634013  44.4113423
  29.9359363  86.3131788  34.2077638  30.6567725  86.6913041  33.7041355
  29.3124667  87.0320665  34.3112616  34.0790486  87.0176937  35.1435971
  34.2954100  87.9001575  34.8424799  33.5984553  86.6263150  34.4141613
  28.8189707  89.9762650  41.7206715  28.6734288  90.2902953  42.6130997
  28.3414911  90.5947551  41.1677614  30.6786090  86.9665198  41.7687605
  30.6647659  86.0706292  41.4319903  31.3958518  86.9735862  42.4025891
  32.5312221  87.4002539  43.8140732  32.2729998  88.3219609  43.8125063
  31.9997261  87.0032973  44.5041196  37.4758409 100.5053326  36.5930818
  37.6495287  99.9399748  35.8404670  37.9687301 101.3054221  36.4110308
  23.2935369  92.5167995  44.6594376  22.7488837  93.2927803  44.7914651
  24.1714719  92.8638799  44.5013498  30.0822986  85.8479579  37.0375175
  30.2038897  84.9196225  37.2366062  29.7925028  85.8618265  36.1253490
  32.9514176  83.5334489  40.1741895  32.9735873  83.5973822  39.2193874
  33.3682235  82.6938998  40.3682401  43.3297800  93.2689749  38.2121117
  43.7728946  92.5197074  37.8140241  42.4524311  93.2599885  37.8294849
  38.4633582  99.8220090  33.6927716  39.1584486 100.4426783  33.9115031
  38.8056732  98.9715441  33.9680094  24.0801391  91.6437891  47.5524533
  23.3383127  91.7920526  48.1389164  23.7594135  91.9046157  46.6891283
  40.3625005  97.2719796  35.2215047  40.8876329  97.6107068  34.4964367
  40.2747357  96.3366811  35.0378181  32.0245054 101.1853869  47.3504923
  32.3332180 100.9403016  48.2227623  32.8220536 101.3900508  46.8623794
  32.0465666 103.3391779  39.5810300  31.6070656 102.8468158  40.2743157
  32.7973783 102.7964747  39.3402375  24.5258005  99.5303320  39.5834928
  25.3516025  99.2307092  39.2033571  24.1752057  98.7610942  40.0324717
  29.4939538  98.8829788  41.6532602  28.8719547  98.2200493  41.3534829
  30.1644405  98.9090920  40.9706249  22.7266610  97.4489646  40.5423862
  21.8898518  97.0211821  40.3607863  22.6990255  97.6422090  41.4794653
  29.5664065  87.3611576  51.2465108  29.6152221  88.2373699  50.8642877
  30.1086579  86.8188969  50.6736751  40.0518911  97.9052699  50.5266245
  39.2614455  97.8876838  49.9870744  39.8152266  98.4440993  51.2815281
  40.1716786  94.7545166  47.8398973  40.2214791  94.5895173  48.7814496
  40.0630709  93.8872425  47.4496854  29.0553045  97.4333711  35.1291062
  29.2041165  98.1169176  34.4757735  29.8619488  97.4138801  35.6440518
  37.4620548  90.7376094  49.1558280  38.3630411  90.5982558  48.8642278
  37.5368523  90.9030548  50.0956457  31.7963354  88.1142948  48.0011466
  30.9266663  88.4076514  47.7294055  32.0322834  88.6983393  48.7218730
  41.6734983  97.1742107  48.0840995  41.3819791  97.5372088  48.9204456
  41.0607114  96.4609115  47.9054327  42.8730665  94.7394987  40.6043565
  43.7077557  95.1784791  40.7681125  43.0089794  94.2633640  39.7851811
  39.9222171  92.2974722  46.5521053  40.3976293  92.4902368  45.7439904
  38.9987736  92.3533908  46.3064436  26.8105678  93.4598889  36.1352131
  26.5651720  92.5561219  36.3332341  26.9801592  93.4616039  35.1931609
  34.5002388  84.3322565  45.5176887  35.0184331  85.0683592  45.1923375
  34.1457520  84.6386559  46.3523646  26.0801325  89.1927246  33.6338292
  25.3870570  89.2671601  32.9778328  25.8353077  88.4287590  34.1559809
  34.7514982  80.7522848  41.0377783  35.0316736  80.0846037  41.6638210
  35.5365589  80.9451943  40.5252447  32.5548450  99.9281842  32.6002809
  31.9822417 100.5472029  32.1473281  33.1281244 100.4781203  33.1342731
  38.6223840  89.1740482  44.7849358  39.5741263  89.2738579  44.8061582
  38.4527291  88.3818750  45.2947443  36.6438220  86.2596065  44.9708759
  36.0488152  86.5401078  44.2755248  36.3587916  86.7489966  45.7425500
  35.7745710 100.2118992  33.7311392  36.7076383 100.1464554  33.9344267
  35.6868923 101.0475259  33.2725924  38.4033727  99.5284862  30.6915339
  38.3247358  99.1944726  31.5851097  39.2243393 100.0206630  30.6906812
  41.1011918  92.3946602  43.8991658  41.0688238  91.4562602  44.0851342
  41.7112542  92.4730638  43.1657483  32.9395249  91.2642654  29.9418862
  33.8854353  91.1348863  30.0107280  32.5609494  90.5257316  30.4188290
  41.2506406  89.1857645  43.9449941  40.7345455  88.4016102  43.7579870
  42.1346355  88.8576362  44.1096461  38.9117133  82.9298661  39.9045754
  38.7141954  82.6213749  40.7889086  39.5216839  83.6560299  40.0343684
  46.9188468  93.4562608  43.0397695  47.6491856  93.1947896  43.6005398
  46.3095413  92.7191330  43.0799763  45.0003765  91.5970471  43.6372146
  44.2736928  91.4626436  43.0288638  44.5851052  91.9047300  44.4428864
  32.8233941  95.3160401  51.4019519  33.7436951  95.4939000  51.5959565
  32.7883524  94.3716446  51.2499218  31.1238166  89.1892631  29.8773747
  30.2169621  88.8925744  29.9536461  31.4014147  88.8922449  29.0108033
  22.0416106  90.5098994  40.3272794  21.7218891  89.6564302  40.0347168
  21.4949534  90.7247572  41.0830761  25.8196014  93.2261435  44.0442300
  26.0382024  94.1578543  44.0630334  26.2321788  92.8669410  44.8297104
  32.7400232  83.7329521  36.0317989  31.9300960  83.3876606  36.4073235
  33.4284649  83.4237064  36.6205600  34.6690780  82.8107567  37.6542285
  35.2221819  83.2303021  38.3132308  34.9060866  81.8843315  37.6965241
  30.6923879  88.7994641  53.4345049  30.5920606  89.7488998  53.3657140
  30.4745421  88.4712880  52.5621119  29.8936951  86.0479566  30.0185726
  30.7556115  86.3734464  30.2781544  30.0787295  85.2611062  29.5058792
  21.9104366  94.1301906  42.2965915  21.2167838  93.7155859  41.7835870
  22.6577357  94.1722442  41.6999334  38.0469587  84.9208093  37.1620949
  37.4668256  85.5792897  36.7799002  37.7805520  84.0985437  36.7508367
  36.4973153  84.3213150  39.3642270  36.9972932  84.4329685  38.5556589
  37.1408761  84.0174203  40.0043078  30.5555149  92.2291780  52.2510111
  30.0722231  93.0292140  52.4574000  30.6416088  92.2399725  51.2977555
  23.8241109  94.0620160  40.1731930  23.8011797  94.1607847  39.2213813
  24.1341745  94.9085310  40.4949096  26.4828487  96.1196315  44.2878544
  27.4371740  96.0880257  44.2208476  26.2841010  95.6586938  45.1028770
  27.0727869  94.6897431  46.8549342  27.8920758  95.1841509  46.8784179
  27.3464677  93.7729399  46.8266910  36.8294465  87.0808183  36.2177298
  35.9420320  87.3657834  35.9997492  37.2448454  86.9201946  35.3704575
  40.1809001  87.1054704  39.9331637  40.9569391  87.5951156  40.2056254
  39.4557135  87.5312758  40.3903506  42.6181560  87.8182323  40.9905578
  43.2126051  87.5778059  40.2798886  42.6908143  87.0989454  41.6179114
  35.9737678  96.8452858  30.3125318  36.6773529  97.0502860  30.9282973
  35.2500327  97.4129619  30.5774401  36.8035489  92.5962719  36.4327588
  36.7470690  93.0531270  35.5935220  37.3563831  91.8353403  36.2550431
  40.6140295  88.3852451  37.2577707  40.3577229  87.9849086  38.0885915
  39.9893163  89.0996245  37.1327846  44.9252633  91.1248524  39.7648999
  44.3652190  91.1941713  40.5380561  44.3196136  90.9489509  39.0448495
  37.8824376  97.2835387  32.3623778  38.7169980  96.8516585  32.1801252
  37.7208719  97.1117400  33.2900672  37.5370268  93.7867500  33.7280117
  37.4819072  93.6211772  32.7868561  36.9116323  94.4943533  33.8842307
  22.3262783  89.0235564  47.5541539  22.9721647  88.5134518  48.0428764
  22.1179934  89.7604246  48.1284964  34.8516175  96.0916412  53.0533680
  35.7207335  96.2657064  52.6920315  34.3722927  96.9110829  52.9309409
  30.8466394  83.2875609  33.3065435  30.8345063  84.2317449  33.4633706
  31.7389815  83.1045755  33.0124897  30.7755957 101.9644500  41.3933192
  29.8251588 101.9646361  41.2797564  31.0788444 101.2177234  40.8769227
  34.6618513  79.8818386  37.5611372  33.8950909  79.3276872  37.7068055
  35.0729218  79.9540255  38.4225524  26.6660274  86.1703182  51.6516553
  27.5291736  85.8139986  51.8619878  26.0925685  85.8317076  52.3391958
  41.0206637 106.5220713  31.7257419  41.2732157 106.0002235  30.9640882
  40.0831196 106.3586859  31.8284103  46.0649919 105.5256492  39.5332162
  46.8513009 105.1075915  39.1822580  46.3288624 106.4302584  39.7013811
  51.4658347 105.4631725  40.4365141  52.1983519 104.8930942  40.6702970
  50.7097702 105.0753325  40.8771647  48.9883767  99.1753299  44.8959750
  48.6567092 100.0448710  44.6720965  48.3929380  98.8589583  45.5753780
  42.7239953 102.9148866  32.6289832  42.8914356 103.7829103  32.9960303
  42.5337122 103.0776148  31.7051121  48.8812430 103.8948385  41.9753100
  47.9729308 103.8263794  41.6811861  48.8300026 104.3720330  42.8034925
  42.7029174 105.3706524  33.6136499  42.5828799 105.8163574  34.4521979
  42.0081763 105.7191841  33.0550037  42.9553296 105.3138031  49.9187997
  42.1786630 105.8731951  49.9090862  43.5943859 105.7994814  50.4402867
  50.7474077 102.0964824  43.7530974  50.1048457 102.3897357  43.1070768
  50.2429005 101.9817744  44.5584170  48.4014240 105.8427997  34.4416833
  49.3132096 106.0755384  34.2664530  47.8923887 106.4265041  33.8791911
  43.0386078 105.2025231  45.4511682  43.8847273 105.6264645  45.5946331
  42.9784716 104.5458856  46.1450245  46.1885523 102.8629600  47.1092856
  45.9446455 103.6171660  46.5727132  46.4645454 103.2414947  47.9440103
  45.7450215 102.0186033  42.6906694  44.8834694 102.3167286  42.9823431
  45.7712650 102.2356432  41.7587726  41.4980671 106.6851376  35.9070065
  42.2004714 107.1372419  36.3743991  41.1661299 106.0435195  36.5349958
  39.9461032 105.2763132  50.2821274  39.3159693 105.9579413  50.5156671
  39.8397120 105.1646214  49.3374412  57.3475807 108.6278916  40.3077450
  56.5939516 108.0586314  40.1521455  57.4823348 108.5941581  41.2548085
  39.2241775  99.5783898  52.6446525  38.8308720  99.0250097  53.3194169
  40.0407915  99.8894477  53.0353043  42.1409736 100.9941777  50.2366782
  42.8819449 101.5948930  50.1571244  42.3727659 100.2519415  49.6784824
  46.0866899  97.0222880  44.5131063  45.7431168  97.9124522  44.4370174
  46.4545861  96.8324538  43.6500648  46.0517181 107.0131491  33.0203498
  45.5363805 107.7836096  33.2591886  45.7794490 106.3396628  33.6436560
  43.6364293 101.8581192  38.0788737  42.7805889 101.4688043  37.8994375
  44.0491244 101.9373153  37.2188522  45.1663439  99.3927535  42.4780296
  44.6628235  99.3557671  41.6648102  45.4594046 100.3020278  42.5376953
  41.4106325  99.4766265  41.4846478  42.2759322  99.2809074  41.1252368
  41.4783834  99.2476617  42.4115835  51.0251456 109.7663846  34.9556672
  50.2480898 109.4275005  34.5111834  51.7042937 109.7716469  34.2811637
  45.8403485 104.8858583  34.8463280  45.5353620 105.2004733  35.6973423
  46.7933927 104.9640003  34.8890613  39.0168644 101.7068473  38.8562845
  39.5912396 101.4843655  38.1236038  39.6039627 101.7757168  39.6091446
  48.0748221 107.5942200  39.6627222  48.5880103 108.2272192  40.1648931
  48.7249445 106.9943395  39.2970582  39.3438231 103.7372934  32.8758730
  38.5075543 104.0747621  33.1968005  39.2043001 103.6021914  31.9385867
  41.3191312  98.5809722  37.5837914  40.6655724  98.2658739  36.9594529
  41.2771786  97.9585462  38.3097737  44.5529052 105.0691655  41.9085562
  43.6351614 105.2906602  41.7507250  44.9689196 105.1437966  41.0497269
  45.3364100 106.4683071  37.0388242  46.0835919 106.9804468  36.7295364
  45.6055689 106.1467124  37.8992636  47.7842937 103.5040187  39.0207032
  47.0465694 102.9917574  39.3517274  48.0369711 103.0640569  38.2090309
  47.8854564  96.2816439  39.6148801  48.1913441  95.4213803  39.3274716
  48.6107169  96.8734060  39.4147795  42.1575644 106.5770232  40.1224992
  42.2124254 105.6244069  40.0467469  41.3466846 106.7329672  40.6066290
  40.0968004 105.1947292  37.8815371  39.2835870 105.4941463  38.2880563
  40.5926998 104.8002981  38.5989853  45.6942216 105.6589117  46.7130265
  46.0491603 105.8860590  47.5724730  46.3414347 105.9907493  46.0907520
  51.4239953 108.7807553  37.4179594  51.2857851 108.9709149  36.4900783
  51.0676172 109.5426935  37.8747645  39.5882079 102.7665648  43.4976606
  40.2281458 102.6254407  42.7999569  38.7559609 102.4800161  43.1215208
  36.5910695 102.7365973  38.2749593  36.8517513 103.6511306  38.1658753
  37.4127868 102.2690415  38.4246205  38.0635621 104.1503730  45.4448417
  38.7358674 103.9421092  44.7961066  37.2365407 103.9525816  45.0053649
  43.9661193 100.7765671  47.4614078  43.3189108 101.4755620  47.3678554
  44.7362208 101.2101815  47.8290326  39.8074352 104.1231510  47.5130173
  39.2711709 103.6722249  48.1651770  39.2191061 104.2577419  46.7700638
  39.2176611 103.5820162  30.0756637  38.3406078 103.4608962  29.7118884
  39.6934364 102.7906240  29.8235526  35.5413474 103.2587518  44.5983168
  35.4571662 102.6513187  43.8633578  34.7196180 103.7496536  44.5992664
  45.7137188 101.7441081  39.9653363  46.2105887 100.9911044  39.6454433
  44.9424169 101.7805398  39.3996572  53.5666945 107.4481447  41.6071654
  53.5556821 108.3306162  41.2365588  52.6984324 107.0952998  41.4126192
  42.2972156 103.8858464  39.6925048  41.9269944 103.3329505  40.3805953
  42.7931249 103.2816598  39.1400048  50.1839520 106.3430088  38.0741820
  50.6499972 107.1758079  38.0002123  50.6347020 105.8775069  38.7787079
  48.1556182  98.7110675  42.1132722  47.2419262  98.9414902  42.2814929
  48.5849284  98.7949119  42.9646754  47.9262641 106.9000567  44.6132616
  47.2734091 107.1476474  43.9585069  48.3043021 106.0864705  44.2795093
  43.9750214 107.6420378  51.0998653  43.2990851 107.5414507  51.7701028
  44.7977848 107.4859592  51.5634650  37.6937490 101.2962455  45.9378154
  37.7578816 102.1577286  45.5255551  37.6304610 100.6836457  45.2050512
  37.1689763 103.3685588  49.5851188  37.7961801 102.9862665  50.1988712
  36.3117681 103.1499790  49.9506880  37.4749552 103.2518013  41.4997091
  36.7536138 103.8653981  41.3604565  38.2642808 103.7875778  41.4213737
  40.2775866 100.5872440  47.7737743  40.8010268 100.8334736  48.5364052
  40.0588199 101.4192475  47.3540880  35.6743147 102.8576114  35.6408868
  35.3455853 101.9773493  35.4583974  36.0282518 102.8023783  36.5285257
  38.7884970 103.1449084  36.0084346  39.1281043 103.6735005  35.2862954
  39.2357090 103.4829490  36.7842912  41.4828411 101.5286135  45.4587414
  41.1425231 100.7293948  45.8608093  40.7767417 101.8287846  44.8864247
  42.1344883  98.6135447  43.9114737  42.9570952  98.1395926  43.7893627
  42.3782946  99.3925931  44.4113423  40.7753117 101.6423706  34.2077638
  41.4961480 102.0204959  33.7041355  40.1518421 102.3612583  34.3112616
  44.9184240 102.3468855  35.1435971  45.1347854 103.2293493  34.8424799
  44.4378307 101.9555068  34.4141613  39.6583461 105.3054568  41.7206715
  39.5128042 105.6194871  42.6130997  39.1808665 105.9239468  41.1677614
  41.5179844 102.2957116  41.7687605  41.5041413 101.3998209  41.4319903
  42.2352272 102.3027780  42.4025891  43.3705975 102.7294456  43.8140732
  43.1123753 103.6511527  43.8125063  42.8391015 102.3324891  44.5041196
  40.9216740 101.1771496  37.0375175  41.0432651 100.2488142  37.2366062
  40.6318783 101.1910182  36.1253490  43.7907931  98.8626407  40.1741895
  43.8129627  98.9265740  39.2193874  44.2075990  98.0230915  40.3682401
  54.1691555 108.5981666  38.2121117  54.6122701 107.8488991  37.8140241
  53.2918065 108.5891803  37.8294849  40.4057820 102.6903494  51.2465108
  40.4545975 103.5665616  50.8642877  40.9480334 102.1480887  50.6736751
  51.0110541 110.0837083  47.8398973  51.0608545 109.9187091  48.7814496
  50.9024464 109.2164342  47.4496854  48.3014303 106.0668011  49.1558280
  49.2024166 105.9274476  48.8642278  48.3762277 106.2322466  50.0956457
  42.6357108 103.4434866  48.0011466  41.7660418 103.7368432  47.7294055
  42.8716589 104.0275311  48.7218730  53.7124420 110.0686905  40.6043565
  54.5471311 110.5076709  40.7681125  53.8483548 109.5925558  39.7851811
  50.7615926 107.6266639  46.5521053  51.2370047 107.8194286  45.7439904
  49.8381491 107.6825825  46.3064436  45.3396142  99.6614483  45.5176887
  45.8578086 100.3975510  45.1923375  44.9851275  99.9678476  46.3523646
  36.9195080 104.5219164  33.6338292  36.2264325 104.5963519  32.9778328
  36.6746832 103.7579508  34.1559809  45.5908736  96.0814765  41.0377783
  45.8710490  95.4137955  41.6638210  46.3759343  96.2743861  40.5252447
  49.4617595 104.5032399  44.7849358  50.4135017 104.6030497  44.8061582
  49.2921045 103.7110668  45.2947443  47.4831974 101.5887983  44.9708759
  46.8881906 101.8692995  44.2755248  47.1981671 102.0781884  45.7425500
  51.9405672 107.7238519  43.8991658  51.9081992 106.7854520  44.0851342
  52.5506296 107.8022556  43.1657483  43.7789003 106.5934572  29.9418862
  44.7248108 106.4640780  30.0107280  43.4003248 105.8549234  30.4188290
  52.0900161 104.5149563  43.9449941  51.5739209 103.7308019  43.7579870
  52.9740109 104.1868279  44.1096461  49.7510888  98.2590578  39.9045754
  49.5535709  97.9505666  40.7889086  50.3610593  98.9852217  40.0343684
  57.7582222 108.7854526  43.0397695  58.4885611 108.5239814  43.6005398
  57.1489168 108.0483248  43.0799763  55.8397519 106.9262389  43.6372146
  55.1130683 106.7918354  43.0288638  55.4244806 107.2339217  44.4428864
  41.9631920 104.5184549  29.8773747  41.0563376 104.2217661  29.9536461
  42.2407901 104.2214367  29.0108033  43.5793986  99.0621438  36.0317989
  42.7694714  98.7168523  36.4073235  44.2678403  98.7528982  36.6205600
  45.5084534  98.1399485  37.6542285  46.0615573  98.5594938  38.3132308
  45.7454621  97.2135233  37.6965241  41.5317634 104.1286559  53.4345049
  41.4314361 105.0780916  53.3657140  41.3139176 103.8004798  52.5621119
  40.7330705 101.3771484  30.0185726  41.5949869 101.7026382  30.2781544
  40.9181049 100.5902980  29.5058792  48.8863341 100.2500010  37.1620949
  48.3062011 100.9084814  36.7799002  48.6199274  99.4277355  36.7508367
  47.3366908  99.6505068  39.3642270  47.8366686  99.7621602  38.5556589
  47.9802516  99.3466121  40.0043078  47.6688219 102.4100101  36.2177298
  46.7814075 102.6949751  35.9997492  48.0842209 102.2493864  35.3704575
  51.0202756 102.4346622  39.9331637  51.7963146 102.9243074  40.2056254
  50.2950890 102.8604676  40.3903506  53.4575314 103.1474241  40.9905578
  54.0519805 102.9069977  40.2798886  53.5301898 102.4281371  41.6179114
  47.6429243 107.9254637  36.4327588  47.5864445 108.3823188  35.5935220
  48.1957586 107.1645321  36.2550431  51.4534049 103.7144368  37.2577707
  51.1970983 103.3141004  38.0885915  50.8286917 104.4288162  37.1327846
  55.7646387 106.4540442  39.7648999  55.2045945 106.5233631  40.5380561
  55.1589890 106.2781426  39.0448495  41.6860148  98.6167527  33.3065435
  41.6738818  99.5609367  33.4633706  42.5783570  98.4337672  33.0124897
  45.5012267  95.2110303  37.5611372  44.7344663  94.6568790  37.7068055
  45.9122972  95.2832172  38.4225524  37.5054029 101.4995099  51.6516553
  38.3685490 101.1431904  51.8619878  36.9319439 101.1608994  52.3391958
  58.7248319 111.6108357  39.6148801  59.0307196 110.7505721  39.3274716
  59.4500924 112.2025977  39.4147795  56.4302491 111.4106683  41.0377783
  56.7104244 110.7429872  41.6638210  57.2153098 111.6035779  40.5252447
  56.3406022 110.5402221  37.5611372  55.5738418 109.9860708  37.7068055
  56.7516727 110.6124090  38.4225524   3.1533634  23.4899490  29.1824261
   3.7912044  23.3706237  28.4787601   3.0354477  24.4380334  29.2412213
   8.1083330  21.1526177  27.1610448   8.8408502  20.5825394  27.3948277
   7.3522686  20.7647777  27.6016953   5.6308750  14.8647751  31.6205056
   5.2992075  15.7343162  31.3966271   5.0354364  14.5484035  32.2999087
   2.1240270  27.0660297  31.0200969   1.8240993  27.9685336  30.9116776
   1.7791329  26.7992480  31.8722122   7.3899060  17.7859276  30.4776280
   6.7473440  18.0791809  29.8316075   6.8853988  17.6712196  31.2829477
   3.3279991  25.9547077  34.8023432   3.7363347  25.5129487  34.0578064
   2.6057253  25.3799704  35.0557625   3.6508806  26.5148267  28.5575721
   3.0217668  26.6793981  27.8551789   3.2634468  26.9289877  29.3286685
   7.5298038  27.4502705  25.9120085   6.8449076  27.8301606  25.3617118
   7.6141887  28.0598032  26.6452032   2.8310507  18.5524052  33.8338163
   2.5871439  19.3066112  33.2972438   3.1070437  18.9309399  34.6685410
   4.7848969  25.0962664  32.5115428   4.9965865  25.7394424  31.8349809
   4.7378718  24.2624981  32.0437358   5.8994797  27.9734619  30.6837786
   6.7212241  27.5714807  30.4020467   5.8957200  27.8702854  31.6353901
  13.9900790  24.3173368  27.0322757  13.2364499  23.7480766  26.8766761
  14.1248332  24.2836032  27.9793392   1.0067895  29.8110337  36.8377818
   0.5631749  29.0246715  36.5198723   1.6685108  29.9989487  36.1721709
   3.1049133  30.0913137  34.8659220   3.0867608  30.9122018  34.3739489
   4.0269053  29.9667212  35.0909361   5.9067746  24.9292279  28.3368586
   5.2491420  25.6191541  28.4248715   6.7108145  25.3188711  28.6802573
   5.4835001  28.2642653  24.5151671   5.0297328  27.4233563  24.5716861
   4.8528968  28.9004052  24.8526451   3.9267940  30.1019150  25.4501489
   4.2190914  30.6624207  24.7313855   4.4366561  30.3947711  26.2054648
   2.3367199  21.3483569  33.4375571   2.6916587  21.5755042  34.2970037
   2.9839330  21.6801945  32.8152827   8.0934316  26.5378531  29.1536172
   8.5270822  26.4453821  30.0019226   8.8065896  26.5136032  28.5156188
   1.8262210  30.1380626  30.6869273   1.8799233  30.7071562  31.4546988
   0.9576992  30.3082511  30.3223310   8.9549865  26.5802232  31.6869057
   9.1485755  27.4848043  31.9328332   8.8550483  26.1209651  32.5207642
   4.0164974  26.7308975  37.2609938   3.8650480  26.5019527  36.3440022
   4.0069653  27.6879576  37.2741283   1.1343857  27.7073155  27.4043580
   0.7993690  27.6673925  28.3001230   0.6347803  27.0417871  26.9313990
   5.7257180  29.7628097  35.3386420   5.6669727  29.0787318  34.6717003
   6.1276699  30.5047087  34.8867046   5.7274588  27.7267681  33.5700399
   4.8401367  27.3893603  33.6926798   6.2973139  26.9950713  33.8069165
  10.2091928  23.1375899  28.3316961  10.1981805  24.0200614  27.9610894
   9.3409308  22.7847450  28.1371498   1.7174425  32.2855968  32.6919801
   2.4302397  32.9203433  32.6195703   1.2264453  32.3819834  31.8759803
   4.5687624  22.5895019  31.3377922   3.9159074  22.8370926  30.6830375
   4.9468004  21.7759157  31.0040400   1.5294798  32.6254712  25.4406093
   1.7117193  31.8076368  25.9033845   2.3527784  32.8422404  25.0030983
   4.2108854  29.4643015  37.9150230   4.7548758  30.0772973  37.4205185
   3.6295699  30.0222593  38.4317243   2.4966367  32.5863733  29.0465258
   2.3717507  31.7853473  28.5376203   3.1545458  33.0809926  28.5579228
   4.5601276  30.3872753  30.6744808   3.6131611  30.2678104  30.6023135
   4.9084049  29.4995251  30.7571069   1.5647709  30.1825469  26.8749160
   1.4172671  29.2542176  27.0556730   2.3901203  30.2045560  26.3906235
   5.1681831  31.0054028  27.9614033   6.0928378  30.7996889  27.8238484
   4.9997134  30.7570429  28.8703374   4.9577147  31.5239695  23.3176124
   5.1314025  30.9586118  22.5649977   5.4506038  32.3240590  23.1355614
  10.8116538  24.2876118  24.9366424  11.2547684  23.5383443  24.5385547
   9.9343049  24.2786254  24.5540156   7.5337649  28.9239069  37.2511551
   6.7433192  28.9063208  36.7116051   7.2971003  29.4627362  38.0060588
   7.6535524  25.7731535  34.5644280   7.7033529  25.6081543  35.5059803
   7.5449447  24.9058794  34.1742161   4.9439286  21.7562463  35.8803587
   5.8449149  21.6168928  35.5887584   5.0187261  21.9216918  36.8201764
   9.1553721  28.1928477  34.8086301   8.8638529  28.5558457  35.6449762
   8.5425852  27.4795485  34.6299633  10.3549403  25.7581356  27.3288872
  11.1896294  26.1971161  27.4926432  10.4908532  25.2820010  26.5097117
   7.4040909  23.3161091  33.2766359   7.8795030  23.5088738  32.4685211
   6.4806474  23.3720277  33.0309743   1.9821125  15.3508935  32.2422193
   2.5003069  16.0869962  31.9168682   1.6276258  15.6572928  33.0768952
   6.1042578  20.1926851  31.5094665   7.0560001  20.2924949  31.5306889
   5.9346028  19.4005120  32.0192749   4.1256957  17.2782435  31.6954066
   3.5306889  17.5587447  31.0000554   3.8406654  17.7676336  32.4670807
   8.5830656  23.4132971  30.6236965   8.5506976  22.4748972  30.8096648
   9.1931279  23.4917008  29.8902789   8.7325144  20.2044014  30.6695248
   8.2164193  19.4202471  30.4825177   9.6165093  19.8762731  30.8341767
  14.4007206  24.4748978  29.7643001  15.1310594  24.2134266  30.3250705
  13.7914151  23.7377700  29.8045069  12.4822503  22.6156840  30.3617453
  11.7555666  22.4812805  29.7533944  12.0669790  22.9233669  31.1674171
  10.1000298  18.8368693  27.7150884  10.6944788  18.5964429  27.0044192
  10.1726881  18.1175823  28.3424420  12.4071370  22.1434894  26.4894305
  11.8470928  22.2128083  27.2625867  11.8014874  21.9675878  25.7693802
   2.3334913  27.1102782  39.7778986   3.2026073  27.2843434  39.4165621
   1.8541664  27.9297198  39.6554716  13.9927389  38.8191407  29.1824261
  14.6305799  38.6998155  28.4787601  13.8748232  39.7672251  29.2412213
  10.8017095  38.7718836  29.1185786  10.4635607  38.6559900  28.2306321
  11.6706863  38.3710001  29.0986792   6.6603911  40.6254312  25.1082677
   6.0968776  40.5344249  24.3398964   6.5456306  39.8054216  25.5885169
  11.2836878  39.9253687  35.0771991  11.2725519  39.5306486  34.2052495
  11.4457518  39.1919760  35.6705763   4.2068343  42.1205504  27.9466897
   4.9989635  41.7796328  27.5313196   4.4464993  42.2300479  28.8669051
  12.2403469  44.2925280  20.4197142  11.5891449  44.8779360  20.0331155
  13.0347832  44.8231475  20.4792179   6.1659097  41.3814417  20.8184276
   6.9389973  40.8343404  20.6797152   6.5184495  42.2458666  21.0298737
   8.0044139  42.7090799  34.0251175   7.7134005  43.6136430  33.9097842
   8.6401124  42.7507327  34.7395245   8.9300346  40.0867648  30.6152535
   9.5263918  39.8623670  29.9009498   8.9875318  39.3452393  31.2177983
   8.5025374  37.5407083  18.4502726   8.7550895  37.0188604  17.6886189
   7.5649934  37.3773228  18.5529410  13.5468657  36.5442861  26.2577469
  14.3331746  36.1262284  25.9067886  13.8107362  37.4488954  26.4259118
  13.7178735  41.9815712  20.9566126  13.0824568  42.0550338  21.6687031
  13.3876141  42.5709310  20.2785205  18.9477084  36.4818095  27.1610448
  19.6802256  35.9117311  27.3948277  18.1916440  36.0939695  27.6016953
   8.2221663  39.4435189  20.6527101   8.1057921  38.7680092  21.3208185
   8.3323923  38.9567563  19.8359254  10.5653204  38.9045336  24.3573790
  10.2011411  38.3775957  25.0686712  11.4220320  38.5143805  24.1840276
  16.4702505  30.1939669  31.6205056  16.1385830  31.0635080  31.3966271
  15.8748118  29.8775953  32.2999087  10.2058691  33.9335236  19.3535139
  10.3733093  34.8015472  19.7205610  10.0155860  34.0962517  18.4296428
  12.9634024  42.3952215  31.0200969  12.6634747  43.2977253  30.9116776
  12.6185084  42.1284398  31.8722122   6.4146506  38.8466011  27.0537673
   5.4897002  38.7142226  27.2615365   6.6630919  39.6260231  27.5507616
  16.3631168  34.9134755  28.6998406  15.4548045  34.8450163  28.4057167
  16.3118764  35.3906700  29.5280232  10.1847912  36.3892893  20.3381805
  10.0647537  36.8349944  21.1767286   9.4900500  36.7378211  19.7795344
   3.7755317  38.4899285  27.8881462   3.9047698  38.7433764  28.8020874
   3.0952768  39.0826993  27.5686118   7.9454804  49.1596535  23.9871937
   7.8678834  50.1104360  24.0660417   7.3416448  48.8142407  24.6446863
  10.4372034  36.3324400  36.6433304   9.6605368  36.8918321  36.6336168
  11.0762597  36.8181183  37.1648174  18.2292814  33.1151193  30.4776280
  17.5867195  33.4083726  29.8316075  17.7247743  33.0004114  31.2829477
  15.8832978  36.8614366  21.1662139  16.7950834  37.0941753  20.9909837
  15.3742625  37.4451411  20.6037218   8.6918406  39.1409854  36.2051271
   9.4333090  39.6794898  35.9286094   7.9855392  39.7676143  36.3622822
  14.1673746  41.2838994  34.8023432  14.5757102  40.8421405  34.0578064
  13.4451007  40.7091622  35.0557625  10.5204816  36.2211601  32.1756989
  11.3666011  36.6451015  32.3191638  10.4603453  35.5645225  32.8695552
  14.4902560  41.8440185  28.5575721  13.8611423  42.0085899  27.8551789
  14.1028222  42.2581794  29.3286685  18.3691792  42.7794623  25.9120085
  17.6842830  43.1593524  25.3617118  18.4535642  43.3889949  26.6452032
  13.6704261  33.8815969  33.8338163  13.4265193  34.6358030  33.2972438
  13.9464192  34.2601317  34.6685410  15.6242724  40.4254582  32.5115428
  15.8359619  41.0686342  31.8349809  15.5772472  39.5916898  32.0437358
  13.2268953  33.0372402  29.4152000  12.3653432  33.3353656  29.7068738
  13.2531388  33.2542801  28.4833033  10.0430522  41.5814593  25.8225806
  10.5068868  41.8602296  25.0330429   9.7787320  40.6798038  25.6398897
   6.9354603  41.1286074  28.7605569   7.5055960  41.5573343  28.1223054
   7.5262715  40.8468659  29.4589755   8.9799408  37.7037745  22.6315371
   9.6823452  38.1558789  23.0989298   8.6480037  37.0621564  23.2595264
   7.4279770  36.2949502  37.0066581   6.7978430  36.9765783  37.2401977
   7.3215858  36.1832584  36.0619719   2.7224742  35.9621298  27.9332505
   1.9323796  36.2178826  27.4572615   3.2135990  36.7769636  28.0384545
  16.7388552  43.3026537  30.6837786  17.5605996  42.9006724  30.4020467
  16.7350955  43.1994771  31.6353901   4.6739488  36.3265877  24.8915981
   3.8770651  36.4384571  25.4099477   4.4465080  36.6652529  24.0256872
  10.5045155  42.8510580  32.8398496  10.5689588  43.3130988  33.6756668
   9.7956079  42.2207945  32.9680806   1.0062445  36.2151788  30.3647496
   1.2570484  37.0998798  30.6305071   1.5421994  36.0356390  29.5922587
  24.8294545  39.6465286  27.0322757  24.0758253  39.0772684  26.8766761
  24.9642086  39.6127950  27.9793392  10.2193173  44.5178688  22.7077476
  10.0838848  45.3630224  23.1362324  10.7602985  44.7197966  21.9443410
   6.7060513  30.5970268  39.3691832   6.3127458  30.0436466  40.0439476
   7.5226653  30.9080846  39.7598349   3.6722570  42.0354126  23.2805401
   4.1847091  42.8297376  23.4310966   4.3245283  41.3380416  23.2139003
   5.4817455  45.1519882  25.3628155   5.6584083  46.0737847  25.1749139
   6.2774289  44.8378301  25.7922534   9.6228474  32.0128147  36.9612088
  10.3638187  32.6135300  36.8816551   9.8546396  31.2705785  36.4030131
   4.7669812  37.1984514  35.2390318   4.6523327  36.2969771  35.5397417
   3.9114329  37.4448211  34.8875134  11.8461649  45.1402254  36.8377818
  11.4025504  44.3538633  36.5198723  12.5078863  45.3281405  36.1721709
   6.6048771  46.6698056  31.3638497   7.1556196  46.5415119  30.5915491
   5.7660246  46.9692945  31.0133390  13.9442887  45.4205054  34.8659220
  13.9261363  46.2413935  34.3739489  14.8662807  45.2959130  35.0909361
  10.4015942  42.9349184  35.7082728  10.9344278  42.1737472  35.4782036
   9.8730023  42.6422836  36.4506883  13.5685637  28.0409250  31.2376370
  13.2249906  28.9310891  31.1615480  13.9364599  27.8510907  30.3745955
   1.6371487  40.3642780  24.0564972   2.4746709  40.7739789  23.8398680
   1.8149755  39.4242222  24.0265166  13.5335919  38.0317861  19.7448805
  13.0182543  38.8022466  19.9837192  13.2613228  37.3582997  20.3681866
  11.1183030  32.8767562  24.8034043  10.2624627  32.4874412  24.6239682
  11.5309982  32.9559522  23.9433829  12.6482177  30.4113905  29.2025603
  12.1446973  30.3744040  28.3893408  12.9412784  31.3206648  29.2622260
   8.8925063  30.4952635  28.2091785   9.7578060  30.2995443  27.8497674
   8.9602572  30.2662986  29.1361142  18.5070193  40.7850216  21.6801978
  17.7299636  40.4461375  21.2357141  19.1861674  40.7902839  21.0056943
  13.3222222  35.9044953  21.5708586  13.0172358  36.2191102  22.4218729
  14.2752665  35.9826373  21.6135919  11.7668654  42.0635176  23.2201540
  11.2390016  41.3287936  22.9074778  11.2656157  42.8409853  22.9741508
  16.7461500  40.2584197  28.3368586  16.0885175  40.9483458  28.4248715
  17.5501900  40.6480629  28.6802573   6.4987382  32.7254843  25.5808152
   7.0731134  32.5030024  24.8481345   7.0858364  32.7943537  26.3336753
  15.5566959  38.6128569  26.3872528  16.0698841  39.2458561  26.8894238
  16.2068183  38.0129765  26.0215888   8.8010050  29.5996092  24.3083221
   8.1474462  29.2845109  23.6839836   8.7590524  28.9771832  25.0343044
   9.9121254  39.8815387  16.2236513   9.0048316  39.6504640  16.4227662
  10.4092286  39.0853006  16.4110495  12.8189333  48.5912894  19.1433199
  12.1451032  48.8944591  19.7518157  13.2055155  49.3941974  18.7938656
  12.0347790  36.0878025  28.6330869  11.1170351  36.3092972  28.4752557
  12.4507934  36.1624336  27.7742576  12.8182838  37.4869441  23.7633549
  13.5654657  37.9990838  23.4540671  13.0874427  37.1653493  24.6237943
  11.0909488  39.9827981  20.7460503  10.1820707  39.6987014  20.8432973
  11.1204572  40.4027060  19.8863810  16.3228755  43.5934571  24.5151671
  15.8691082  42.7525481  24.5716861  15.6922722  44.2295969  24.8526451
  15.2661675  34.5226557  25.7452338  14.5284432  34.0103943  26.0762581
  15.5188448  34.0826939  24.9335615  14.7661695  45.4311068  25.4501489
  15.0584669  45.9916125  24.7313855  15.2760315  45.7239629  26.2054648
  15.3673302  27.3002809  26.3394108  15.6732179  26.4400172  26.0520023
  16.0925907  27.8920429  26.1393101   1.6597658  37.7033496  24.7275705
   1.4622058  37.1102856  24.0026772   1.1044322  37.3985706  25.4451644
   9.6394382  37.5956602  26.8470299   9.6942992  36.6430438  26.7712775
   8.8285584  37.7516041  27.3311597  10.7885576  41.5236725  18.0848582
  10.3505006  40.8072584  17.6254219  11.5296017  41.7512840  17.5233673
   7.5786742  36.2133662  24.6060677   6.7654607  36.5127832  25.0125870
   8.0745736  35.8189351  25.3235160   9.7295320  46.2091419  26.5394942
   9.6871499  46.4352265  25.6103474  10.6458019  45.9754793  26.6880743
  13.1760954  36.6775486  33.4375571  13.5310341  36.9046959  34.2970037
  13.8233085  37.0093863  32.8152827  18.9058690  39.7993922  24.1424900
  18.7676589  39.9895518  23.2146090  18.5494909  40.5613305  24.5992952
   7.0700817  33.7852017  30.2221912   7.7100196  33.6440776  29.5244876
   6.2378347  33.4986531  29.8460514  18.9328070  41.8670449  29.1536172
  19.3664577  41.7745738  30.0019226  19.6459651  41.8427950  28.5156188
   7.8461121  43.0854448  26.3356905   8.6401719  42.5904768  26.1339480
   7.1352813  42.5572311  25.9724610  12.6655965  45.4672543  30.6869273
  12.7192987  46.0363480  31.4546988  11.7970746  45.6374428  30.3223310
   4.1543884  37.2297529  22.4116658   3.2241472  37.1681985  22.6286620
   4.2501356  36.7073482  21.6153299   4.0729433  33.7552342  24.9994899
   4.3336250  34.6697676  24.8904060   4.8946605  33.2876785  25.1491512
   5.5454358  35.1690099  32.1693724   6.2177412  34.9607462  31.5206373
   4.7184145  34.9712185  31.7298956  19.7943620  41.9094150  31.6869057
  19.9879510  42.8139960  31.9328332  19.6944238  41.4501569  32.5207642
  11.4479930  31.7952040  34.1859385  10.8007845  32.4941990  34.0923861
  12.2180946  32.2288184  34.5535633  14.8558728  42.0600893  37.2609938
  14.7044235  41.8311444  36.3440022  14.8463408  43.0171494  37.2741283
  11.6244065  39.6332805  32.2456204  12.5536125  39.7843965  32.0725172
  11.2035095  39.7216826  31.3904851  10.4232397  43.6583470  30.0154742
  10.2843482  43.2902254  30.8880680   9.6346993  44.1731109  29.8438700
  11.0180548  48.7592566  21.3580279  11.1932304  48.2880609  22.1725901
  10.3313337  49.3858332  21.5861539  11.9737612  43.0365072  27.4043580
  11.6387444  42.9965842  28.3001230  11.4741557  42.3709788  26.9313990
   5.9481856  38.4432702  32.9296161   5.8101654  37.7112941  33.5307700
   6.8586779  38.3541603  32.6480349  14.9096803  40.3821107  17.6780639
  14.2925974  39.6567935  17.5813692  14.4413292  41.1430467  17.3347714
   8.5764156  38.1552662  32.4179841   9.2863775  37.5145854  32.3766459
   8.5333464  38.4065557  33.3406021  16.5650935  45.0920015  35.3386420
  16.5063481  44.4079235  34.6717003  16.9670453  45.8339005  34.8867046
   7.2893090  35.1417880  34.2375480   6.7530447  34.6908618  34.8897076
   6.7009799  35.2763788  33.4945944   5.5841634  51.9081929  28.1320139
   5.8238232  52.5400453  28.8099157   4.7410830  51.5569969  28.4185498
  16.5668342  43.0559599  33.5700399  15.6795121  42.7185521  33.6926798
  17.1366893  42.3242630  33.8069165   3.0232211  34.2773887  31.3228475
   2.9390400  33.6699557  30.5878884   2.2014918  34.7682906  31.3237971
  10.0969496  47.7161051  30.5361643  10.0239667  48.5216023  31.0480947
   9.6546889  47.9153017  29.7109664   9.8859275  46.9532821  24.0464464
   9.1026797  47.4954502  24.1402689  10.5852020  47.4706801  24.4458705
  13.1955925  32.7627451  26.6898670  13.6924625  32.0097413  26.3699740
  12.4242907  32.7991768  26.1241879  21.0485683  38.4667816  28.3316961
  21.0375559  39.3492532  27.9610894  20.1803062  38.1139367  28.1371498
  12.5568179  47.6147885  32.6919801  13.2696151  48.2495350  32.6195703
  12.0658208  47.7111751  31.8759803  14.2785706  41.5199138  24.2637093
  13.3441985  41.6400601  24.0941797  14.4562375  40.6171605  23.9997103
   9.7790894  34.9044834  26.4170354   9.4088682  34.3515874  27.1051260
  10.2749987  34.3002967  25.8645354  17.6658257  37.3616457  24.7987127
  18.1318710  38.1944449  24.7247430  18.1165758  36.8961439  25.5032386
   7.6080093  45.3642329  33.5125372   8.3089552  45.9978812  33.6654766
   7.1375208  45.7057060  32.7521011  15.7334489  43.7060279  21.7973279
  16.0094332  43.5916873  22.7067153  14.8638987  43.3077764  21.7585452
  15.6374920  29.7297044  28.8378028  14.7238000  29.9601271  29.0060235
  16.0668022  29.8135488  29.6892061  15.4081379  37.9186936  31.3377922
  14.7552829  38.1662844  30.6830375  15.7861759  37.1051075  31.0040400
  12.3688553  47.9546630  25.4406093  12.5510947  47.1368285  25.9033845
  13.1921539  48.1714322  25.0030983  12.7030718  46.8814815  22.7021141
  13.2318484  46.3707269  22.0891303  12.9658938  46.5657345  23.5666674
  11.4568952  38.6606747  37.8243960  10.7809589  38.5600877  38.4946335
  12.2796586  38.5045961  38.2879957   3.2047811  44.8978684  30.4456475
   3.7901248  44.1522372  30.5784379   3.0072649  45.2082641  31.3293139
   6.0586466  47.9329931  25.4618917   5.3896841  48.4176059  24.9782957
   5.9199336  48.1799152  26.3762296  10.1991735  49.9673675  32.0601576
  10.7510043  50.1305296  32.8250661  10.5397928  50.5578113  31.3881600
   5.1756228  32.3148825  32.6623460   5.2397554  33.1763656  32.2500858
   5.1123348  31.7022826  31.9295819   4.6508500  34.3871957  36.3096495
   5.2780539  34.0049035  36.9234019   3.7936419  34.1686159  36.6752187
  15.0502609  44.7934932  37.9150230  15.5942513  45.4064891  37.4205185
  14.4689454  45.3514511  38.4317243   1.4274043  36.1948386  22.2414849
   1.7227484  35.2859065  22.1881903   0.5262079  36.1736126  21.9195852
  13.3360122  47.9155650  29.0465258  13.2111261  47.1145390  28.5376203
  13.9939213  48.4101844  28.5579228   4.9568290  34.2704383  28.2242398
   4.2354876  34.8840351  28.0849871   5.7461546  34.8062148  28.1459044
  15.3995030  45.7164670  30.6744808  14.4525366  45.5970022  30.6023135
  15.7477803  44.8287169  30.7571069   7.7594604  31.6058809  34.4983050
   8.2829005  31.8521106  35.2609359   7.5406937  32.4378844  34.0786187
   3.1561885  33.8762484  22.3654175   2.8274591  32.9959863  22.1829280
   3.5101255  33.8210153  23.2530564  12.4041464  45.5117387  26.8749160
  12.2566426  44.5834094  27.0556730  13.2294957  45.5337477  26.3906235
   6.2703708  34.1635454  22.7329652   6.6099780  34.6921375  22.0108261
   6.7175828  34.5015860  23.5088219  16.0075585  46.3345945  27.9614033
  16.9322133  46.1288807  27.8238484  15.8390889  46.0862347  28.8703374
   8.9647149  32.5472505  32.1832720   8.6243969  31.7480318  32.5853400
   8.2586155  32.8474215  31.6109553   9.6163620  29.6321817  30.6360043
  10.4389690  29.1582295  30.5138934   9.8601684  30.4112301  31.1358730
   8.2571855  32.6610075  20.9322945   8.9780217  33.0391328  20.4286662
   7.6337159  33.3798952  21.0357923  12.4002978  33.3655224  21.8681277
  12.6166592  34.2479862  21.5670105  11.9197045  32.9741438  21.1386919
   7.1402199  36.3240938  28.4452022   6.9946780  36.6381241  29.3376303
   6.6627403  36.9425838  27.8922921   8.9998582  33.3143486  28.4932911
   8.9860151  32.4184579  28.1565209   9.7171010  33.3214149  29.1271197
  10.8524713  33.7480826  30.5386039  10.5942491  34.6697896  30.5370369
  10.3209753  33.3511260  31.2286503  15.7970902  46.8531613  23.3176124
  15.9707779  46.2878035  22.5649977  16.2899793  47.6532508  23.1355614
   1.6147861  38.8646282  31.3839683   1.0701329  39.6406090  31.5159957
   2.4927211  39.2117086  31.2258804   8.4035478  32.1957866  23.7620482
   8.5251389  31.2674512  23.9611369   8.1137520  32.2096552  22.8498797
  11.2726668  29.8812776  26.8987201  11.2948365  29.9452109  25.9439181
  11.6894727  29.0417285  27.0927708  21.6510293  39.6168036  24.9366424
  22.0941439  38.8675361  24.5385547  20.7736803  39.6078172  24.5540156
  16.7846074  46.1698377  20.4173023  17.4796979  46.7905070  20.6360337
  17.1269224  45.3193728  20.6925400   2.4013883  37.9916178  34.2769840
   1.6595619  38.1398814  34.8634470   2.0806628  38.2524444  33.4136589
  18.6837497  43.6198083  21.9460353  19.2088821  43.9585356  21.2209673
  18.5959850  42.6845098  21.7623488  10.3457546  47.5332156  34.0750230
  10.6544672  47.2881303  34.9472930  11.1433028  47.7378795  33.5869100
  10.3678158  49.6870066  26.3055606   9.9283148  49.1946445  26.9988463
  11.1186275  49.1443034  26.0647682   2.8470497  45.8781607  26.3080235
   3.6728517  45.5785379  25.9278878   2.4964549  45.1089229  26.7570023
   7.8152030  45.2308075  28.3777908   7.1932039  44.5678780  28.0780136
   8.4856897  45.2569207  27.6951556   7.8876558  33.7089863  37.9710414
   7.9364713  34.5851986  37.5888184   8.4299072  33.1667256  37.3982057
  18.3731403  44.2530986  37.2511551  17.5826947  44.2355125  36.7116051
  18.1364758  44.7919280  38.0060588  18.4929278  41.1023453  34.5644280
  18.5427283  40.9373460  35.5059803  18.3843202  40.2350712  34.1742161
   7.3765537  43.7811999  21.8536369   7.5253657  44.4647463  21.2003041
   8.1831980  43.7617089  22.3685824  15.7833041  37.0854381  35.8803587
  16.6842903  36.9460846  35.5887584  15.8581015  37.2508836  36.8201764
  10.1175846  34.4621236  34.7256773   9.2479155  34.7554802  34.4539361
  10.3535326  35.0461681  35.4464036  19.9947475  43.5220394  34.8086301
  19.7032283  43.8850375  35.6449762  19.3819606  42.8087403  34.6299633
  21.1943157  41.0873274  27.3288872  22.0290049  41.5263078  27.4926432
  21.3302286  40.6111927  26.5097117  18.2434663  38.6453009  33.2766359
  18.7188785  38.8380655  32.4685211  17.3200229  38.7012195  33.0309743
   5.1318170  39.8077176  22.8597438   4.8864212  38.9039506  23.0577648
   5.3014085  39.8094327  21.9176916  12.8214880  30.6800853  32.2422193
  13.3396824  31.4161879  31.9168682  12.4670013  30.9864846  33.0768952
  13.0727474  27.1001135  27.7623090  13.3529228  26.4324324  28.3883516
  13.8578081  27.2930231  27.2497754  10.8760943  46.2760129  19.3248116
  10.3034910  46.8950316  18.8718588  11.4493736  46.8259491  19.8588038
  16.9436332  35.5218769  31.5094665  17.8953755  35.6216867  31.5306889
  16.7739783  34.7297038  32.0192749  14.9650712  32.6074352  31.6954066
  14.3700644  32.8879365  31.0000554  14.6800409  33.0968253  32.4670807
  14.0958202  46.5597279  20.4556698  15.0288875  46.4942841  20.6589574
  14.0081415  47.3953546  19.9971231  16.7246219  45.8763149  17.4160646
  16.6459850  45.5423013  18.3096404  17.5455886  46.3684917  17.4152118
  19.4224410  38.7424889  30.6236965  19.3900730  37.8040889  30.8096648
  20.0325034  38.8208925  29.8902789  11.2607741  37.6120942  16.6664169
  12.2066846  37.4827150  16.7352587  10.8821986  36.8735604  17.1433597
  19.5718899  35.5335932  30.6695248  19.0557947  34.7494389  30.4825177
  20.4558847  35.2054649  30.8341767  17.2329626  29.2776948  26.6291060
  17.0354447  28.9692036  27.5134392  17.8429331  30.0038587  26.7588990
  25.2400960  39.8040896  29.7643001  25.9704348  39.5426184  30.3250705
  24.6307905  39.0669618  29.8045069  23.3216257  37.9448758  30.3617453
  22.5949421  37.8104723  29.7533944  22.9063544  38.2525587  31.1674171
  11.1446434  41.6638688  38.1264826  12.0649443  41.8417287  38.3204872
  11.1096017  40.7194733  37.9744525   4.1408506  39.5739723  30.7687607
   4.3594516  40.5056830  30.7875641   4.5534280  39.2147697  31.5542411
  11.0612724  30.0807808  22.7563295  10.2513452  29.7354893  23.1318541
  11.7497141  29.7715352  23.3450907  12.9903272  29.1585855  24.3787592
  13.5434311  29.5781308  25.0377615  13.2273359  28.2321603  24.4210548
   9.0136371  35.1472928  40.1590356   8.9133098  36.0967285  40.0902447
   8.7957913  34.8191167  39.2866426  16.3682079  31.2686380  23.8866256
  15.7880748  31.9271184  23.5044308  16.1018012  30.4463724  23.4753674
  14.8185646  30.6691437  26.0887576  15.3185424  30.7807972  25.2801895
  15.4621254  30.3652490  26.7288385   8.8767641  38.5770067  38.9755417
   8.3934723  39.3770427  39.1819306   8.9628581  38.5878012  38.0222861
   2.1453601  40.4098447  26.8977237   2.1224289  40.5086134  25.9459120
   2.4554238  41.2563598  27.2194403   4.8040979  42.4674602  31.0123851
   5.7584232  42.4358544  30.9453783   4.6053503  42.0065226  31.8274077
   5.3940361  41.0375718  33.5794649   6.2133250  41.5319797  33.6029486
   5.6677169  40.1207686  33.5512216  15.1506957  33.4286470  22.9422604
  14.2632812  33.7136121  22.7242799  15.5660946  33.2680234  22.0949881
  18.5021493  33.4532991  26.6576944  19.2781884  33.9429444  26.9301560
  17.7769628  33.8791045  27.1148813  20.9394052  34.1660610  27.7150884
  21.5338543  33.9256346  27.0044192  21.0120636  33.4467741  28.3424420
   3.1591208  48.0094221  28.0294049   3.0245676  47.2494622  27.4632047
   2.7423270  48.7335121  27.5622838  14.2950171  43.1931145  17.0370624
  14.9986021  43.3981147  17.6528280  13.5712820  43.7607907  17.3019708
  15.1247981  38.9441006  23.1572894  15.0683182  39.4009558  22.3180527
  15.6776323  38.1831691  22.9795737  18.9352787  34.7330738  23.9823014
  18.6789721  34.3327374  24.8131222  18.3105655  35.4474532  23.8573153
  23.2465125  37.4726811  26.4894305  22.6864683  37.5420001  27.2625867
  22.6408628  37.2967796  25.7693802   6.3160334  48.9063538  28.2412492
   6.1992718  49.8508971  28.1391182   5.4952780  48.6037100  28.6298291
  16.2036868  43.6313674  19.0869084  17.0382472  43.1994873  18.9046559
  16.0421211  43.4595688  20.0145979  15.8582760  40.1345787  20.4525424
  15.8031564  39.9690059  19.5113868  15.2328816  40.8421820  20.6087613
  13.1728668  42.4394699  39.7778986  14.0419827  42.6135351  39.4165621
  12.6935419  43.2589116  39.6554716   7.3414848  49.5591800  31.4568420
   8.2442094  49.5915410  31.7734915   7.1152218  48.6292251  31.4714756
   9.0968450  48.3122787  28.1178499   8.1464081  48.3124648  28.0042871
   9.4000936  47.5655521  27.6014533  12.9831005  26.2296673  24.2856679
  12.2163401  25.6755160  24.4313361  13.3941710  26.3018542  25.1470830
   4.9872766  32.5181469  38.3761860   5.8504228  32.1618274  38.5865185
   4.4138177  32.1795364  39.0637264  24.8321143  54.1483325  29.1824261
  25.4699553  54.0290073  28.4787601  24.7141986  55.0964169  29.2412213
  21.6410850  54.1010753  29.1185786  21.3029361  53.9851818  28.2306321
  22.5100618  53.7001918  29.0986792  17.4997665  55.9546230  25.1082677
  16.9362530  55.8636167  24.3398964  17.3850060  55.1346134  25.5885169
  22.1230633  55.2545605  35.0771991  22.1119273  54.8598403  34.2052495
  22.2851272  54.5211678  35.6705763  15.0462097  57.4497421  27.9466897
  15.8383389  57.1088246  27.5313196  15.2858747  57.5592396  28.8669051
  23.0797224  59.6217197  20.4197142  22.4285204  60.2071278  20.0331155
  23.8741587  60.1523392  20.4792179  17.0052851  56.7106335  20.8184276
  17.7783727  56.1635322  20.6797152  17.3578250  57.5750584  21.0298737
  18.8437894  58.0382717  34.0251175  18.5527760  58.9428348  33.9097842
  19.4794878  58.0799244  34.7395245  19.7694101  55.4159565  30.6152535
  20.3657673  55.1915588  29.9009498  19.8269072  54.6744311  31.2177983
  19.3419129  52.8699001  18.4502726  19.5944650  52.3480522  17.6886189
  18.4043688  52.7065146  18.5529410  24.3862412  51.8734779  26.2577469
  25.1725501  51.4554202  25.9067886  24.6501116  52.7780871  26.4259118
  24.5572489  57.3107629  20.9566126  23.9218322  57.3842256  21.6687031
  24.2269895  57.9001228  20.2785205  29.7870839  51.8110012  27.1610448
  30.5196011  51.2409229  27.3948277  29.0310195  51.4231613  27.6016953
  19.0615418  54.7727107  20.6527101  18.9451676  54.0972010  21.3208185
  19.1717678  54.2859481  19.8359254  21.4046959  54.2337254  24.3573790
  21.0405166  53.7067875  25.0686712  22.2614074  53.8435723  24.1840276
  27.3096259  45.5231586  31.6205056  26.9779584  46.3926997  31.3966271
  26.7141873  45.2067870  32.2999087  21.0452446  49.2627153  19.3535139
  21.2126848  50.1307390  19.7205610  20.8549615  49.4254435  18.4296428
  23.8027779  57.7244132  31.0200969  23.5028502  58.6269171  30.9116776
  23.4578838  57.4576316  31.8722122  17.2540260  54.1757929  27.0537673
  16.3290757  54.0434143  27.2615365  17.5024673  54.9552148  27.5507616
  27.2024923  50.2426672  28.6998406  26.2941800  50.1742081  28.4057167
  27.1512518  50.7198617  29.5280232  21.0241666  51.7184811  20.3381805
  20.9041292  52.1641862  21.1767286  20.3294255  52.0670129  19.7795344
  14.6149071  53.8191203  27.8881462  14.7441452  54.0725682  28.8020874
  13.9346523  54.4118911  27.5686118  18.7848559  64.4888453  23.9871937
  18.7072588  65.4396278  24.0660417  18.1810202  64.1434325  24.6446863
  21.2765788  51.6616318  36.6433304  20.4999122  52.2210238  36.6336168
  21.9156351  52.1473101  37.1648174  29.0686569  48.4443111  30.4776280
  28.4260949  48.7375644  29.8316075  28.5641497  48.3296031  31.2829477
  26.7226733  52.1906284  21.1662139  27.6344589  52.4233671  20.9909837
  26.2136380  52.7743328  20.6037218  19.5312161  54.4701771  36.2051271
  20.2726845  55.0086815  35.9286094  18.8249146  55.0968060  36.3622822
  25.0067500  56.6130912  34.8023432  25.4150856  56.1713322  34.0578064
  24.2844762  56.0383539  35.0557625  21.3598570  51.5503519  32.1756989
  22.2059766  51.9742932  32.3191638  21.2997208  50.8937143  32.8695552
  25.3296315  57.1732103  28.5575721  24.7005177  57.3377817  27.8551789
  24.9421977  57.5873712  29.3286685  29.2085547  58.1086540  25.9120085
  28.5236585  58.4885442  25.3617118  29.2929396  58.7181867  26.6452032
  24.5098016  49.2107887  33.8338163  24.2658948  49.9649948  33.2972438
  24.7857946  49.5893235  34.6685410  26.4636478  55.7546499  32.5115428
  26.6753374  56.3978259  31.8349809  26.4166227  54.9208816  32.0437358
  24.0662707  48.3664320  29.4152000  23.2047186  48.6645574  29.7068738
  24.0925142  48.5834719  28.4833033  20.8824277  56.9106511  25.8225806
  21.3462622  57.1894214  25.0330429  20.6181075  56.0089955  25.6398897
  17.7748358  56.4577992  28.7605569  18.3449715  56.8865261  28.1223054
  18.3656470  56.1760577  29.4589755  19.8193163  53.0329663  22.6315371
  20.5217206  53.4850707  23.0989298  19.4873791  52.3913482  23.2595264
  18.2673524  51.6241420  37.0066581  17.6372185  52.3057700  37.2401977
  18.1609612  51.5124501  36.0619719  13.5618497  51.2913216  27.9332505
  12.7717551  51.5470744  27.4572615  14.0529744  52.1061553  28.0384545
  27.5782306  58.6318455  30.6837786  28.3999750  58.2298642  30.4020467
  27.5744709  58.5286689  31.6353901  15.5133242  51.6557795  24.8915981
  14.7164405  51.7676489  25.4099477  15.2858834  51.9944447  24.0256872
  21.3438910  58.1802498  32.8398496  21.4083342  58.6422905  33.6756668
  20.6349834  57.5499863  32.9680806  11.8456200  51.5443706  30.3647496
  12.0964238  52.4290716  30.6305071  12.3815748  51.3648308  29.5922587
  35.6688299  54.9757203  27.0322757  34.9152008  54.4064601  26.8766761
  35.8035841  54.9419868  27.9793392  21.0586927  59.8470606  22.7077476
  20.9232602  60.6922141  23.1362324  21.5996740  60.0489883  21.9443410
  17.5454267  45.9262185  39.3691832  17.1521213  45.3728384  40.0439476
  18.3620407  46.2372764  39.7598349  14.5116325  57.3646044  23.2805401
  15.0240845  58.1589294  23.4310966  15.1639038  56.6672334  23.2139003
  16.3211210  60.4811800  25.3628155  16.4977838  61.4029765  25.1749139
  17.1168043  60.1670219  25.7922534  20.4622228  47.3420065  36.9612088
  21.2031941  47.9427218  36.8816551  20.6940151  46.5997702  36.4030131
  15.6063566  52.5276432  35.2390318  15.4917081  51.6261689  35.5397417
  14.7508084  52.7740129  34.8875134  22.6855404  60.4694172  36.8377818
  22.2419258  59.6830551  36.5198723  23.3472617  60.6573323  36.1721709
  17.4442525  61.9989974  31.3638497  17.9949950  61.8707037  30.5915491
  16.6054001  62.2984863  31.0133390  24.7836642  60.7496972  34.8659220
  24.7655117  61.5705853  34.3739489  25.7056562  60.6251047  35.0909361
  21.2409696  58.2641102  35.7082728  21.7738033  57.5029390  35.4782036
  20.7123777  57.9714753  36.4506883  24.4079391  43.3701167  31.2376370
  24.0643660  44.2602809  31.1615480  24.7758354  43.1802825  30.3745955
  12.4765242  55.6934698  24.0564972  13.3140464  56.1031706  23.8398680
  12.6543509  54.7534140  24.0265166  24.3729674  53.3609779  19.7448805
  23.8576297  54.1314383  19.9837192  24.1006982  52.6874915  20.3681866
  21.9576785  48.2059479  24.8034043  21.1018381  47.8166330  24.6239682
  22.3703737  48.2851440  23.9433829  23.4875931  45.7405823  29.2025603
  22.9840727  45.7035958  28.3893408  23.7806538  46.6498565  29.2622260
  19.7318817  45.8244552  28.2091785  20.5971814  45.6287361  27.8497674
  19.7996326  45.5954904  29.1361142  29.3463948  56.1142133  21.6801978
  28.5693391  55.7753293  21.2357141  30.0255429  56.1194756  21.0056943
  24.1615977  51.2336871  21.5708586  23.8566112  51.5483020  22.4218729
  25.1146419  51.3118291  21.6135919  22.6062409  57.3927094  23.2201540
  22.0783770  56.6579854  22.9074778  22.1049911  58.1701770  22.9741508
  27.5855255  55.5876114  28.3368586  26.9278929  56.2775376  28.4248715
  28.3895654  55.9772546  28.6802573  17.3381136  48.0546760  25.5808152
  17.9124888  47.8321942  24.8481345  17.9252119  48.1235455  26.3336753
  26.3960714  53.9420487  26.3872528  26.9092595  54.5750479  26.8894238
  27.0461937  53.3421683  26.0215888  17.6650723  50.0851221  19.6004037
  16.8288036  50.4225908  19.9213312  17.5255493  49.9500201  18.6631174
  19.6403804  44.9288009  24.3083221  18.9868216  44.6137026  23.6839836
  19.5984278  44.3063750  25.0343044  20.7515009  55.2107304  16.2236513
  19.8442071  54.9796558  16.4227662  21.2486041  54.4144924  16.4110495
  23.6583088  63.9204811  19.1433199  22.9844787  64.2236508  19.7518157
  24.0448910  64.7233892  18.7938656  22.8741544  51.4169943  28.6330869
  21.9564106  51.6384890  28.4752557  23.2901688  51.4916253  27.7742576
  23.6576592  52.8161358  23.7633549  24.4048411  53.3282756  23.4540671
  23.9268182  52.4945411  24.6237943  21.9303242  55.3119899  20.7460503
  21.0214462  55.0278932  20.8432973  21.9598326  55.7318978  19.8863810
  27.1622510  58.9226489  24.5151671  26.7084837  58.0817399  24.5716861
  26.5316477  59.5587887  24.8526451  26.1055429  49.8518475  25.7452338
  25.3678186  49.3395861  26.0762581  26.3582203  49.4118856  24.9335615
  25.6055449  60.7602985  25.4501489  25.8978423  61.3208042  24.7313855
  26.1154070  61.0531546  26.2054648  26.2067057  42.6294727  26.3394108
  26.5125933  41.7692090  26.0520023  26.9319661  43.2212347  26.1393101
  12.4991413  53.0325413  24.7275705  12.3015813  52.4394774  24.0026772
  11.9438077  52.7277623  25.4451644  20.4788136  52.9248520  26.8470299
  20.5336746  51.9722356  26.7712775  19.6679338  53.0807959  27.3311597
  21.6279330  56.8528643  18.0848582  21.1898760  56.1364502  17.6254219
  22.3689771  57.0804758  17.5233673  18.4180496  51.5425579  24.6060677
  17.6048362  51.8419750  25.0125870  18.9139491  51.1481268  25.3235160
  20.5689074  61.5383336  26.5394942  20.5265253  61.7644183  25.6103474
  21.4851773  61.3046711  26.6880743  24.0154708  52.0067404  33.4375571
  24.3704096  52.2338877  34.2970037  24.6626839  52.3385781  32.8152827
  29.7452445  55.1285840  24.1424900  29.6070344  55.3187436  23.2146090
  29.3888664  55.8905223  24.5992952  17.9094571  49.1143935  30.2221912
  18.5493950  48.9732694  29.5244876  17.0772102  48.8278448  29.8460514
  29.7721825  57.1962367  29.1536172  30.2058331  57.1037656  30.0019226
  30.4853405  57.1719867  28.5156188  18.6854875  58.4146365  26.3356905
  19.4795474  57.9196686  26.1339480  17.9746567  57.8864229  25.9724610
  23.5049719  60.7964461  30.6869273  23.5586742  61.3655397  31.4546988
  22.6364501  60.9666346  30.3223310  14.9937638  52.5589447  22.4116658
  14.0635227  52.4973903  22.6286620  15.0895110  52.0365400  21.6153299
  14.9123188  49.0844260  24.9994899  15.1730005  49.9989593  24.8904060
  15.7340360  48.6168703  25.1491512  16.3848113  50.4982017  32.1693724
  17.0571166  50.2899379  31.5206373  15.5577899  50.3004103  31.7298956
  30.6337374  57.2386067  31.6869057  30.8273264  58.1431878  31.9328332
  30.5337992  56.7793487  32.5207642  22.2873685  47.1243958  34.1859385
  21.6401600  47.8233908  34.0923861  23.0574700  47.5580102  34.5535633
  25.6952483  57.3892810  37.2609938  25.5437989  57.1603362  36.3440022
  25.6857162  58.3463412  37.2741283  22.4637819  54.9624723  32.2456204
  23.3929879  55.1135883  32.0725172  22.0428849  55.0508744  31.3904851
  21.2626151  58.9875387  30.0154742  21.1237237  58.6194172  30.8880680
  20.4740747  59.5023027  29.8438700  21.8574303  64.0884484  21.3580279
  22.0326059  63.6172527  22.1725901  21.1707091  64.7150250  21.5861539
  22.8131366  58.3656990  27.4043580  22.4781199  58.3257760  28.3001230
  22.3135312  57.7001706  26.9313990  16.7875610  53.7724620  32.9296161
  16.6495408  53.0404859  33.5307700  17.6980534  53.6833520  32.6480349
  25.7490558  55.7113024  17.6780639  25.1319728  54.9859853  17.5813692
  25.2807046  56.4722385  17.3347714  19.4157911  53.4844579  32.4179841
  20.1257529  52.8437772  32.3766459  19.3727219  53.7357474  33.3406021
  27.4044689  60.4211933  35.3386420  27.3457236  59.7371153  34.6717003
  27.8064208  61.1630923  34.8867046  18.1286845  50.4709797  34.2375480
  17.5924202  50.0200536  34.8897076  17.5403553  50.6055706  33.4945944
  16.4235388  67.2373847  28.1320139  16.6631986  67.8692371  28.8099157
  15.5804585  66.8861887  28.4185498  17.5389104  49.9298449  16.8001944
  16.6618570  49.8087250  16.4364190  18.0146857  49.1384527  16.5480832
  27.4062097  58.3851517  33.5700399  26.5188875  58.0477439  33.6926798
  27.9760648  57.6534548  33.8069165   9.0591244  54.7175608  26.8943451
   9.7462284  54.4037339  26.3064466   8.9039373  55.6216973  26.6210702
  13.8625966  49.6065805  31.3228475  13.7784155  48.9991475  30.5878884
  13.0408672  50.0974823  31.3237971  20.9363250  63.0452969  30.5361643
  20.8633422  63.8507941  31.0480947  20.4940643  63.2444935  29.7109664
  20.7253030  62.2824739  24.0464464  19.9420552  62.8246419  24.1402689
  21.4245775  62.7998719  24.4458705  24.0349680  48.0919369  26.6898670
  24.5318379  47.3389331  26.3699740  23.2636661  48.1283685  26.1241879
  31.8879437  53.7959734  28.3316961  31.8769314  54.6784450  27.9610894
  31.0196817  53.4431285  28.1371498  23.3961934  62.9439803  32.6919801
  24.1089906  63.5787268  32.6195703  22.9051962  63.0403669  31.8759803
  25.1179461  56.8491056  24.2637093  24.1835739  56.9692518  24.0941797
  25.2956129  55.9463523  23.9997103  20.6184649  50.2336752  26.4170354
  20.2482436  49.6807792  27.1051260  21.1143741  49.6294885  25.8645354
  28.5052012  52.6908375  24.7987127  28.9712464  53.5236367  24.7247430
  28.9559512  52.2253357  25.5032386  18.4473847  60.6934247  33.5125372
  19.1483307  61.3270730  33.6654766  17.9768962  61.0348978  32.7521011
  26.5728243  59.0352196  21.7973279  26.8488087  58.9208791  22.7067153
  25.7032742  58.6369681  21.7585452  26.4768675  45.0588962  28.8378028
  25.5631754  45.2893189  29.0060235  26.9061776  45.1427406  29.6892061
  26.2475133  53.2478854  31.3377922  25.5946583  53.4954761  30.6830375
  26.6255513  52.4342992  31.0040400  23.2082307  63.2838547  25.4406093
  23.3904702  62.4660203  25.9033845  24.0315293  63.5006239  25.0030983
  23.5424473  62.2106732  22.7021141  24.0712239  61.6999187  22.0891303
  23.8052692  61.8949263  23.5666674  22.2962706  53.9898665  37.8243960
  21.6203343  53.8892794  38.4946335  23.1190340  53.8337879  38.2879957
  14.0441565  60.2270602  30.4456475  14.6295002  59.4814290  30.5784379
  13.8466404  60.5374558  31.3293139  16.8980220  63.2621849  25.4618917
  16.2290596  63.7467977  24.9782957  16.7593090  63.5091069  26.3762296
   8.6359220  52.7976202  29.1660918   8.6743319  52.2639793  29.9598036
   8.1299513  52.2711407  28.5471895  21.0385489  65.2965593  32.0601576
  21.5903797  65.4597214  32.8250661  21.3791683  65.8870030  31.3881600
  16.0149982  47.6440742  32.6623460  16.0791309  48.5055573  32.2500858
  15.9517103  47.0314744  31.9295819  15.4902255  49.7163875  36.3096495
  16.1174294  49.3340952  36.9234019  14.6330174  49.4978077  36.6752187
  25.8896363  60.1226850  37.9150230  26.4336267  60.7356808  37.4205185
  25.3083208  60.6806428  38.4317243  12.2667798  51.5240304  22.2414849
  12.5621239  50.6150982  22.1881903  11.3655833  51.5028043  21.9195852
  24.1753876  63.2447568  29.0465258  24.0505016  62.4437308  28.5376203
  24.8332967  63.7393761  28.5579228  15.7962045  49.5996301  28.2242398
  15.0748630  50.2132268  28.0849871  16.5855300  50.1354065  28.1459044
  26.2388785  61.0456588  30.6744808  25.2919120  60.9261939  30.6023135
  26.5871558  60.1579086  30.7571069  18.5988358  46.9350727  34.4983050
  19.1222760  47.1813024  35.2609359  18.3800691  47.7670762  34.0786187
  13.9955639  49.2054402  22.3654175  13.6668345  48.3251781  22.1829280
  14.3495010  49.1502070  23.2530564  23.2435218  60.8409304  26.8749160
  23.0960180  59.9126012  27.0556730  24.0688712  60.8629395  26.3906235
  17.1097462  49.4927371  22.7329652  17.4493535  50.0213293  22.0108261
  17.5569583  49.8307778  23.5088219  26.8469340  61.6637863  27.9614033
  27.7715887  61.4580724  27.8238484  26.6784643  61.4154264  28.8703374
  19.8040903  47.8764422  32.1832720  19.4637723  47.0772235  32.5853400
  19.0979909  48.1766133  31.6109553  20.4557375  44.9613735  30.6360043
  21.2783444  44.4874213  30.5138934  20.6995438  45.7404218  31.1358730
  19.0965609  47.9901993  20.9322945  19.8173972  48.3683246  20.4286662
  18.4730914  48.7090870  21.0357923  23.2396732  48.6947142  21.8681277
  23.4560347  49.5771780  21.5670105  22.7590799  48.3033355  21.1386919
  17.9795954  51.6532855  28.4452022  17.8340534  51.9673158  29.3376303
  17.5021157  52.2717756  27.8922921  19.8392337  48.6435403  28.4932911
  19.8253905  47.7476497  28.1565209  20.5564765  48.6506067  29.1271197
  21.6918467  49.0772743  30.5386039  21.4336245  49.9989814  30.5370369
  21.1603508  48.6803178  31.2286503  26.6364656  62.1823531  23.3176124
  26.8101534  61.6169953  22.5649977  27.1293547  62.9824425  23.1355614
  12.4541616  54.1938200  31.3839683  11.9095084  54.9698008  31.5159957
  13.3320966  54.5409004  31.2258804  19.2429233  47.5249784  23.7620482
  19.3645144  46.5966430  23.9611369  18.9531275  47.5388469  22.8498797
  22.1120423  45.2104694  26.8987201  22.1342120  45.2744027  25.9439181
  22.5288482  44.3709203  27.0927708  32.4904047  54.9459953  24.9366424
  32.9335193  54.1967279  24.5385547  31.6130558  54.9370090  24.5540156
  27.6239829  61.4990295  20.4173023  28.3190733  62.1196988  20.6360337
  27.9662979  60.6485646  20.6925400  13.2407638  53.3208096  34.2769840
  12.4989374  53.4690731  34.8634470  12.9200382  53.5816362  33.4136589
  29.5231252  58.9490000  21.9460353  30.0482576  59.2877273  21.2209673
  29.4353604  58.0137016  21.7623488  21.1851300  62.8624074  34.0750230
  21.4938427  62.6173221  34.9472930  21.9826782  63.0670713  33.5869100
  21.2071912  65.0161984  26.3055606  20.7676903  64.5238362  26.9988463
  21.9580029  64.4734951  26.0647682  13.6864251  61.2073525  26.3080235
  14.5122271  60.9077296  25.9278878  13.3358303  60.4381147  26.7570023
  18.6545785  60.5599993  28.3777908  18.0325794  59.8970698  28.0780136
  19.3250651  60.5861125  27.6951556  11.8872856  59.1259851  27.2669168
  11.0504765  58.6982025  27.0853169  11.8596502  59.3192294  28.2039959
  18.7270312  49.0381781  37.9710414  18.7758468  49.9143904  37.5888184
  19.2692826  48.4959174  37.3982057  29.2125158  59.5822904  37.2511551
  28.4220701  59.5647043  36.7116051  28.9758512  60.1211198  38.0060588
  29.3323033  56.4315370  34.5644280  29.3821038  56.2665378  35.5059803
  29.2236956  55.5642630  34.1742161  18.2159291  59.1103916  21.8536369
  18.3647412  59.7939381  21.2003041  19.0225735  59.0909006  22.3685824
  26.6226795  52.4146299  35.8803587  27.5236658  52.2752763  35.5887584
  26.6974770  52.5800753  36.8201764  20.9569600  49.7913153  34.7256773
  20.0872910  50.0846719  34.4539361  21.1929081  50.3753598  35.4464036
  30.8341230  58.8512312  34.8086301  30.5426038  59.2142293  35.6449762
  30.2213361  58.1379320  34.6299633  32.0336912  56.4165192  27.3288872
  32.8683803  56.8554996  27.4926432  32.1696041  55.9403845  26.5097117
  29.0828418  53.9744927  33.2766359  29.5582539  54.1672573  32.4685211
  28.1593983  54.0304112  33.0309743  15.9711924  55.1369094  22.8597438
  15.7257966  54.2331424  23.0577648  16.1407839  55.1386244  21.9176916
  23.6608634  46.0092770  32.2422193  24.1790578  46.7453797  31.9168682
  23.3063767  46.3156763  33.0768952  15.2407572  50.8697451  20.3583599
  14.5476817  50.9441806  19.7023635  14.9959324  50.1057795  20.8805116
  23.9121228  42.4293053  27.7623090  24.1922982  41.7616242  28.3883516
  24.6971835  42.6222148  27.2497754  21.7154697  61.6052047  19.3248116
  21.1428664  62.2242234  18.8718588  22.2887491  62.1551408  19.8588038
  27.7830087  50.8510687  31.5094665  28.7347510  50.9508784  31.5306889
  27.6133537  50.0588955  32.0192749  25.8044466  47.9366270  31.6954066
  25.2094398  48.2171283  31.0000554  25.5194163  48.4260171  32.4670807
  24.9351957  61.8889197  20.4556698  25.8682630  61.8234758  20.6589574
  24.8475170  62.7245464  19.9971231  27.5639973  61.2055067  17.4160646
  27.4853605  60.8714931  18.3096404  28.3849640  61.6976835  17.4152118
  30.2618165  54.0716806  30.6236965  30.2294485  53.1332807  30.8096648
  30.8718788  54.1500843  29.8902789  22.1001495  52.9412859  16.6664169
  23.0460600  52.8119067  16.7352587  21.7215740  52.2027521  17.1433597
  30.4112653  50.8627850  30.6695248  29.8951702  50.0786306  30.4825177
  31.2952602  50.5346566  30.8341767  28.0723380  44.6068865  26.6291060
  27.8748201  44.2983954  27.5134392  28.6823086  45.3330504  26.7588990
  36.0794714  55.1332813  29.7643001  36.8098103  54.8718101  30.3250705
  35.4701660  54.3961535  29.8045069  34.1610012  53.2740676  30.3617453
  33.4343175  53.1396641  29.7533944  33.7457298  53.5817504  31.1674171
  21.9840188  56.9930606  38.1264826  22.9043197  57.1709205  38.3204872
  21.9489771  56.0486651  37.9744525  20.2844413  50.8662836  16.6019054
  19.3775868  50.5695948  16.6781767  20.5620394  50.5692654  15.7353340
  11.2022353  52.1869199  27.0518100  10.8825137  51.3334507  26.7592474
  10.6555781  52.4017777  27.8076068  14.9802261  54.9031640  30.7687607
  15.1988270  55.8348748  30.7875641  15.3928034  54.5439615  31.5542411
  21.9006478  45.4099725  22.7563295  21.0907207  45.0646810  23.1318541
  22.5890895  45.1007269  23.3450907  23.8297027  44.4877772  24.3787592
  24.3828065  44.9073226  25.0377615  24.0667113  43.5613520  24.4210548
  19.8530126  50.4764846  40.1590356  19.7526853  51.4259203  40.0902447
  19.6351668  50.1483085  39.2866426  19.0543197  47.7249771  16.7431033
  19.9162361  48.0504669  17.0026850  19.2393541  46.9381267  16.2304099
  11.0710613  55.8072111  29.0211222  10.3774084  55.3926063  28.5081176
  11.8183604  55.8492647  28.4244641  27.2075834  46.5978297  23.8866256
  26.6274503  47.2563101  23.5044308  26.9411766  45.7755642  23.4753674
  25.6579400  45.9983355  26.0887576  26.1579178  46.1099890  25.2801895
  26.3015008  45.6944408  26.7288385  19.7161396  53.9061985  38.9755417
  19.2328478  54.7062345  39.1819306  19.8022335  53.9169930  38.0222861
  12.9847356  55.7390364  26.8977237  12.9618044  55.8378052  25.9459120
  13.2947992  56.5855515  27.2194403  15.6434733  57.7966519  31.0123851
  16.5977987  57.7650462  30.9453783  15.4447257  57.3357143  31.8274077
  16.2334116  56.3667636  33.5794649  17.0527005  56.8611714  33.6029486
  16.5070923  55.4499604  33.5512216  25.9900712  48.7578388  22.9422604
  25.1026567  49.0428038  22.7242799  26.4054701  48.5972151  22.0949881
  29.3415248  48.7824909  26.6576944  30.1175638  49.2721361  26.9301560
  28.6163382  49.2082963  27.1148813  31.7787807  49.4952528  27.7150884
  32.3732297  49.2548264  27.0044192  31.8514390  48.7759659  28.3424420
  13.9984962  63.3386139  28.0294049  13.8639430  62.5786540  27.4632047
  13.5817024  64.0627039  27.5622838  25.1343925  58.5223063  17.0370624
  25.8379775  58.7273065  17.6528280  24.4106574  59.0899824  17.3019708
  25.9641736  54.2732924  23.1572894  25.9076937  54.7301475  22.3180527
  26.5170078  53.5123608  22.9795737  29.7746541  50.0622656  23.9823014
  29.5183476  49.6619291  24.8131222  29.1499409  50.7766450  23.8573153
  34.0858879  52.8018729  26.4894305  33.5258437  52.8711918  27.2625867
  33.4802383  52.6259714  25.7693802  17.1554088  64.2355456  28.2412492
  17.0386472  65.1800888  28.1391182  16.3346534  63.9329018  28.6298291
  27.0430623  58.9605592  19.0869084  27.8776227  58.5286790  18.9046559
  26.8814966  58.7887605  20.0145979  26.6976515  55.4637705  20.4525424
  26.6425319  55.2981976  19.5113868  26.0722570  56.1713738  20.6087613
  11.4869030  50.7005769  34.2786846  12.1327893  50.1904723  34.7674071
  11.2786181  51.4374451  34.8530271  24.0122422  57.7686617  39.7778986
  24.8813582  57.9427269  39.4165621  23.5329173  58.5881034  39.6554716
  20.0072640  44.9645814  20.0310742  19.9951310  45.9087654  20.1879013
  20.8996062  44.7815959  19.7370203  18.1808602  64.8883718  31.4568420
  19.0835849  64.9207328  31.7734915  17.9545972  63.9584169  31.4714756
  19.9362204  63.6414704  28.1178499  18.9857835  63.6416566  28.0042871
  20.2394690  62.8947439  27.6014533  23.8224760  41.5588591  24.2856679
  23.0557156  41.0047077  24.4313361  24.2335465  41.6310459  25.1470830
  15.8266521  47.8473386  38.3761860  16.6897982  47.4910191  38.5865185
  15.2531931  47.5087281  39.0637264  35.6714898  69.4775243  29.1824261
  36.3093308  69.3581990  28.4787601  35.5535741  70.4256087  29.2412213
  32.4804604  69.4302671  29.1185786  32.1423116  69.3143736  28.2306321
  33.3494372  69.0293836  29.0986792  28.3391420  71.2838147  25.1082677
  27.7756285  71.1928084  24.3398964  28.2243815  70.4638052  25.5885169
  32.9624387  70.5837523  35.0771991  32.9513028  70.1890321  34.2052495
  33.1245026  69.8503595  35.6705763  25.8855852  72.7789339  27.9466897
  26.6777144  72.4380164  27.5313196  26.1252502  72.8884314  28.8669051
  33.9190978  74.9509115  20.4197142  33.2678958  75.5363195  20.0331155
  34.7135341  75.4815310  20.4792179  27.8446606  72.0398252  20.8184276
  28.6177482  71.4927239  20.6797152  28.1972004  72.9042502  21.0298737
  29.6831648  73.3674634  34.0251175  29.3921514  74.2720265  33.9097842
  30.3188633  73.4091162  34.7395245  30.6087855  70.7451483  30.6152535
  31.2051427  70.5207505  29.9009498  30.6662827  70.0036228  31.2177983
  30.1812883  68.1990918  18.4502726  30.4338404  67.6772440  17.6886189
  29.2437442  68.0357064  18.5529410  35.2256166  67.2026697  26.2577469
  36.0119255  66.7846120  25.9067886  35.4894871  68.1072789  26.4259118
  35.3966244  72.6399547  20.9566126  34.7612077  72.7134173  21.6687031
  35.0663650  73.2293146  20.2785205  40.6264593  67.1401930  27.1610448
  41.3589765  66.5701147  27.3948277  39.8703949  66.7523530  27.6016953
  29.9009172  70.1019024  20.6527101  29.7845430  69.4263928  21.3208185
  30.0111432  69.6151398  19.8359254  32.2440713  69.5629171  24.3573790
  31.8798920  69.0359792  25.0686712  33.1007829  69.1727640  24.1840276
  38.1490014  60.8523504  31.6205056  37.8173338  61.7218915  31.3966271
  37.5535627  60.5359788  32.2999087  31.8846200  64.5919071  19.3535139
  32.0520602  65.4599307  19.7205610  31.6943369  64.7546353  18.4296428
  34.6421533  73.0536050  31.0200969  34.3422256  73.9561089  30.9116776
  34.2972593  72.7868233  31.8722122  28.0934015  69.5049847  27.0537673
  27.1684511  69.3726061  27.2615365  28.3418428  70.2844066  27.5507616
  38.0418677  65.5718590  28.6998406  37.1335554  65.5033999  28.4057167
  37.9906273  66.0490535  29.5280232  31.8635421  67.0476729  20.3381805
  31.7435046  67.4933779  21.1767286  31.1688009  67.3962046  19.7795344
  25.4542826  69.1483120  27.8881462  25.5835207  69.4017599  28.8020874
  24.7740277  69.7410828  27.5686118  29.6242313  79.8180370  23.9871937
  29.5466343  80.7688195  24.0660417  29.0203957  79.4726243  24.6446863
  32.1159543  66.9908236  36.6433304  31.3392877  67.5502156  36.6336168
  32.7550106  67.4765019  37.1648174  39.9080323  63.7735029  30.4776280
  39.2654704  64.0667562  29.8316075  39.4035252  63.6587949  31.2829477
  37.5620487  67.5198202  21.1662139  38.4738343  67.7525588  20.9909837
  37.0530134  68.1035246  20.6037218  30.3705915  69.7993689  36.2051271
  31.1120599  70.3378733  35.9286094  29.6642901  70.4259978  36.3622822
  35.8461255  71.9422830  34.8023432  36.2544611  71.5005240  34.0578064
  35.1238516  71.3675457  35.0557625  32.1992325  66.8795436  32.1756989
  33.0453520  67.3034850  32.3191638  32.1390962  66.2229061  32.8695552
  36.1690069  72.5024020  28.5575721  35.5398932  72.6669734  27.8551789
  35.7815731  72.9165630  29.3286685  40.0479301  73.4378458  25.9120085
  39.3630339  73.8177359  25.3617118  40.1323151  74.0473785  26.6452032
  35.3491770  64.5399805  33.8338163  35.1052702  65.2941865  33.2972438
  35.6251701  64.9185152  34.6685410  37.3030233  71.0838417  32.5115428
  37.5147128  71.7270177  31.8349809  37.2559981  70.2500734  32.0437358
  34.9056462  63.6956238  29.4152000  34.0440941  63.9937491  29.7068738
  34.9318897  63.9126637  28.4833033  31.7218031  72.2398428  25.8225806
  32.1856377  72.5186131  25.0330429  31.4574829  71.3381873  25.6398897
  28.6142112  71.7869910  28.7605569  29.1843469  72.2157178  28.1223054
  29.2050224  71.5052495  29.4589755  30.6586917  68.3621581  22.6315371
  31.3610961  68.8142624  23.0989298  30.3267546  67.7205400  23.2595264
  29.1067279  66.9533337  37.0066581  28.4765939  67.6349618  37.2401977
  29.0003367  66.8416419  36.0619719  24.4012251  66.6205133  27.9332505
  23.6111305  66.8762662  27.4572615  24.8923499  67.4353471  28.0384545
  38.4176061  73.9610372  30.6837786  39.2393505  73.5590560  30.4020467
  38.4138464  73.8578607  31.6353901  26.3526997  66.9849713  24.8915981
  25.5558160  67.0968407  25.4099477  26.1252589  67.3236365  24.0256872
  32.1832664  73.5094416  32.8398496  32.2477097  73.9714823  33.6756668
  31.4743588  72.8791781  32.9680806  22.6849954  66.8735624  30.3647496
  22.9357993  67.7582634  30.6305071  23.2209503  66.6940225  29.5922587
  46.5082054  70.3049121  27.0322757  45.7545762  69.7356519  26.8766761
  46.6429595  70.2711785  27.9793392  31.8980682  75.1762523  22.7077476
  31.7626357  76.0214059  23.1362324  32.4390494  75.3781801  21.9443410
  28.3848022  61.2554103  39.3691832  27.9914967  60.7020302  40.0439476
  29.2014162  61.5664682  39.7598349  25.3510079  72.6937961  23.2805401
  25.8634600  73.4881212  23.4310966  26.0032792  71.9964252  23.2139003
  27.1604964  75.8103718  25.3628155  27.3371592  76.7321682  25.1749139
  27.9561798  75.4962137  25.7922534  31.3015983  62.6711982  36.9612088
  32.0425696  63.2719135  36.8816551  31.5333905  61.9289620  36.4030131
  26.4457321  67.8568349  35.2390318  26.3310836  66.9553607  35.5397417
  25.5901838  68.1032046  34.8875134  33.5249158  75.7986090  36.8377818
  33.0813013  75.0122468  36.5198723  34.1866372  75.9865240  36.1721709
  28.2836280  77.3281891  31.3638497  28.8343705  77.1998955  30.5915491
  27.4447755  77.6276780  31.0133390  35.6230396  76.0788890  34.8659220
  35.6048872  76.8997771  34.3739489  36.5450316  75.9542965  35.0909361
  32.0803451  73.5933019  35.7082728  32.6131787  72.8321307  35.4782036
  31.5517532  73.3006671  36.4506883  35.2473146  58.6993085  31.2376370
  34.9037415  59.5894727  31.1615480  35.6152108  58.5094743  30.3745955
  23.3158996  71.0226616  24.0564972  24.1534218  71.4323624  23.8398680
  23.4937264  70.0826058  24.0265166  35.2123428  68.6901696  19.7448805
  34.6970052  69.4606301  19.9837192  34.9400737  68.0166832  20.3681866
  32.7970539  63.5351397  24.8034043  31.9412136  63.1458247  24.6239682
  33.2097491  63.6143358  23.9433829  34.3269686  61.0697740  29.2025603
  33.8234481  61.0327875  28.3893408  34.6200293  61.9790483  29.2622260
  30.5712572  61.1536470  28.2091785  31.4365569  60.9579279  27.8497674
  30.6390081  60.9246822  29.1361142  40.1857702  71.4434051  21.6801978
  39.4087145  71.1045210  21.2357141  40.8649183  71.4486674  21.0056943
  35.0009731  66.5628788  21.5708586  34.6959867  66.8774938  22.4218729
  35.9540174  66.6410208  21.6135919  33.4456163  72.7219012  23.2201540
  32.9177525  71.9871771  22.9074778  32.9443666  73.4993688  22.9741508
  38.4249009  70.9168032  28.3368586  37.7672684  71.6067294  28.4248715
  39.2289408  71.3064464  28.6802573  28.1774891  63.3838678  25.5808152
  28.7518643  63.1613859  24.8481345  28.7645873  63.4527372  26.3336753
  37.2354468  69.2712405  26.3872528  37.7486350  69.9042397  26.8894238
  37.8855692  68.6713600  26.0215888  28.5044478  65.4143139  19.6004037
  27.6681790  65.7517826  19.9213312  28.3649248  65.2792119  18.6631174
  30.4797559  60.2579927  24.3083221  29.8261971  59.9428944  23.6839836
  30.4378033  59.6355667  25.0343044  31.5908763  70.5399222  16.2236513
  30.6835825  70.3088475  16.4227662  32.0879795  69.7436841  16.4110495
  34.4976842  79.2496729  19.1433199  33.8238541  79.5528426  19.7518157
  34.8842664  80.0525809  18.7938656  33.7135299  66.7461860  28.6330869
  32.7957860  66.9676807  28.4752557  34.1295443  66.8208171  27.7742576
  34.4970347  68.1453276  23.7633549  35.2442166  68.6574673  23.4540671
  34.7661936  67.8237329  24.6237943  32.7696997  70.6411817  20.7460503
  31.8608216  70.3570850  20.8432973  32.7992081  71.0610895  19.8863810
  38.0016264  74.2518406  24.5151671  37.5478591  73.4109316  24.5716861
  37.3710231  74.8879805  24.8526451  36.9449184  65.1810392  25.7452338
  36.2071941  64.6687779  26.0762581  37.1975957  64.7410774  24.9335615
  36.4449204  76.0894903  25.4501489  36.7372178  76.6499960  24.7313855
  36.9547824  76.3823464  26.2054648  37.0460811  57.9586644  26.3394108
  37.3519688  57.0984008  26.0520023  37.7713416  58.5504265  26.1393101
  23.3385167  68.3617331  24.7275705  23.1409567  67.7686692  24.0026772
  22.7831831  68.0569541  25.4451644  31.3181891  68.2540437  26.8470299
  31.3730501  67.3014274  26.7712775  30.5073093  68.4099877  27.3311597
  32.4673085  72.1820560  18.0848582  32.0292515  71.4656419  17.6254219
  33.2083526  72.4096675  17.5233673  29.2574251  66.8717497  24.6060677
  28.4442116  67.1711668  25.0125870  29.7533245  66.4773186  25.3235160
  31.4082829  76.8675254  26.5394942  31.3659008  77.0936100  25.6103474
  32.3245528  76.6338629  26.6880743  34.8548463  67.3359322  33.4375571
  35.2097850  67.5630795  34.2970037  35.5020594  67.6677698  32.8152827
  40.5846199  70.4577758  24.1424900  40.4464098  70.6479353  23.2146090
  40.2282418  71.2197140  24.5992952  28.7488326  64.4435853  30.2221912
  29.3887705  64.3024612  29.5244876  27.9165856  64.1570366  29.8460514
  40.6115579  72.5254285  29.1536172  41.0452086  72.4329574  30.0019226
  41.3247160  72.5011785  28.5156188  29.5248629  73.7438283  26.3356905
  30.3189228  73.2488603  26.1339480  28.8140322  73.2156146  25.9724610
  34.3443474  76.1256379  30.6869273  34.3980496  76.6947315  31.4546988
  33.4758255  76.2958264  30.3223310  25.8331393  67.8881365  22.4116658
  24.9028981  67.8265820  22.6286620  25.9288865  67.3657318  21.6153299
  25.7516942  64.4136178  24.9994899  26.0123759  65.3281511  24.8904060
  26.5734114  63.9460620  25.1491512  27.2241867  65.8273935  32.1693724
  27.8964921  65.6191297  31.5206373  26.3971654  65.6296021  31.7298956
  41.4731129  72.5677985  31.6869057  41.6667019  73.4723796  31.9328332
  41.3731747  72.1085404  32.5207642  33.1267439  62.4535876  34.1859385
  32.4795354  63.1525825  34.0923861  33.8968455  62.8872020  34.5535633
  36.5346237  72.7184728  37.2609938  36.3831744  72.4895280  36.3440022
  36.5250917  73.6755329  37.2741283  33.3031574  70.2916641  32.2456204
  34.2323634  70.4427800  32.0725172  32.8822604  70.3800661  31.3904851
  32.1019905  74.3167305  30.0154742  31.9630991  73.9486089  30.8880680
  31.3134502  74.8314945  29.8438700  32.6968057  79.4176402  21.3580279
  32.8719813  78.9464445  22.1725901  32.0100845  80.0442168  21.5861539
  33.6525121  73.6948908  27.4043580  33.3174953  73.6549678  28.3001230
  33.1529066  73.0293624  26.9313990  27.6269365  69.1016538  32.9296161
  27.4889163  68.3696777  33.5307700  28.5374288  69.0125438  32.6480349
  36.5884312  71.0404942  17.6780639  35.9713483  70.3151770  17.5813692
  36.1200801  71.8014302  17.3347714  30.2551665  68.8136497  32.4179841
  30.9651284  68.1729689  32.3766459  30.2120973  69.0649392  33.3406021
  38.2438444  75.7503850  35.3386420  38.1850990  75.0663071  34.6717003
  38.6457962  76.4922840  34.8867046  28.9680599  65.8001715  34.2375480
  28.4317956  65.3492453  34.8897076  28.3797308  65.9347624  33.4945944
  27.2629143  82.5665764  28.1320139  27.5025741  83.1984288  28.8099157
  26.4198339  82.2153804  28.4185498  28.3782858  65.2590366  16.8001944
  27.5012325  65.1379167  16.4364190  28.8540611  64.4676445  16.5480832
  38.2455851  73.7143434  33.5700399  37.3582630  73.3769356  33.6926798
  38.8154402  72.9826466  33.8069165  19.8984998  70.0467526  26.8943451
  20.5856038  69.7329256  26.3064466  19.7433127  70.9508891  26.6210702
  24.7019720  64.9357723  31.3228475  24.6177909  64.3283392  30.5878884
  23.8802427  65.4266741  31.3237971  31.7757005  78.3744887  30.5361643
  31.7027176  79.1799858  31.0480947  31.3334398  78.5736853  29.7109664
  31.5646784  77.6116657  24.0464464  30.7814306  78.1538337  24.1402689
  32.2639529  78.1290636  24.4458705  34.8743434  63.4211286  26.6898670
  35.3712134  62.6681249  26.3699740  34.1030416  63.4575603  26.1241879
  42.7273192  69.1251652  28.3316961  42.7163068  70.0076367  27.9610894
  41.8590571  68.7723203  28.1371498  34.2355688  78.2731721  32.6919801
  34.9483660  78.9079186  32.6195703  33.7445717  78.3695587  31.8759803
  35.9573215  72.1782973  24.2637093  35.0229494  72.2984436  24.0941797
  36.1349884  71.2755440  23.9997103  31.4578403  65.5628669  26.4170354
  31.0876191  65.0099710  27.1051260  31.9537496  64.9586803  25.8645354
  39.3445766  68.0200293  24.7987127  39.8106219  68.8528284  24.7247430
  39.7953267  67.5545274  25.5032386  29.2867602  76.0226164  33.5125372
  29.9877061  76.6562647  33.6654766  28.8162717  76.3640896  32.7521011
  37.4121998  74.3644114  21.7973279  37.6881841  74.2500709  22.7067153
  36.5426496  73.9661599  21.7585452  37.3162429  60.3880880  28.8378028
  36.4025509  60.6185107  29.0060235  37.7455531  60.4719324  29.6892061
  37.0868888  68.5770772  31.3377922  36.4340338  68.8246679  30.6830375
  37.4649268  67.7634910  31.0040400  34.0476062  78.6130465  25.4406093
  34.2298456  77.7952121  25.9033845  34.8709048  78.8298157  25.0030983
  34.3818227  77.5398650  22.7021141  34.9105993  77.0291105  22.0891303
  34.6446447  77.2241180  23.5666674  33.1356461  69.3190583  37.8243960
  32.4597098  69.2184712  38.4946335  33.9584095  69.1629797  38.2879957
  24.8835320  75.5562519  30.4456475  25.4688757  74.8106207  30.5784379
  24.6860158  75.8666476  31.3293139  27.7373975  78.5913767  25.4618917
  27.0684350  79.0759894  24.9782957  27.5986845  78.8382987  26.3762296
  19.4752974  68.1268120  29.1660918  19.5137074  67.5931710  29.9598036
  18.9693267  67.6003325  28.5471895  31.8779244  80.6257510  32.0601576
  32.4297552  80.7889132  32.8250661  32.2185437  81.2161948  31.3881600
  26.8543737  62.9732660  32.6623460  26.9185063  63.8347491  32.2500858
  26.7910857  62.3606662  31.9295819  26.3296009  65.0455793  36.3096495
  26.9568048  64.6632870  36.9234019  25.4723928  64.8269994  36.6752187
  36.7290118  75.4518768  37.9150230  37.2730022  76.0648726  37.4205185
  36.1476963  76.0098346  38.4317243  23.1061552  66.8532222  22.2414849
  23.4014993  65.9442900  22.1881903  22.2049588  66.8319961  21.9195852
  35.0147631  78.5739486  29.0465258  34.8898770  77.7729226  28.5376203
  35.6726722  79.0685679  28.5579228  26.6355799  64.9288218  28.2242398
  25.9142385  65.5424186  28.0849871  27.4249055  65.4645983  28.1459044
  37.0782539  76.3748506  30.6744808  36.1312875  76.2553857  30.6023135
  37.4265312  75.4871004  30.7571069  29.4382113  62.2642645  34.4983050
  29.9616514  62.5104941  35.2609359  29.2194446  63.0962680  34.0786187
  24.8349394  64.5346319  22.3654175  24.5062100  63.6543698  22.1829280
  25.1888764  64.4793988  23.2530564  34.0828973  76.1701222  26.8749160
  33.9353935  75.2417929  27.0556730  34.9082466  76.1921313  26.3906235
  27.9491217  64.8219289  22.7329652  28.2887289  65.3505210  22.0108261
  28.3963337  65.1599695  23.5088219  37.6863094  76.9929781  27.9614033
  38.6109642  76.7872642  27.8238484  37.5178398  76.7446182  28.8703374
  30.6434658  63.2056340  32.1832720  30.3031478  62.4064153  32.5853400
  29.9373664  63.5058051  31.6109553  31.2951129  60.2905652  30.6360043
  32.1177199  59.8166130  30.5138934  31.5389193  61.0696136  31.1358730
  29.9359364  63.3193911  20.9322945  30.6567726  63.6975164  20.4286662
  29.3124668  64.0382788  21.0357923  34.0790487  64.0239060  21.8681277
  34.2954101  64.9063698  21.5670105  33.5984554  63.6325273  21.1386919
  28.8189708  66.9824773  28.4452022  28.6734289  67.2965076  29.3376303
  28.3414912  67.6009673  27.8922921  30.6786091  63.9727321  28.4932911
  30.6647660  63.0768414  28.1565209  31.3958519  63.9797985  29.1271197
  32.5312222  64.4064661  30.5386039  32.2730000  65.3281732  30.5370369
  31.9997262  64.0095096  31.2286503  37.4758411  77.5115448  23.3176124
  37.6495288  76.9461871  22.5649977  37.9687302  78.3116343  23.1355614
  23.2935370  69.5230117  31.3839683  22.7488838  70.2989925  31.5159957
  24.1714720  69.8700922  31.2258804  30.0822987  62.8541701  23.7620482
  30.2038898  61.9258347  23.9611369  29.7925029  62.8680387  22.8498797
  32.9514177  60.5396612  26.8987201  32.9735874  60.6035945  25.9439181
  33.3682236  59.7001120  27.0927708  43.3297802  70.2751871  24.9366424
  43.7728948  69.5259196  24.5385547  42.4524312  70.2662008  24.5540156
  38.4633583  76.8282213  20.4173023  39.1584488  77.4488905  20.6360337
  38.8056733  75.9777564  20.6925400  24.0801392  68.6500014  34.2769840
  23.3383128  68.7982649  34.8634470  23.7594136  68.9108279  33.4136589
  40.3625006  74.2781918  21.9460353  40.8876330  74.6169191  21.2209673
  40.2747359  73.3428933  21.7623488  32.0245055  78.1915992  34.0750230
  32.3332181  77.9465139  34.9472930  32.8220537  78.3962630  33.5869100
  32.0465667  80.3453901  26.3055606  31.6070657  79.8530280  26.9988463
  32.7973784  79.8026869  26.0647682  24.5258006  76.5365442  26.3080235
  25.3516026  76.2369214  25.9278878  24.1752058  75.7673065  26.7570023
  29.4939539  75.8891911  28.3777908  28.8719548  75.2262616  28.0780136
  30.1644406  75.9153042  27.6951556  22.7266611  74.4551769  27.2669168
  21.8898519  74.0273943  27.0853169  22.6990256  74.6484212  28.2039959
  29.5664067  64.3673699  37.9710414  29.6152222  65.2435821  37.5888184
  30.1086581  63.8251092  37.3982057  40.0518912  74.9114822  37.2511551
  39.2614456  74.8938961  36.7116051  39.8152267  75.4503115  38.0060588
  40.1716787  71.7607288  34.5644280  40.2214792  71.5957296  35.5059803
  40.0630711  70.8934547  34.1742161  29.0553046  74.4395834  21.8536369
  29.2041166  75.1231298  21.2003041  29.8619489  74.4200924  22.3685824
  37.4620550  67.7438216  35.8803587  38.3630412  67.6044681  35.5887584
  37.5368524  67.9092671  36.8201764  31.7963355  65.1205071  34.7256773
  30.9266664  65.4138637  34.4539361  32.0322835  65.7045516  35.4464036
  41.6734984  74.1804230  34.8086301  41.3819792  74.5434210  35.6449762
  41.0607115  73.4671238  34.6299633  42.8730666  71.7457109  27.3288872
  43.7077558  72.1846914  27.4926432  43.0089795  71.2695763  26.5097117
  39.9222172  69.3036844  33.2766359  40.3976294  69.4964491  32.4685211
  38.9987738  69.3596030  33.0309743  26.8105679  70.4661011  22.8597438
  26.5651721  69.5623341  23.0577648  26.9801593  70.4678162  21.9176916
  34.5002389  61.3384688  32.2422193  35.0184333  62.0745715  31.9168682
  34.1457522  61.6448681  33.0768952  26.0801326  66.1989369  20.3583599
  25.3870571  66.2733724  19.7023635  25.8353078  65.4349713  20.8805116
  34.7514983  57.7584970  27.7623090  35.0316737  57.0908159  28.3883516
  35.5365590  57.9514066  27.2497754  32.5548451  76.9343964  19.3248116
  31.9822419  77.5534151  18.8718588  33.1281245  77.4843326  19.8588038
  38.6223841  66.1802604  31.5094665  39.5741264  66.2800702  31.5306889
  38.4527292  65.3880873  32.0192749  36.6438221  63.2658188  31.6954066
  36.0488153  63.5463200  31.0000554  36.3587918  63.7552089  32.4670807
  35.7745711  77.2181114  20.4556698  36.7076384  77.1526676  20.6589574
  35.6868924  78.0537381  19.9971231  38.4033728  76.5346985  17.4160646
  38.3247359  76.2006848  18.3096404  39.2243395  77.0268753  17.4152118
  41.1011919  69.4008724  30.6236965  41.0688239  68.4624725  30.8096648
  41.7112543  69.4792761  29.8902789  32.9395250  68.2704777  16.6664169
  33.8854355  68.1410985  16.7352587  32.5609495  67.5319439  17.1433597
  41.2506408  66.1919768  30.6695248  40.7345456  65.4078224  30.4825177
  42.1346356  65.8638484  30.8341767  38.9117135  59.9360783  26.6291060
  38.7141956  59.6275871  27.5134392  39.5216840  60.6622422  26.7588990
  46.9188469  70.4624731  29.7643001  47.6491857  70.2010019  30.3250705
  46.3095414  69.7253453  29.8045069  45.0003766  68.6032594  30.3617453
  44.2736930  68.4688558  29.7533944  44.5851053  68.9109422  31.1674171
  32.8233943  72.3222523  38.1264826  33.7436952  72.5001122  38.3204872
  32.7883526  71.3778569  37.9744525  31.1238167  66.1954753  16.6019054
  30.2169623  65.8987866  16.6781767  31.4014148  65.8984572  15.7353340
  22.0416108  67.5161117  27.0518100  21.7218892  66.6626425  26.7592474
  21.4949536  67.7309695  27.8076068  25.8196015  70.2323558  30.7687607
  26.0382025  71.1640666  30.7875641  26.2321789  69.8731532  31.5542411
  32.7400233  60.7391643  22.7563295  31.9300961  60.3938728  23.1318541
  33.4284650  60.4299187  23.3450907  34.6690781  59.8169690  24.3787592
  35.2221820  60.2365143  25.0377615  34.9060868  58.8905438  24.4210548
  30.6923880  65.8056764  40.1590356  30.5920607  66.7551121  40.0902447
  30.4745422  65.4775003  39.2866426  29.8936952  63.0541689  16.7431033
  30.7556116  63.3796587  17.0026850  30.0787296  62.2673185  16.2304099
  21.9104368  71.1364028  29.0211222  21.2167839  70.7217981  28.5081176
  22.6577359  71.1784565  28.4244641  38.0469588  61.9270215  23.8866256
  37.4668257  62.5855019  23.5044308  37.7805521  61.1047560  23.4753674
  36.4973155  61.3275273  26.0887576  36.9972933  61.4391807  25.2801895
  37.1408763  61.0236326  26.7288385  30.5555150  69.2353902  38.9755417
  30.0722232  70.0354263  39.1819306  30.6416089  69.2461847  38.0222861
  23.8241110  71.0682282  26.8977237  23.8011798  71.1669969  25.9459120
  24.1341747  71.9147433  27.2194403  26.4828488  73.1258437  31.0123851
  27.4371741  73.0942379  30.9453783  26.2841012  72.6649061  31.8274077
  27.0727870  71.6959553  33.5794649  27.8920759  72.1903632  33.6029486
  27.3464678  70.7791521  33.5512216  36.8294466  64.0870306  22.9422604
  35.9420321  64.3719956  22.7242799  37.2448455  63.9264069  22.0949881
  40.1809002  64.1116826  26.6576944  40.9569393  64.6013279  26.9301560
  39.4557137  64.5374881  27.1148813  42.6181561  64.8244446  27.7150884
  43.2126052  64.5840182  27.0044192  42.6908145  64.1051576  28.3424420
  24.8378717  78.6678057  28.0294049  24.7033185  77.9078458  27.4632047
  24.4210779  79.3918957  27.5622838  35.9737680  73.8514980  17.0370624
  36.6773530  74.0564983  17.6528280  35.2500328  74.4191742  17.3019708
  36.8035490  69.6024841  23.1572894  36.7470691  70.0593393  22.3180527
  37.3563832  68.8415526  22.9795737  40.6140296  65.3914573  23.9823014
  40.3577230  64.9911209  24.8131222  39.9893164  66.1058367  23.8573153
  44.9252634  68.1310647  26.4894305  44.3652192  68.2003836  27.2625867
  44.3196137  67.9551631  25.7693802  27.9947843  79.5647374  28.2412492
  27.8780227  80.5092806  28.1391182  27.1740289  79.2620935  28.6298291
  37.8824377  74.2897509  19.0869084  38.7169981  73.8578708  18.9046559
  37.7208720  74.1179523  20.0145979  37.5370269  70.7929623  20.4525424
  37.4819073  70.6273894  19.5113868  36.9116325  71.5005656  20.6087613
  22.3262784  66.0297687  34.2786846  22.9721648  65.5196641  34.7674071
  22.1179935  66.7666369  34.8530271  34.8516176  73.0978535  39.7778986
  35.7207336  73.2719187  39.4165621  34.3722928  73.9172951  39.6554716
  30.8466395  60.2937732  20.0310742  30.8345065  61.2379572  20.1879013
  31.7389817  60.1107877  19.7370203  29.0202357  80.2175636  31.4568420
  29.9229603  80.2499246  31.7734915  28.7939727  79.2876087  31.4714756
  30.7755959  78.9706622  28.1178499  29.8251590  78.9708484  28.0042871
  31.0788445  78.2239357  27.6014533  34.6618514  56.8880508  24.2856679
  33.8950910  56.3338995  24.4313361  35.0729219  56.9602377  25.1470830
  26.6660275  63.1765304  38.3761860  27.5291737  62.8202109  38.5865185
  26.0925686  62.8379199  39.0637264  46.5108652  84.8067161  29.1824261
  47.1487062  84.6873908  28.4787601  46.3929495  85.7548004  29.2412213
  43.3198359  84.7594589  29.1185786  42.9816870  84.6435653  28.2306321
  44.1888127  84.3585754  29.0986792  39.1785174  86.6130065  25.1082677
  38.6150039  86.5220002  24.3398964  39.0637569  85.7929969  25.5885169
  43.8018142  85.9129440  35.0771991  43.7906782  85.5182239  34.2052495
  43.9638781  85.1795513  35.6705763  36.7249606  88.1081257  27.9466897
  37.5170898  87.7672081  27.5313196  36.9646256  88.2176232  28.8669051
  44.7584733  90.2801033  20.4197142  44.1072713  90.8655113  20.0331155
  45.5529096  90.8107228  20.4792179  38.6840360  87.3690170  20.8184276
  39.4571236  86.8219157  20.6797152  39.0365759  88.2334419  21.0298737
  40.5225403  88.6966552  34.0251175  40.2315269  89.6012183  33.9097842
  41.1582387  88.7383080  34.7395245  41.4481609  86.0743401  30.6152535
  42.0445182  85.8499423  29.9009498  41.5056581  85.3328146  31.2177983
  41.0206638  83.5282836  18.4502726  41.2732159  83.0064357  17.6886189
  40.0831197  83.3648981  18.5529410  46.0649921  82.5318614  26.2577469
  46.8513010  82.1138038  25.9067886  46.3288625  83.4364707  26.4259118
  46.2359998  87.9691465  20.9566126  45.6005831  88.0426091  21.6687031
  45.9057404  88.5585063  20.2785205  51.4658348  82.4693848  27.1610448
  52.1983520  81.8993064  27.3948277  50.7097704  82.0815448  27.6016953
  40.7402927  85.4310942  20.6527101  40.6239185  84.7555845  21.3208185
  40.8505187  84.9443316  19.8359254  43.0834468  84.8921089  24.3573790
  42.7192675  84.3651710  25.0686712  43.9401583  84.5019558  24.1840276
  48.9883768  76.1815422  31.6205056  48.6567093  77.0510833  31.3966271
  48.3929382  75.8651706  32.2999087  42.7239955  79.9210989  19.3535139
  42.8914357  80.7891225  19.7205610  42.5337124  80.0838270  18.4296428
  45.4815288  88.3827968  31.0200969  45.1816011  89.2853006  30.9116776
  45.1366347  88.1160151  31.8722122  38.9327769  84.8341764  27.0537673
  38.0078266  84.7017979  27.2615365  39.1812182  85.6135984  27.5507616
  48.8812432  80.9010508  28.6998406  47.9729309  80.8325916  28.4057167
  48.8300027  81.3782453  29.5280232  42.7029175  82.3768646  20.3381805
  42.5828801  82.8225697  21.1767286  42.0081764  82.7253964  19.7795344
  36.2936580  84.4775038  27.8881462  36.4228961  84.7309517  28.8020874
  35.6134032  85.0702746  27.5686118  40.4636068  95.1472288  23.9871937
  40.3860097  96.0980113  24.0660417  39.8597711  94.8018160  24.6446863
  42.9553297  82.3200153  36.6433304  42.1786631  82.8794074  36.6336168
  43.5943860  82.8056936  37.1648174  50.7474078  79.1026946  30.4776280
  50.1048458  79.3959479  29.8316075  50.2429006  78.9879867  31.2829477
  48.4014242  82.8490119  21.1662139  49.3132098  83.0817506  20.9909837
  47.8923889  83.4327164  20.6037218  41.2099670  85.1285607  36.2051271
  41.9514354  85.6670651  35.9286094  40.5036655  85.7551896  36.3622822
  46.6855009  87.2714747  34.8023432  47.0938365  86.8297158  34.0578064
  45.9632271  86.6967375  35.0557625  43.0386079  82.2087354  32.1756989
  43.8847274  82.6326768  32.3191638  42.9784717  81.5520978  32.8695552
  47.0083824  87.8315938  28.5575721  46.3792686  87.9961652  27.8551789
  46.6209486  88.2457547  29.3286685  50.8873056  88.7670376  25.9120085
  50.2024094  89.1469277  25.3617118  50.9716905  89.3765702  26.6452032
  46.1885525  79.8691722  33.8338163  45.9446456  80.6233783  33.2972438
  46.4645455  80.2477070  34.6685410  48.1423987  86.4130335  32.5115428
  48.3540883  87.0562095  31.8349809  48.0953736  85.5792651  32.0437358
  45.7450216  79.0248155  29.4152000  44.8834695  79.3229409  29.7068738
  45.7712651  79.2418554  28.4833033  42.5611786  87.5690346  25.8225806
  43.0250131  87.8478049  25.0330429  42.2968584  86.6673791  25.6398897
  39.4535867  87.1161828  28.7605569  40.0237224  87.5449096  28.1223054
  40.0443979  86.8344412  29.4589755  41.4980672  83.6913498  22.6315371
  42.2004715  84.1434542  23.0989298  41.1661300  83.0497317  23.2595264
  39.9461033  82.2825255  37.0066581  39.3159694  82.9641536  37.2401977
  39.8397121  82.1708337  36.0619719  35.2406006  81.9497051  27.9332505
  34.4505060  82.2054580  27.4572615  35.7317253  82.7645389  28.0384545
  49.2569815  89.2902290  30.6837786  50.0787259  88.8882477  30.4020467
  49.2532218  89.1870524  31.6353901  37.1920751  82.3141630  24.8915981
  36.3951914  82.4260324  25.4099477  36.9646343  82.6528282  24.0256872
  43.0226419  88.8386333  32.8398496  43.0870851  89.3006741  33.6756668
  42.3137343  88.2083698  32.9680806  33.5243709  82.2027541  30.3647496
  33.7751747  83.0874551  30.6305071  34.0603257  82.0232143  29.5922587
  57.3475808  85.6341039  27.0322757  56.5939517  85.0648437  26.8766761
  57.4823350  85.6003703  27.9793392  42.7374436  90.5054441  22.7077476
  42.6020111  91.3505977  23.1362324  43.2784249  90.7073719  21.9443410
  39.2241776  76.5846021  39.3691832  38.8308722  76.0312219  40.0439476
  40.0407916  76.8956599  39.7598349  36.1903834  88.0229879  23.2805401
  36.7028354  88.8173129  23.4310966  36.8426547  87.3256169  23.2139003
  37.9998719  91.1395635  25.3628155  38.1765347  92.0613600  25.1749139
  38.7955552  90.8254054  25.7922534  42.1409737  78.0003900  36.9612088
  42.8819450  78.6011053  36.8816551  42.3727660  77.2581538  36.4030131
  37.2851075  83.1860267  35.2390318  37.1704590  82.2845524  35.5397417
  36.4295593  83.4323964  34.8875134  44.3642913  91.1278007  36.8377818
  43.9206767  90.3414386  36.5198723  45.0260126  91.3157158  36.1721709
  39.1230034  92.6573809  31.3638497  39.6737459  92.5290872  30.5915491
  38.2841510  92.9568698  31.0133390  46.4624151  91.4080807  34.8659220
  46.4442626  92.2289688  34.3739489  47.3844071  91.2834883  35.0909361
  42.9197205  88.9224937  35.7082728  43.4525542  88.1613225  35.4782036
  42.3911286  88.6298589  36.4506883  46.0866900  74.0285003  31.2376370
  45.7431169  74.9186645  31.1615480  46.4545863  73.8386660  30.3745955
  34.1552751  86.3518533  24.0564972  34.9927973  86.7615542  23.8398680
  34.3331018  85.4117975  24.0265166  46.0517183  84.0193614  19.7448805
  45.5363806  84.7898219  19.9837192  45.7794491  83.3458750  20.3681866
  43.6364294  78.8643315  24.8034043  42.7805890  78.4750165  24.6239682
  44.0491246  78.9435276  23.9433829  45.1663440  76.3989658  29.2025603
  44.6628236  76.3619793  28.3893408  45.4594047  77.3082401  29.2622260
  41.4106326  76.4828388  28.2091785  42.2759323  76.2871196  27.8497674
  41.4783835  76.2538739  29.1361142  51.0251457  86.7725969  21.6801978
  50.2480900  86.4337128  21.2357141  51.7042938  86.7778592  21.0056943
  45.8403486  81.8920706  21.5708586  45.5353621  82.2066855  22.4218729
  46.7933928  81.9702126  21.6135919  44.2849918  88.0510929  23.2201540
  43.7571279  87.3163689  22.9074778  43.7837420  88.8285606  22.9741508
  49.2642764  86.2459950  28.3368586  48.6066438  86.9359211  28.4248715
  50.0683163  86.6356382  28.6802573  39.0168645  78.7130596  25.5808152
  39.5912397  78.4905777  24.8481345  39.6039628  78.7819290  26.3336753
  48.0748223  84.6004323  26.3872528  48.5880104  85.2334314  26.8894238
  48.7249446  84.0005518  26.0215888  39.3438232  80.7435057  19.6004037
  38.5075545  81.0809743  19.9213312  39.2043002  80.6084036  18.6631174
  41.3191313  75.5871845  24.3083221  40.6655725  75.2720862  23.6839836
  41.2771787  74.9647585  25.0343044  42.4302518  85.8691140  16.2236513
  41.5229580  85.6380393  16.4227662  42.9273550  85.0728759  16.4110495
  45.3370597  94.5788647  19.1433199  44.6632296  94.8820344  19.7518157
  45.7236419  95.3817727  18.7938656  44.5529053  82.0753778  28.6330869
  43.6351615  82.2968725  28.4752557  44.9689197  82.1500089  27.7742576
  45.3364101  83.4745194  23.7633549  46.0835920  83.9866591  23.4540671
  45.6055691  83.1529246  24.6237943  43.6090751  85.9703734  20.7460503
  42.7001971  85.6862767  20.8432973  43.6385835  86.3902813  19.8863810
  48.8410019  89.5810324  24.5151671  48.3872346  88.7401234  24.5716861
  48.2103985  90.2171722  24.8526451  47.7842938  80.5102310  25.7452338
  47.0465695  79.9979696  26.0762581  48.0369712  80.0702692  24.9335615
  47.2842958  91.4186821  25.4501489  47.5765932  91.9791878  24.7313855
  47.7941579  91.7115382  26.2054648  47.8854566  73.2878562  26.3394108
  48.1913442  72.4275925  26.0520023  48.6107170  73.8796182  26.1393101
  34.1778922  83.6909249  24.7275705  33.9803322  83.0978609  24.0026772
  33.6225586  83.3861459  25.4451644  42.1575645  83.5832355  26.8470299
  42.2124255  82.6306191  26.7712775  41.3466847  83.7391794  27.3311597
  43.3066839  87.5112478  18.0848582  42.8686269  86.7948337  17.6254219
  44.0477280  87.7388593  17.5233673  40.0968005  82.2009415  24.6060677
  39.2835871  82.5003585  25.0125870  40.5927000  81.8065104  25.3235160
  42.2476583  92.1967172  26.5394942  42.2052762  92.4228018  25.6103474
  43.1639282  91.9630546  26.6880743  45.6942217  82.6651239  33.4375571
  46.0491605  82.8922712  34.2970037  46.3414348  82.9969616  32.8152827
  51.4239954  85.7869675  24.1424900  51.2857853  85.9771271  23.2146090
  51.0676173  86.5489058  24.5992952  39.5882080  79.7727770  30.2221912
  40.2281459  79.6316529  29.5244876  38.7559611  79.4862284  29.8460514
  51.4509334  87.8546202  29.1536172  51.8845840  87.7621491  30.0019226
  52.1640914  87.8303703  28.5156188  40.3642384  89.0730201  26.3356905
  41.1582982  88.5780521  26.1339480  39.6534076  88.5448064  25.9724610
  45.1837228  91.4548296  30.6869273  45.2374251  92.0239233  31.4546988
  44.3152010  91.6250181  30.3223310  36.6725147  83.2173283  22.4116658
  35.7422736  83.1557738  22.6286620  36.7682619  82.6949235  21.6153299
  36.5910697  79.7428095  24.9994899  36.8517514  80.6573429  24.8904060
  37.4127869  79.2752538  25.1491512  38.0635622  81.1565853  32.1693724
  38.7358675  80.9483215  31.5206373  37.2365408  80.9587939  31.7298956
  52.3124883  87.8969903  31.6869057  52.5060773  88.8015713  31.9328332
  52.2125501  87.4377322  32.5207642  43.9661194  77.7827793  34.1859385
  43.3189109  78.4817743  34.0923861  44.7362209  78.2163937  34.5535633
  47.3739992  88.0476646  37.2609938  47.2225498  87.8187197  36.3440022
  47.3644671  89.0047247  37.2741283  44.1425328  85.6208558  32.2456204
  45.0717388  85.7719718  32.0725172  43.7216358  85.7092579  31.3904851
  42.9413660  89.6459223  30.0154742  42.8024746  89.2778007  30.8880680
  42.1528256  90.1606862  29.8438700  43.5361812  94.7468319  21.3580279
  43.7113568  94.2756362  22.1725901  42.8494600  95.3734085  21.5861539
  44.4918875  89.0240825  27.4043580  44.1568708  88.9841595  28.3001230
  43.9922821  88.3585541  26.9313990  38.4663119  84.4308455  32.9296161
  38.3282917  83.6988694  33.5307700  39.3768043  84.3417356  32.6480349
  47.4278067  86.3696860  17.6780639  46.8107237  85.6443688  17.5813692
  46.9594555  87.1306220  17.3347714  41.0945420  84.1428415  32.4179841
  41.8045038  83.5021607  32.3766459  41.0514728  84.3941310  33.3406021
  49.0832198  91.0795768  35.3386420  49.0244745  90.3954988  34.6717003
  49.4851717  91.8214758  34.8867046  39.8074354  81.1293633  34.2375480
  39.2711711  80.6784371  34.8897076  39.2191062  81.2639542  33.4945944
  38.1022897  97.8957682  28.1320139  38.3419495  98.5276206  28.8099157
  37.2592094  97.5445722  28.4185498  39.2176613  80.5882284  16.8001944
  38.3406079  80.4671085  16.4364190  39.6934366  79.7968362  16.5480832
  49.0849606  89.0435352  33.5700399  48.1976384  88.7061274  33.6926798
  49.6548157  88.3118383  33.8069165  30.7378753  85.3759444  26.8943451
  31.4249793  85.0621174  26.3064466  30.5826882  86.2800808  26.6210702
  35.5413475  80.2649640  31.3228475  35.4571664  79.6575310  30.5878884
  34.7196181  80.7558659  31.3237971  42.6150759  93.7036804  30.5361643
  42.5420931  94.5091776  31.0480947  42.1728152  93.9028770  29.7109664
  42.4040539  92.9408574  24.0464464  41.6208061  93.4830255  24.1402689
  43.1033284  93.4582554  24.4458705  45.7137189  78.7503204  26.6898670
  46.2105888  77.9973166  26.3699740  44.9424170  78.7867521  26.1241879
  53.5666946  84.4543569  28.3316961  53.5556822  85.3368285  27.9610894
  52.6984326  84.1015120  28.1371498  45.0749443  93.6023638  32.6919801
  45.7877415  94.2371103  32.6195703  44.5839471  93.6987504  31.8759803
  46.7966970  87.5074891  24.2637093  45.8623248  87.6276354  24.0941797
  46.9743638  86.6047358  23.9997103  42.2972158  80.8920587  26.4170354
  41.9269945  80.3391627  27.1051260  42.7931250  80.2878720  25.8645354
  50.1839521  83.3492210  24.7987127  50.6499973  84.1820202  24.7247430
  50.6347021  82.8837192  25.5032386  40.1261356  91.3518082  33.5125372
  40.8270816  91.9854565  33.6654766  39.6556471  91.6932813  32.7521011
  48.2515752  89.6936032  21.7973279  48.5275596  89.5792626  22.7067153
  47.3820251  89.2953517  21.7585452  48.1556184  75.7172797  28.8378028
  47.2419263  75.9477024  29.0060235  48.5849285  75.8011241  29.6892061
  47.9262642  83.9062689  31.3377922  47.2734092  84.1538597  30.6830375
  48.3043022  83.0926828  31.0040400  44.8869816  93.9422383  25.4406093
  45.0692211  93.1244038  25.9033845  45.7102802  94.1590075  25.0030983
  45.2211982  92.8690568  22.7021141  45.7499748  92.3583022  22.0891303
  45.4840201  92.5533098  23.5666674  43.9750215  84.6482500  37.8243960
  43.2990852  84.5476630  38.4946335  44.7977849  84.4921714  38.2879957
  35.7229074  90.8854437  30.4456475  36.3082511  90.1398125  30.5784379
  35.5253913  91.1958394  31.3293139  38.5767729  93.9205684  25.4618917
  37.9078105  94.4051812  24.9782957  38.4380599  94.1674905  26.3762296
  30.3146729  83.4560037  29.1660918  30.3530828  82.9223628  29.9598036
  29.8087022  82.9295243  28.5471895  42.7172998  95.9549428  32.0601576
  43.2691306  96.1181049  32.8250661  43.0579191  96.5453866  31.3881600
  37.6937491  78.3024578  32.6623460  37.7578818  79.1639409  32.2500858
  37.6304611  77.6898579  31.9295819  37.1689764  80.3747710  36.3096495
  37.7961803  79.9924788  36.9234019  36.3117683  80.1561912  36.6752187
  47.5683872  90.7810685  37.9150230  48.1123776  91.3940644  37.4205185
  46.9870717  91.3390264  38.4317243  33.9455307  82.1824139  22.2414849
  34.2408748  81.2734818  22.1881903  33.0443342  82.1611879  21.9195852
  45.8541385  93.9031403  29.0465258  45.7292525  93.1021143  28.5376203
  46.5120476  94.3977597  28.5579228  37.4749554  80.2580136  28.2242398
  36.7536139  80.8716104  28.0849871  38.2642809  80.7937901  28.1459044
  47.9176294  91.7040424  30.6744808  46.9706629  91.5845775  30.6023135
  48.2659067  90.8162922  30.7571069  40.2775867  77.5934562  34.4983050
  40.8010269  77.8396859  35.2609359  40.0588200  78.4254597  34.0786187
  35.6743148  79.8638237  22.3654175  35.3455854  78.9835616  22.1829280
  36.0282519  79.8085906  23.2530564  44.9222727  91.4993140  26.8749160
  44.7747689  90.5709847  27.0556730  45.7476220  91.5213230  26.3906235
  38.7884971  80.1511207  22.7329652  39.1281044  80.6797128  22.0108261
  39.2357092  80.4891613  23.5088219  48.5256849  92.3221698  27.9614033
  49.4503396  92.1164560  27.8238484  48.3572152  92.0738100  28.8703374
  41.4828412  78.5348258  32.1832720  41.1425232  77.7356071  32.5853400
  40.7767418  78.8349968  31.6109553  42.1344884  75.6197570  30.6360043
  42.9570953  75.1458048  30.5138934  42.3782947  76.3988054  31.1358730
  40.7753118  78.6485828  20.9322945  41.4961481  79.0267081  20.4286662
  40.1518423  79.3674705  21.0357923  44.9184241  79.3530977  21.8681277
  45.1347856  80.2355615  21.5670105  44.4378308  78.9617191  21.1386919
  39.6583463  82.3116691  28.4452022  39.5128043  82.6256994  29.3376303
  39.1808666  82.9301591  27.8922921  41.5179846  79.3019239  28.4932911
  41.5041414  78.4060332  28.1565209  42.2352274  79.3089902  29.1271197
  43.3705976  79.7356579  30.5386039  43.1123754  80.6573649  30.5370369
  42.8391017  79.3387013  31.2286503  48.3152165  92.8407366  23.3176124
  48.4889043  92.2753788  22.5649977  48.8081056  93.6408261  23.1355614
  34.1329125  84.8522035  31.3839683  33.5882593  85.6281843  31.5159957
  35.0108475  85.1992839  31.2258804  40.9216741  78.1833619  23.7620482
  41.0432653  77.2550265  23.9611369  40.6318784  78.1972305  22.8498797
  43.7907932  75.8688529  26.8987201  43.8129629  75.9327862  25.9439181
  44.2075991  75.0293038  27.0927708  54.1691556  85.6043789  24.9366424
  54.6122702  84.8551114  24.5385547  53.2918066  85.5953925  24.5540156
  49.3027338  92.1574130  20.4173023  49.9978242  92.7780823  20.6360337
  49.6450488  91.3069482  20.6925400  34.9195147  83.9791931  34.2769840
  34.1776883  84.1274567  34.8634470  34.5987891  84.2400197  33.4136589
  51.2018761  89.6073836  21.9460353  51.7270085  89.9461109  21.2209673
  51.1141113  88.6720851  21.7623488  42.8638809  93.5207909  34.0750230
  43.1725936  93.2757056  34.9472930  43.6614291  93.7254548  33.5869100
  42.8859421  95.6745819  26.3055606  42.4464412  95.1822198  26.9988463
  43.6367538  95.1318787  26.0647682  35.3651760  91.8657360  26.3080235
  36.1909780  91.5661132  25.9278878  35.0145812  91.0964982  26.7570023
  40.3333294  91.2183828  28.3777908  39.7113303  90.5554533  28.0780136
  41.0038160  91.2444960  27.6951556  33.5660365  89.7843686  27.2669168
  32.7292274  89.3565861  27.0853169  33.5384011  89.9776130  28.2039959
  40.4057821  79.6965616  37.9710414  40.4545977  80.5727739  37.5888184
  40.9480335  79.1543009  37.3982057  50.8912667  90.2406739  37.2511551
  50.1008210  90.2230878  36.7116051  50.6546021  90.7795033  38.0060588
  51.0110542  87.0899206  34.5644280  51.0608547  86.9249213  35.5059803
  50.9024465  86.2226465  34.1742161  39.8946800  89.7687752  21.8536369
  40.0434921  90.4523216  21.2003041  40.7013244  89.7492842  22.3685824
  48.3014304  83.0730134  35.8803587  49.2024167  82.9336599  35.5887584
  48.3762279  83.2384589  36.8201764  42.6357109  80.4496989  34.7256773
  41.7660419  80.7430555  34.4539361  42.8716590  81.0337434  35.4464036
  52.5128739  89.5096147  34.8086301  52.2213547  89.8726128  35.6449762
  51.9000870  88.7963156  34.6299633  53.7124421  87.0749027  27.3288872
  54.5471312  87.5138831  27.4926432  53.8483550  86.5987680  26.5097117
  50.7615927  84.6328762  33.2766359  51.2370048  84.8256408  32.4685211
  49.8381492  84.6887948  33.0309743  37.6499433  85.7952929  22.8597438
  37.4045475  84.8915259  23.0577648  37.8195348  85.7970080  21.9176916
  45.3396143  76.6676606  32.2422193  45.8578087  77.4037632  31.9168682
  44.9851276  76.9740599  33.0768952  36.9195081  81.5281287  20.3583599
  36.2264326  81.6025642  19.7023635  36.6746833  80.7641630  20.8805116
  45.5908737  73.0876888  27.7623090  45.8710491  72.4200077  28.3883516
  46.3759344  73.2805984  27.2497754  43.3942206  92.2635882  19.3248116
  42.8216173  92.8826069  18.8718588  43.9675000  92.8135244  19.8588038
  49.4617596  81.5094522  31.5094665  50.4135019  81.6092620  31.5306889
  49.2921046  80.7172791  32.0192749  47.4831975  78.5950105  31.6954066
  46.8881907  78.8755118  31.0000554  47.1981672  79.0844006  32.4670807
  46.6139466  92.5473032  20.4556698  47.5470139  92.4818594  20.6589574
  46.5262679  93.3829299  19.9971231  49.2427482  91.8638902  17.4160646
  49.1641114  91.5298766  18.3096404  50.0637149  92.3560670  17.4152118
  51.9405674  84.7300642  30.6236965  51.9081994  83.7916642  30.8096648
  52.5506297  84.8084678  29.8902789  43.7789004  83.5996695  16.6664169
  44.7248109  83.4702903  16.7352587  43.4003249  82.8611357  17.1433597
  52.0900162  81.5211685  30.6695248  51.5739211  80.7370142  30.4825177
  52.9740111  81.1930402  30.8341767  49.7510889  75.2652701  26.6291060
  49.5535710  74.9567789  27.5134392  50.3610595  75.9914340  26.7588990
  57.7582223  85.7916649  29.7643001  58.4885612  85.5301937  30.3250705
  57.1489169  85.0545371  29.8045069  55.8397521  83.9324511  30.3617453
  55.1130684  83.7980476  29.7533944  55.4244807  84.2401340  31.1674171
  43.6627697  87.6514441  38.1264826  44.5830706  87.8293040  38.3204872
  43.6277280  86.7070486  37.9744525  41.9631922  81.5246671  16.6019054
  41.0563377  81.2279784  16.6781767  42.2407903  81.2276489  15.7353340
  32.8809862  82.8453035  27.0518100  32.5612646  81.9918343  26.7592474
  32.3343290  83.0601613  27.8076068  36.6589770  85.5615476  30.7687607
  36.8775779  86.4932583  30.7875641  37.0715543  85.2023450  31.5542411
  43.5793987  76.0683561  22.7563295  42.7694716  75.7230646  23.1318541
  44.2678404  75.7591105  23.3450907  45.5084536  75.1461608  24.3787592
  46.0615574  75.5657061  25.0377615  45.7454622  74.2197356  24.4210548
  41.5317635  81.1348681  40.1590356  41.4314362  82.0843038  40.0902447
  41.3139177  80.8066920  39.2866426  40.7330706  78.3833606  16.7431033
  41.5949870  78.7088505  17.0026850  40.9181050  77.5965102  16.2304099
  32.7498122  86.4655946  29.0211222  32.0561593  86.0509899  28.5081176
  33.4971113  86.5076483  28.4244641  48.8863343  77.2562133  23.8866256
  48.3062012  77.9146937  23.5044308  48.6199275  76.4339477  23.4753674
  47.3366909  76.6567191  26.0887576  47.8366687  76.7683725  25.2801895
  47.9802517  76.3528243  26.7288385  41.3948905  84.5645820  38.9755417
  40.9115987  85.3646180  39.1819306  41.4809844  84.5753765  38.0222861
  34.6634865  86.3974200  26.8977237  34.6405553  86.4961887  25.9459120
  34.9735501  87.2439351  27.2194403  37.3222242  88.4550355  31.0123851
  38.2765496  88.4234297  30.9453783  37.1234766  87.9940979  31.8274077
  37.9121625  87.0251471  33.5794649  38.7314514  87.5195550  33.6029486
  38.1858432  86.1083439  33.5512216  47.6688221  79.4162223  22.9422604
  46.7814076  79.7011874  22.7242799  48.0842210  79.2555987  22.0949881
  51.0202757  79.4408744  26.6576944  51.7963147  79.9305197  26.9301560
  50.2950891  79.8666798  27.1148813  53.4575316  80.1536363  27.7150884
  54.0519806  79.9132099  27.0044192  53.5301899  79.4343494  28.3424420
  35.6772471  93.9969974  28.0294049  35.5426939  93.2370375  27.4632047
  35.2604533  94.7210874  27.5622838  46.8131434  89.1806898  17.0370624
  47.5167284  89.3856900  17.6528280  46.0894083  89.7483660  17.3019708
  47.6429244  84.9316759  23.1572894  47.5864446  85.3885311  22.3180527
  48.1957587  84.1707444  22.9795737  51.4534050  80.7206491  23.9823014
  51.1970985  80.3203127  24.8131222  50.8286918  81.4350285  23.8573153
  55.7646388  83.4602564  26.4894305  55.2045946  83.5295754  27.2625867
  55.1589892  83.2843549  25.7693802  38.8341597  94.8939291  28.2412492
  38.7173981  95.8384724  28.1391182  38.0134043  94.5912853  28.6298291
  48.7218132  89.6189427  19.0869084  49.5563736  89.1870626  18.9046559
  48.5602475  89.4471441  20.0145979  48.3764024  86.1221540  20.4525424
  48.3212828  85.9565812  19.5113868  47.7510079  86.8297573  20.6087613
  33.1656539  81.3589605  34.2786846  33.8115402  80.8488559  34.7674071
  32.9573690  82.0958286  34.8530271  45.6909931  88.4270452  39.7778986
  46.5601091  88.6011105  39.4165621  45.2116682  89.2464869  39.6554716
  41.6860149  75.6229649  20.0310742  41.6738819  76.5671489  20.1879013
  42.5783571  75.4399795  19.7370203  39.8596111  95.5467553  31.4568420
  40.7623358  95.5791164  31.7734915  39.6333481  94.6168004  31.4714756
  41.6149713  94.2998540  28.1178499  40.6645344  94.3000401  28.0042871
  41.9182199  93.5531274  27.6014533  45.5012269  72.2172426  24.2856679
  44.7344665  71.6630913  24.4313361  45.9122974  72.2894295  25.1470830
  37.5054030  78.5057222  38.3761860  38.3685491  78.1494027  38.5865185
  36.9319440  78.1671117  39.0637264  57.3502407 100.1359078  29.1824261
  57.9880817 100.0165826  28.4787601  57.2323250 101.0839922  29.2412213
  54.1592113 100.0886506  29.1185786  53.8210625  99.9727571  28.2306321
  55.0281881  99.6877671  29.0986792  50.0178929 101.9421983  25.1082677
  49.4543794 101.8511920  24.3398964  49.9031324 101.1221887  25.5885169
  54.6411896 101.2421358  35.0771991  54.6300537 100.8474156  34.2052495
  54.8032535 100.5087431  35.6705763  47.5643361 103.4373174  27.9466897
  48.3564653 103.0963999  27.5313196  47.8040011 103.5468149  28.8669051
  55.5978487 105.6092950  20.4197142  54.9466467 106.1947031  20.0331155
  56.3922850 106.1399145  20.4792179  49.5234115 102.6982088  20.8184276
  50.2964991 102.1511075  20.6797152  49.8759513 103.5626337  21.0298737
  51.3619157 104.0258470  34.0251175  51.0709023 104.9304101  33.9097842
  51.9976141 104.0674997  34.7395245  52.2875364 101.4035318  30.6152535
  52.8838936 101.1791341  29.9009498  52.3450336 100.6620064  31.2177983
  51.8600392  98.8574754  18.4502726  52.1125913  98.3356275  17.6886189
  50.9224951  98.6940899  18.5529410  56.9043675  97.8610532  26.2577469
  57.6906764  97.4429955  25.9067886  57.1682380  98.7656624  26.4259118
  57.0753753 103.2983382  20.9566126  56.4399586 103.3718009  21.6687031
  56.7451159 103.8876981  20.2785205  62.3052102  97.7985765  27.1610448
  63.0377274  97.2284982  27.3948277  61.5491458  97.4107366  27.6016953
  51.5796681 100.7602860  20.6527101  51.4632939 100.0847763  21.3208185
  51.6898941 100.2735234  19.8359254  53.9228222 100.2213007  24.3573790
  53.5586429  99.6943628  25.0686712  54.7795338  99.8311476  24.1840276
  59.8277523  91.5107339  31.6205056  59.4960847  92.3802750  31.3966271
  59.2323136  91.1943623  32.2999087  53.5633709  95.2502906  19.3535139
  53.7308111  96.1183143  19.7205610  53.3730878  95.4130188  18.4296428
  56.3209042 103.7119885  31.0200969  56.0209765 104.6144924  30.9116776
  55.9760102 103.4452069  31.8722122  49.7721524 100.1633682  27.0537673
  48.8472020 100.0309896  27.2615365  50.0205937 100.9427901  27.5507616
  59.7206186  96.2302426  28.6998406  58.8123063  96.1617834  28.4057167
  59.6693782  96.7074370  29.5280232  53.5422930  97.7060564  20.3381805
  53.4222555  98.1517615  21.1767286  52.8475518  98.0545882  19.7795344
  47.1330335  99.8066956  27.8881462  47.2622716 100.0601435  28.8020874
  46.4527786 100.3994664  27.5686118  53.7947052  97.6492071  36.6433304
  53.0180386  98.2085991  36.6336168  54.4337615  98.1348854  37.1648174
  61.5867832  94.4318864  30.4776280  60.9442213  94.7251397  29.8316075
  61.0822761  94.3171784  31.2829477  59.2407996  98.1782037  21.1662139
  60.1525852  98.4109424  20.9909837  58.7317643  98.7619081  20.6037218
  52.0493424 100.4577524  36.2051271  52.7908108 100.9962568  35.9286094
  51.3430410 101.0843813  36.3622822  57.5248764 102.6006665  34.8023432
  57.9332120 102.1589075  34.0578064  56.8026025 102.0259292  35.0557625
  53.8779834  97.5379272  32.1756989  54.7241029  97.9618685  32.3191638
  53.8178471  96.8812896  32.8695552  57.8477578 103.1607856  28.5575721
  57.2186441 103.3253570  27.8551789  57.4603240 103.5749465  29.3286685
  61.7266810 104.0962293  25.9120085  61.0417848 104.4761195  25.3617118
  61.8110660 104.7057620  26.6452032  57.0279279  95.1983640  33.8338163
  56.7840211  95.9525701  33.2972438  57.3039210  95.5768988  34.6685410
  58.9817742 101.7422252  32.5115428  59.1934637 102.3854012  31.8349809
  58.9347490 100.9084569  32.0437358  56.5843971  94.3540073  29.4152000
  55.7228450  94.6521327  29.7068738  56.6106405  94.5710472  28.4833033
  53.4005540 102.8982264  25.8225806  53.8643886 103.1769967  25.0330429
  53.1362338 101.9965708  25.6398897  50.2929621 102.4453745  28.7605569
  50.8630978 102.8741014  28.1223054  50.8837733 102.1636330  29.4589755
  52.3374426  99.0205416  22.6315371  53.0398470  99.4726460  23.0989298
  52.0055055  98.3789235  23.2595264  50.7854788  97.6117173  37.0066581
  50.1553448  98.2933453  37.2401977  50.6790876  97.5000254  36.0619719
  46.0799760  97.2788969  27.9332505  45.2898814  97.5346497  27.4572615
  46.5711008  98.0937307  28.0384545  60.0963570 104.6194208  30.6837786
  60.9181014 104.2174395  30.4020467  60.0925973 104.5162442  31.6353901
  48.0314506  97.6433548  24.8915981  47.2345669  97.7552242  25.4099477
  47.8040098  97.9820200  24.0256872  53.8620173 104.1678251  32.8398496
  53.9264606 104.6298658  33.6756668  53.1531097 103.5375616  32.9680806
  44.3637463  97.5319459  30.3647496  44.6145502  98.4166469  30.6305071
  44.8997012  97.3524061  29.5922587  68.1869563 100.9632956  27.0322757
  67.4333271 100.3940354  26.8766761  68.3217104 100.9295621  27.9793392
  53.5768191 105.8346359  22.7077476  53.4413866 106.6797894  23.1362324
  54.1178003 106.0365636  21.9443410  50.0635531  91.9137938  39.3691832
  49.6702476  91.3604137  40.0439476  50.8801671  92.2248517  39.7598349
  47.0297588 103.3521797  23.2805401  47.5422109 104.1465047  23.4310966
  47.6820301 102.6548087  23.2139003  48.8392473 106.4687553  25.3628155
  49.0159101 107.3905518  25.1749139  49.6349307 106.1545972  25.7922534
  52.9803492  93.3295818  36.9612088  53.7213205  93.9302971  36.8816551
  53.2121414  92.5873455  36.4030131  48.1244830  98.5152185  35.2390318
  48.0098345  97.6137442  35.5397417  47.2689347  98.7615882  34.8875134
  55.2036667 106.4569925  36.8377818  54.7600521 105.6706304  36.5198723
  55.8653881 106.6449076  36.1721709  49.9623788 107.9865727  31.3638497
  50.5131214 107.8582790  30.5915491  49.1235264 108.2860616  31.0133390
  57.3017905 106.7372725  34.8659220  57.2836381 107.5581606  34.3739489
  58.2237825 106.6126800  35.0909361  53.7590960 104.2516855  35.7082728
  54.2919296 103.4905143  35.4782036  53.2305041 103.9590506  36.4506883
  56.9260655  89.3576921  31.2376370  56.5824924  90.2478562  31.1615480
  57.2939617  89.1678578  30.3745955  44.9946505 101.6810451  24.0564972
  45.8321727 102.0907459  23.8398680  45.1724773 100.7409893  24.0265166
  56.8910937  99.3485532  19.7448805  56.3757561 100.1190136  19.9837192
  56.6188246  98.6750668  20.3681866  54.4758048  94.1935232  24.8034043
  53.6199645  93.8042083  24.6239682  54.8885000  94.2727193  23.9433829
  56.0057195  91.7281576  29.2025603  55.5021990  91.6911711  28.3893408
  56.2987802  92.6374318  29.2622260  52.2500081  91.8120305  28.2091785
  53.1153078  91.6163114  27.8497674  52.3177590  91.5830657  29.1361142
  61.8645211 102.1017886  21.6801978  61.0874654 101.7629046  21.2357141
  62.5436692 102.1070509  21.0056943  56.6797240  97.2212624  21.5708586
  56.3747376  97.5358773  22.4218729  57.6327683  97.2994044  21.6135919
  55.1243672 103.3802847  23.2201540  54.5965034 102.6455607  22.9074778
  54.6231175 104.1577523  22.9741508  60.1036518 101.5751868  28.3368586
  59.4460193 102.2651129  28.4248715  60.9076917 101.9648299  28.6802573
  49.8562400  94.0422513  25.5808152  50.4306152  93.8197695  24.8481345
  50.4433382  94.1111208  26.3336753  58.9141977  99.9296240  26.3872528
  59.4273859 100.5626232  26.8894238  59.5643201  99.3297436  26.0215888
  50.1831987  96.0726974  19.6004037  49.3469299  96.4101661  19.9213312
  50.0436757  95.9375954  18.6631174  52.1585068  90.9163762  24.3083221
  51.5049480  90.6012779  23.6839836  52.1165542  90.2939503  25.0343044
  53.2696272 101.1983057  16.2236513  52.3623334 100.9672311  16.4227662
  53.7667304 100.4020677  16.4110495  55.3922808  97.4045696  28.6330869
  54.4745369  97.6260643  28.4752557  55.8082952  97.4792006  27.7742576
  56.1757856  98.8037111  23.7633549  56.9229675  99.3158509  23.4540671
  56.4449445  98.4821164  24.6237943  54.4484506 101.2995652  20.7460503
  53.5395725 101.0154685  20.8432973  54.4779590 101.7194731  19.8863810
  59.6803773 104.9102242  24.5151671  59.2266100 104.0693152  24.5716861
  59.0497740 105.5463640  24.8526451  58.6236693  95.8394228  25.7452338
  57.8859450  95.3271614  26.0762581  58.8763466  95.3994609  24.9335615
  58.1236713 106.7478738  25.4501489  58.4159687 107.3083795  24.7313855
  58.6335333 107.0407299  26.2054648  58.7248320  88.6170480  26.3394108
  59.0307197  87.7567843  26.0520023  59.4500925  89.2088100  26.1393101
  45.0172676  99.0201166  24.7275705  44.8197076  98.4270527  24.0026772
  44.4619340  98.7153376  25.4451644  52.9969400  98.9124273  26.8470299
  53.0518010  97.9598109  26.7712775  52.1860602  99.0683712  27.3311597
  54.1460594 102.8404396  18.0848582  53.7080024 102.1240255  17.6254219
  54.8871035 103.0680511  17.5233673  50.9361760  97.5301333  24.6060677
  50.1229625  97.8295503  25.0125870  51.4320754  97.1357021  25.3235160
  53.0870338 107.5259089  26.5394942  53.0446516 107.7519936  25.6103474
  54.0033037 107.2922464  26.6880743  56.5335972  97.9943157  33.4375571
  56.8885359  98.2214630  34.2970037  57.1808103  98.3261534  32.8152827
  62.2633708 101.1161593  24.1424900  62.1251607 101.3063189  23.2146090
  61.9069927 101.8780976  24.5992952  50.4275835  95.1019688  30.2221912
  51.0675214  94.9608447  29.5244876  49.5953365  94.8154201  29.8460514
  62.2903088 103.1838120  29.1536172  62.7239595 103.0913409  30.0019226
  63.0034669 103.1595620  28.5156188  51.2036138 104.4022118  26.3356905
  51.9976737 103.9072439  26.1339480  50.4927831 103.8739982  25.9724610
  56.0230983 106.7840214  30.6869273  56.0768005 107.3531150  31.4546988
  55.1545764 106.9542099  30.3223310  47.5118902  98.5465200  22.4116658
  46.5816490  98.4849656  22.6286620  47.6076374  98.0241153  21.6153299
  47.4304451  95.0720013  24.9994899  47.6911268  95.9865346  24.8904060
  48.2521623  94.6044456  25.1491512  48.9029376  96.4857770  32.1693724
  49.5752430  96.2775132  31.5206373  48.0759163  96.2879856  31.7298956
  63.1518638 103.2261821  31.6869057  63.3454528 104.1307631  31.9328332
  63.0519256 102.7669240  32.5207642  54.8054948  93.1119711  34.1859385
  54.1582863  93.8109661  34.0923861  55.5755964  93.5455855  34.5535633
  58.2133746 103.3768563  37.2609938  58.0619253 103.1479115  36.3440022
  58.2038426 104.3339165  37.2741283  54.9819083 100.9500476  32.2456204
  55.9111143 101.1011636  32.0725172  54.5610113 101.0384497  31.3904851
  53.7807414 104.9751140  30.0154742  53.6418500 104.6069925  30.8880680
  52.9922011 105.4898780  29.8438700  54.3755566 110.0760237  21.3580279
  54.5507322 109.6048280  22.1725901  53.6888354 110.7026003  21.5861539
  55.3312630 104.3532743  27.4043580  54.9962462 104.3133513  28.3001230
  54.8316575 103.6877459  26.9313990  49.3056874  99.7600373  32.9296161
  49.1676672  99.0280612  33.5307700  50.2161797  99.6709273  32.6480349
  51.9339174  99.4720332  32.4179841  52.6438793  98.8313525  32.3766459
  51.8908482  99.7233227  33.3406021  59.9225953 106.4087686  35.3386420
  59.8638499 105.7246906  34.6717003  60.3245471 107.1506676  34.8867046
  50.6468108  96.4585550  34.2375480  50.1105465  96.0076289  34.8897076
  50.0584817  96.5931459  33.4945944  50.0570367  95.9174202  16.8001944
  49.1799834  95.7963003  16.4364190  50.5328120  95.1260280  16.5480832
  59.9243360 104.3727270  33.5700399  59.0370139 104.0353192  33.6926798
  60.4941911 103.6410301  33.8069165  41.5772507 100.7051362  26.8943451
  42.2643547 100.3913092  26.3064466  41.4220636 101.6092726  26.6210702
  46.3807229  95.5941558  31.3228475  46.2965418  94.9867228  30.5878884
  45.5589936  96.0850576  31.3237971  53.4544514 109.0328722  30.5361643
  53.3814685 109.8383694  31.0480947  53.0121907 109.2320688  29.7109664
  53.2434293 108.2700492  24.0464464  52.4601815 108.8122172  24.1402689
  53.9427038 108.7874472  24.4458705  56.5530943  94.0795122  26.6898670
  57.0499643  93.3265084  26.3699740  55.7817925  94.1159438  26.1241879
  64.4060701  99.7835487  28.3316961  64.3950577 100.6660203  27.9610894
  63.5378080  99.4307038  28.1371498  55.9143197 108.9315556  32.6919801
  56.6271169 109.5663021  32.6195703  55.4233226 109.0279422  31.8759803
  57.6360724 102.8366809  24.2637093  56.7017003 102.9568271  24.0941797
  57.8137392 101.9339276  23.9997103  53.1365912  96.2212505  26.4170354
  52.7663700  95.6683545  27.1051260  53.6325005  95.6170638  25.8645354
  61.0233275  98.6784128  24.7987127  61.4893728  99.5112120  24.7247430
  61.4740776  98.2129110  25.5032386  50.9655111 106.6810000  33.5125372
  51.6664570 107.3146483  33.6654766  50.4950226 107.0224731  32.7521011
  59.0909506 105.0227949  21.7973279  59.3669350 104.9084544  22.7067153
  58.2214005 104.6245434  21.7585452  58.9949938  91.0464715  28.8378028
  58.0813018  91.2768942  29.0060235  59.4243040  91.1303159  29.6892061
  58.7656397  99.2354607  31.3377922  58.1127847  99.4830515  30.6830375
  59.1436777  98.4218745  31.0040400  55.7263570 109.2714300  25.4406093
  55.9085965 108.4535956  25.9033845  56.5496557 109.4881992  25.0030983
  56.0605736 108.1982485  22.7021141  56.5893502 107.6874940  22.0891303
  56.3233956 107.8825016  23.5666674  54.8143970  99.9774418  37.8243960
  54.1384607  99.8768547  38.4946335  55.6371604  99.8213632  38.2879957
  46.5622829 106.2146355  30.4456475  47.1476266 105.4690043  30.5784379
  46.3647667 106.5250311  31.3293139  41.1540483  98.7851955  29.1660918
  41.1924583  98.2515546  29.9598036  40.6480776  98.2587160  28.5471895
  48.5331246  93.6316495  32.6623460  48.5972572  94.4931326  32.2500858
  48.4698366  93.0190497  31.9295819  48.0083518  95.7039628  36.3096495
  48.6355557  95.3216705  36.9234019  47.1511437  95.4853830  36.6752187
  58.4077627 106.1102603  37.9150230  58.9517531 106.7232561  37.4205185
  57.8264472 106.6682181  38.4317243  44.7849061  97.5116057  22.2414849
  45.0802502  96.6026735  22.1881903  43.8837097  97.4903796  21.9195852
  56.6935140 109.2323321  29.0465258  56.5686279 108.4313061  28.5376203
  57.3514231 109.7269514  28.5579228  48.3143308  95.5872054  28.2242398
  47.5929894  96.2008021  28.0849871  49.1036564  96.1229818  28.1459044
  58.7570048 107.0332341  30.6744808  57.8100384 106.9137692  30.6023135
  59.1052821 106.1454839  30.7571069  51.1169622  92.9226480  34.4983050
  51.6404023  93.1688777  35.2609359  50.8981955  93.7546515  34.0786187
  46.5136903  95.1930155  22.3654175  46.1849609  94.3127534  22.1829280
  46.8676273  95.1377823  23.2530564  55.7616481 106.8285057  26.8749160
  55.6141444 105.9001765  27.0556730  56.5869975 106.8505148  26.3906235
  49.6278726  95.4803124  22.7329652  49.9674798  96.0089046  22.0108261
  50.0750846  95.8183531  23.5088219  59.3650603 107.6513616  27.9614033
  60.2897151 107.4456477  27.8238484  59.1965907 107.4030017  28.8703374
  52.3222167  93.8640175  32.1832720  51.9818987  93.0647988  32.5853400
  51.6161173  94.1641886  31.6109553  52.9738638  90.9489488  30.6360043
  53.7964708  90.4749966  30.5138934  53.2176702  91.7279971  31.1358730
  51.6146873  93.9777746  20.9322945  52.3355235  94.3558999  20.4286662
  50.9912177  94.6966623  21.0357923  55.7577996  94.6822895  21.8681277
  55.9741610  95.5647533  21.5670105  55.2772063  94.2909108  21.1386919
  50.4977217  97.6408608  28.4452022  50.3521798  97.9548911  29.3376303
  50.0202421  98.2593509  27.8922921  52.3573600  94.6311156  28.4932911
  52.3435169  93.7352250  28.1565209  53.0746028  94.6381820  29.1271197
  54.2099731  95.0648496  30.5386039  53.9517509  95.9865567  30.5370369
  53.6784771  94.6678931  31.2286503  59.1545920 108.1699284  23.3176124
  59.3282797 107.6045706  22.5649977  59.6474811 108.9700178  23.1355614
  44.9722879 100.1813953  31.3839683  44.4276347 100.9573761  31.5159957
  45.8502229 100.5284757  31.2258804  51.7610496  93.5125537  23.7620482
  51.8826407  92.5842183  23.9611369  51.4712538  93.5264222  22.8498797
  54.6301686  91.1980447  26.8987201  54.6523383  91.2619780  25.9439181
  55.0469745  90.3584956  27.0927708  65.0085311 100.9335707  24.9366424
  65.4516457 100.1843032  24.5385547  64.1311821 100.9245843  24.5540156
  45.7588901  99.3083849  34.2769840  45.0170637  99.4566484  34.8634470
  45.4381645  99.5692115  33.4136589  62.0412515 104.9365754  21.9460353
  62.5663839 105.2753026  21.2209673  61.9534868 104.0012769  21.7623488
  53.7032564 108.8499827  34.0750230  54.0119690 108.6048974  34.9472930
  54.5008046 109.0546466  33.5869100  53.7253176 111.0037737  26.3055606
  53.2858166 110.5114115  26.9988463  54.4761293 110.4610704  26.0647682
  46.2045515 107.1949278  26.3080235  47.0303535 106.8953050  25.9278878
  45.8539567 106.4256900  26.7570023  51.1727048 106.5475746  28.3777908
  50.5507057 105.8846451  28.0780136  51.8431915 106.5736878  27.6951556
  44.4054120 105.1135604  27.2669168  43.5686028 104.6857778  27.0853169
  44.3777765 105.3068047  28.2039959  51.2451576  95.0257534  37.9710414
  51.2939731  95.9019657  37.5888184  51.7874090  94.4834927  37.3982057
  61.7306421 105.5698657  37.2511551  60.9401965 105.5522796  36.7116051
  61.4939776 106.1086951  38.0060588  61.8504296 102.4191124  34.5644280
  61.9002301 102.2541131  35.5059803  61.7418220 101.5518383  34.1742161
  50.7340555 105.0979669  21.8536369  50.8828675 105.7815134  21.2003041
  51.5406998 105.0784759  22.3685824  59.1408059  98.4022052  35.8803587
  60.0417921  98.2628516  35.5887584  59.2156033  98.5676506  36.8201764
  53.4750864  95.7788906  34.7256773  52.6054173  96.0722472  34.4539361
  53.7110344  96.3629351  35.4464036  63.3522493 104.8388065  34.8086301
  63.0607301 105.2018046  35.6449762  62.7394624 104.1255073  34.6299633
  64.5518175 102.4040945  27.3288872  65.3865067 102.8430749  27.4926432
  64.6877304 101.9279598  26.5097117  61.6009681  99.9620680  33.2766359
  62.0763803 100.1548326  32.4685211  60.6775247 100.0179865  33.0309743
  48.4893188 101.1244847  22.8597438  48.2439230 100.2207177  23.0577648
  48.6589102 101.1261997  21.9176916  56.1789898  91.9968523  32.2422193
  56.6971842  92.7329550  31.9168682  55.8245031  92.3032517  33.0768952
  47.7588835  96.8573204  20.3583599  47.0658080  96.9317559  19.7023635
  47.5140587  96.0933548  20.8805116  56.4302492  88.4168806  27.7623090
  56.7104246  87.7491995  28.3883516  57.2153099  88.6097901  27.2497754
  60.3011350  96.8386440  31.5094665  61.2528773  96.9384537  31.5306889
  60.1314801  96.0464708  32.0192749  58.3225730  93.9242023  31.6954066
  57.7275662  94.2047036  31.0000554  58.0375426  94.4135924  32.4670807
  62.7799428 100.0592559  30.6236965  62.7475748  99.1208560  30.8096648
  63.3900052 100.1376596  29.8902789  54.6182759  98.9288612  16.6664169
  55.5641864  98.7994821  16.7352587  54.2397004  98.1903274  17.1433597
  62.9293917  96.8503603  30.6695248  62.4132965  96.0662060  30.4825177
  63.8133865  96.5222319  30.8341767  60.5904644  90.5944618  26.6291060
  60.3929465  90.2859707  27.5134392  61.2004349  91.3206257  26.7588990
  68.5975978 101.1208566  29.7643001  69.3279366 100.8593854  30.3250705
  67.9882923 100.3837288  29.8045069  66.6791275  99.2616429  30.3617453
  65.9524439  99.1272394  29.7533944  66.2638562  99.5693257  31.1674171
  54.5021452 102.9806359  38.1264826  55.4224461 103.1584958  38.3204872
  54.4671035 102.0362404  37.9744525  52.8025676  96.8538589  16.6019054
  51.8957132  96.5571702  16.6781767  53.0801657  96.5568407  15.7353340
  43.7203617  98.1744952  27.0518100  43.4006401  97.3210260  26.7592474
  43.1737045  98.3893530  27.8076068  47.4983524 100.8907393  30.7687607
  47.7169534 101.8224501  30.7875641  47.9109298 100.5315368  31.5542411
  54.4187742  91.3975479  22.7563295  53.6088470  91.0522563  23.1318541
  55.1072159  91.0883022  23.3450907  56.3478290  90.4753525  24.3787592
  56.9009329  90.8948979  25.0377615  56.5848376  89.5489273  24.4210548
  52.3711389  96.4640599  40.1590356  52.2708116  97.4134956  40.0902447
  52.1532931  96.1358838  39.2866426  51.5724461  93.7125524  16.7431033
  52.4343625  94.0380422  17.0026850  51.7574805  92.9257020  16.2304099
  43.5891877 101.7947864  29.0211222  42.8955348 101.3801816  28.5081176
  44.3364868 101.8368400  28.4244641  59.7257097  92.5854050  23.8866256
  59.1455766  93.2438855  23.5044308  59.4593030  91.7631395  23.4753674
  58.1760664  91.9859108  26.0887576  58.6760442  92.0975643  25.2801895
  58.8196272  91.6820161  26.7288385  52.2342659  99.8937738  38.9755417
  51.7509741 100.6938098  39.1819306  52.3203598  99.9045683  38.0222861
  45.5028619 101.7266117  26.8977237  45.4799307 101.8253805  25.9459120
  45.8129256 102.5731268  27.2194403  48.1615997 103.7842273  31.0123851
  49.1159250 103.7526215  30.9453783  47.9628520 103.3232896  31.8274077
  48.7515379 102.3543389  33.5794649  49.5708268 102.8487467  33.6029486
  49.0252187 101.4375357  33.5512216  58.5081975  94.7454141  22.9422604
  57.6207830  95.0303791  22.7242799  58.9235964  94.5847904  22.0949881
  61.8596511  94.7700662  26.6576944  62.6356901  95.2597114  26.9301560
  61.1344646  95.1958716  27.1148813  64.2969070  95.4828281  27.7150884
  64.8913561  95.2424017  27.0044192  64.3695654  94.7635412  28.3424420
  58.4822999 100.2608677  23.1572894  58.4258200 100.7177228  22.3180527
  59.0351341  99.4999361  22.9795737  62.2927805  96.0498409  23.9823014
  62.0364739  95.6495044  24.8131222  61.6680673  96.7642203  23.8573153
  66.6040143  98.7894482  26.4894305  66.0439701  98.8587671  27.2625867
  65.9983646  98.6135467  25.7693802  59.2157778 101.4513458  20.4525424
  59.1606582 101.2857729  19.5113868  58.5903834 102.1589491  20.6087613
  44.0050293  96.6881522  34.2786846  44.6509157  96.1780476  34.7674071
  43.7967444  97.4250204  34.8530271  56.5303685 103.7562370  39.7778986
  57.3994845 103.9303022  39.4165621  56.0510437 104.5756787  39.6554716
  52.5253904  90.9521567  20.0310742  52.5132574  91.8963407  20.1879013
  53.4177326  90.7691712  19.7370203  52.4543468 109.6290457  28.1178499
  51.5039099 109.6292319  28.0042871  52.7575954 108.8823192  27.6014533
  56.3406023  87.5464344  24.2856679  55.5738419  86.9922830  24.4313361
  56.7516728  87.6186212  25.1470830  48.3447784  93.8349139  38.3761860
  49.2079246  93.4785944  38.5865185  47.7713195  93.4963034  39.0637264
  70.6671277 106.8399257  31.6205056  70.3354602 107.7094668  31.3966271
  70.0716891 106.5235541  32.2999087  70.5599941 111.5594343  28.6998406
  69.6516818 111.4909752  28.4057167  70.5087536 112.0366288  29.5280232
  64.6340806 112.9783989  36.6433304  63.8574140 113.5377909  36.6336168
  65.2731369 113.4640772  37.1648174  72.4261587 109.7610782  30.4776280
  71.7835967 110.0543315  29.8316075  71.9216515 109.6463702  31.2829477
  64.7173588 112.8671189  32.1756989  65.5634783 113.2910603  32.3191638
  64.6572226 112.2104814  32.8695552  67.8673034 110.5275558  33.8338163
  67.6233965 111.2817618  33.2972438  68.1432964 110.9060905  34.6685410
  67.4237725 109.6831991  29.4152000  66.5622204 109.9813244  29.7068738
  67.4500160 109.9002390  28.4833033  61.6248542 112.9409090  37.0066581
  60.9947203 113.6225371  37.2401977  61.5184630 112.8292172  36.0619719
  60.9029285 107.2429856  39.3691832  60.5096231 106.6896055  40.0439476
  61.7195425 107.5540435  39.7598349  63.8197246 108.6587735  36.9612088
  64.5606959 109.2594888  36.8816551  64.0515169 107.9165373  36.4030131
  67.7654409 104.6868838  31.2376370  67.4218678 105.5770480  31.1615480
  68.1333372 104.4970496  30.3745955  66.8450949 107.0573493  29.2025603
  66.3415745 107.0203629  28.3893408  67.1381556 107.9666236  29.2622260
  63.0893835 107.1412223  28.2091785  63.9546832 106.9455032  27.8497674
  63.1571344 106.9122575  29.1361142  60.6956154 109.3714431  25.5808152
  61.2699906 109.1489612  24.8481345  61.2827137 109.4403125  26.3336753
  62.9978822 106.2455680  24.3083221  62.3443234 105.9304697  23.6839836
  62.9559296 105.6231420  25.0343044  66.2316562 112.7337613  28.6330869
  65.3139124 112.9552560  28.4752557  66.6476706 112.8083924  27.7742576
  69.5642075 103.9462397  26.3394108  69.8700951 103.0859761  26.0520023
  70.2894679 104.5380018  26.1393101  63.8363154 114.2416190  26.8470299
  63.8911764 113.2890027  26.7712775  63.0254356 114.3975630  27.3311597
  67.3729726 113.3235075  33.4375571  67.7279114 113.5506548  34.2970037
  68.0201857 113.6553451  32.8152827  61.2669589 110.4311606  30.2221912
  61.9068968 110.2900365  29.5244876  60.4347120 110.1446119  29.8460514
  58.2698205 110.4011931  24.9994899  58.5305023 111.3157264  24.8904060
  59.0915378 109.9336373  25.1491512  59.7423131 111.8149688  32.1693724
  60.4146184 111.6067050  31.5206373  58.9152917 111.6171774  31.7298956
  65.6448703 108.4411629  34.1859385  64.9976618 109.1401578  34.0923861
  66.4149718 108.8747773  34.5535633  61.4861863 111.7877468  34.2375480
  60.9499220 111.3368207  34.8897076  60.8978571 111.9223377  33.4945944
  57.2200984 110.9233476  31.3228475  57.1359173 110.3159145  30.5878884
  56.3983690 111.4142494  31.3237971  67.3924698 109.4087039  26.6898670
  67.8893397 108.6557002  26.3699740  66.6211679 109.4451356  26.1241879
  63.9759667 111.5504422  26.4170354  63.6057454 110.9975463  27.1051260
  64.4718759 110.9462556  25.8645354  69.8343693 106.3756633  28.8378028
  68.9206772 106.6060860  29.0060235  70.2636794 106.4595077  29.6892061
  69.6050151 114.5646525  31.3377922  68.9521601 114.8122432  30.6830375
  69.9830531 113.7510663  31.0040400  65.6537724 115.3066336  37.8243960
  64.9778361 115.2060465  38.4946335  66.4765358 115.1505550  38.2879957
  59.3725000 108.9608413  32.6623460  59.4366327 109.8223244  32.2500858
  59.3092120 108.3482415  31.9295819  58.8477273 111.0331546  36.3096495
  59.4749312 110.6508623  36.9234019  57.9905192 110.8145748  36.6752187
  59.1537063 110.9163971  28.2242398  58.4323648 111.5299939  28.0849871
  59.9430318 111.4521736  28.1459044  61.9563376 108.2518398  34.4983050
  62.4797778 108.4980694  35.2609359  61.7375709 109.0838433  34.0786187
  57.3530657 110.5222072  22.3654175  57.0243363 109.6419451  22.1829280
  57.7070028 110.4669741  23.2530564  63.1615921 109.1932093  32.1832720
  62.8212741 108.3939906  32.5853400  62.4554927 109.4933804  31.6109553
  63.8132393 106.2781405  30.6360043  64.6358462 105.8041883  30.5138934
  64.0570456 107.0571889  31.1358730  61.3370972 112.9700526  28.4452022
  61.1915552 113.2840829  29.3376303  60.8596175 113.5885426  27.8922921
  63.1967355 109.9603074  28.4932911  63.1828923 109.0644167  28.1565209
  63.9139783 109.9673738  29.1271197  65.0493485 110.3940414  30.5386039
  64.7911263 111.3157485  30.5370369  64.5178526 109.9970849  31.2286503
  65.4695441 106.5272365  26.8987201  65.4917138 106.5911698  25.9439181
  65.8863500 105.6876873  27.0927708  62.0845330 110.3549452  37.9710414
  62.1333485 111.2311574  37.5888184  62.6267844 109.8126845  37.3982057
  69.9801813 113.7313969  35.8803587  70.8811676 113.5920434  35.5887584
  70.0549788 113.8968424  36.8201764  64.3144618 111.1080824  34.7256773
  63.4447928 111.4014390  34.4539361  64.5504099 111.6921269  35.4464036
  72.4403436 115.2912597  33.2766359  72.9157557 115.4840244  32.4685211
  71.5169001 115.3471783  33.0309743  67.0183652 107.3260441  32.2422193
  67.5365596 108.0621468  31.9168682  66.6638785 107.6324434  33.0768952
  67.2696246 103.7460723  27.7623090  67.5498000 103.0783913  28.3883516
  68.0546853 103.9389819  27.2497754  71.1405105 112.1678357  31.5094665
  72.0922528 112.2676455  31.5306889  70.9708555 111.3756626  32.0192749
  69.1619484 109.2533941  31.6954066  68.5669416 109.5338953  31.0000554
  68.8769181 109.7427842  32.4670807  73.7687671 112.1795521  30.6695248
  73.2526720 111.3953977  30.4825177  74.6527620 111.8514237  30.8341767
  71.4298398 105.9236536  26.6291060  71.2323219 105.6151624  27.5134392
  72.0398104 106.6498175  26.7588990  67.1872045 105.8045443  24.3787592
  67.7403083 106.2240896  25.0377615  67.4242131 104.8781191  24.4210548
  63.2105144 111.7932517  40.1590356  63.1101871 112.7426874  40.0902447
  62.9926686 111.4650756  39.2866426  69.0154418 107.3151026  26.0887576
  69.5154196 107.4267560  25.2801895  69.6590026 107.0112079  26.7288385
  67.1799778 102.8756261  24.2856679  66.4132174 102.3214748  24.4313361
  67.5910483 102.9478130  25.1470830  59.1841539 109.1641057  38.3761860
  60.0473000 108.8077862  38.5865185  58.6106949 108.8254952  39.0637264
  15.0502610  21.7997055  24.6395537  15.5942514  22.4127013  24.1450491
  14.4689455  22.3576633  25.1562550  18.3731405  21.2593109  23.9756858
  17.5826948  21.2417248  23.4361357  18.1364759  21.7981403  24.7305894
  13.1728669  19.4456822  26.5024293  14.0419828  19.6197474  26.1410928
  12.6935420  20.2651239  26.3800022  24.8321144  31.1545448  15.9069568
  25.4699554  31.0352195  15.2032908  24.7141987  32.1026292  15.9657520
  22.1230634  32.2607728  21.8017298  22.1119275  31.8660526  20.9297802
  22.2851273  31.5273800  22.3951069  18.8437895  35.0444839  20.7496482
  18.5527761  35.9490470  20.6343148  19.4794879  35.0861367  21.4640551
  19.7694102  32.4221688  17.3397842  20.3657674  32.1977710  16.6254805
  19.8269073  31.6806433  17.9423289  29.7870840  28.8172135  13.8855754
  30.5196012  28.2471352  14.1193584  29.0310196  28.4293735  14.3262260
  27.3096260  22.5293709  18.3450363  26.9779585  23.3989120  18.1211578
  26.7141874  22.2129993  19.0244393  23.8027780  34.7306255  17.7446276
  23.5028503  35.6331294  17.6362083  23.4578840  34.4638438  18.5967428
  18.7848560  41.4950575  10.7117243  18.7072589  42.4458400  10.7905724
  18.1810203  41.1496448  11.3692170  21.2765790  28.6678441  23.3678610
  20.4999124  29.2272361  23.3581475  21.9156353  29.1535224  23.8893480
  29.0686570  25.4505233  17.2021587  28.4260950  25.7437767  16.5561381
  28.5641499  25.3358154  18.0074784  19.5312162  31.4763894  22.9296577
  20.2726846  32.0148938  22.6531401  18.8249147  32.1030183  23.0868129
  25.0067502  33.6193034  21.5268739  25.4150858  33.1775445  20.7823371
  24.2844763  33.0445662  21.7802932  21.3598572  28.5565641  18.9002296
  22.2059767  28.9805055  19.0436945  21.2997209  27.8999266  19.5940859
  25.3296316  34.1794225  15.2821028  24.7005179  34.3439939  14.5797095
  24.9421978  34.5935835  16.0531992  29.2085548  35.1148663  12.6365391
  28.5236586  35.4947564  12.0862425  29.2929397  35.7243990  13.3697339
  24.5098017  26.2170010  20.5583469  24.2658949  26.9712070  20.0217745
  24.7857947  26.5955357  21.3930716  26.4636480  32.7608622  19.2360735
  26.6753375  33.4040382  18.5595116  26.4166228  31.9270939  18.7682665
  17.7748359  33.4640115  15.4850876  18.3449716  33.8927383  14.8468360
  18.3656471  33.1822699  16.1835062  18.2673526  28.6303542  23.7311887
  17.6372186  29.3119823  23.9647284  18.1609614  28.5186624  22.7865025
  27.5782308  35.6380577  17.4083092  28.3999751  35.2360765  17.1265774
  27.5744710  35.5348812  18.3599208  21.3438911  35.1864621  19.5643803
  21.4083344  35.6485028  20.4001975  20.6349835  34.5561986  19.6926113
  35.6688301  31.9819326  13.7568064  34.9152009  31.4126724  13.6012068
  35.8035842  31.9481990  14.7038698  17.5454268  22.9324308  26.0937138
  17.1521214  22.3790507  26.7684782  18.3620409  23.2434887  26.4843656
  20.4622229  24.3482187  23.6857395  21.2031943  24.9489340  23.6061857
  20.6940152  23.6059825  23.1275437  15.6063567  29.5338554  21.9635625
  15.4917082  28.6323812  22.2642723  14.7508085  29.7802251  21.6120441
  22.6855405  37.4756295  23.5623125  22.2419259  36.6892673  23.2444030
  23.3472619  37.6635445  22.8967016  17.4442526  39.0052096  18.0883804
  17.9949951  38.8769160  17.3160798  16.6054002  39.3046985  17.7378696
  24.7836643  37.7559095  21.5904526  24.7655119  38.5767976  21.0984796
  25.7056563  37.6313170  21.8154668  21.2409697  35.2703224  22.4328035
  21.7738034  34.5091512  22.2027343  20.7123778  34.9776876  23.1752189
  27.5855256  32.5938237  15.0613893  26.9278930  33.2837498  15.1494022
  28.3895655  32.9834669  15.4047879  27.1622511  35.9288611  11.2396977
  26.7084838  35.0879521  11.2962168  26.5316478  36.5650010  11.5771758
  25.6055450  37.7665108  12.1746796  25.8978425  38.3270165  11.4559161
  26.1154071  38.0593669  12.9299955  20.5689075  38.5445459  13.2640249
  20.5265254  38.7706305  12.3348781  21.4851774  38.3108834  13.4126050
  24.0154709  29.0129527  20.1620878  24.3704097  29.2401000  21.0215344
  24.6626841  29.3447903  19.5398133  29.7721826  34.2024489  15.8781479
  30.2058332  34.1099779  16.7264533  30.4853407  34.1781990  15.2401495
  23.5049721  37.8026584  17.4114579  23.5586743  38.3717520  18.1792295
  22.6364502  37.9728469  17.0468616  30.6337375  34.2448190  18.4114364
  30.8273265  35.1494001  18.6573639  30.5337994  33.7855609  19.2452949
  22.2873686  24.1306081  20.9104691  21.6401601  24.8296030  20.8169168
  23.0574702  24.5642225  21.2780939  25.6952484  34.3954933  23.9855245
  25.5437990  34.1665485  23.0685328  25.6857164  35.3525534  23.9986590
  22.4637820  31.9686846  18.9701511  23.3929880  32.1198005  18.7970478
  22.0428850  32.0570866  18.1150158  21.2626152  35.9937510  16.7400049
  21.1237238  35.6256294  17.6125987  20.4740748  36.5085149  16.5684006
  22.8131367  35.3719113  14.1288886  22.4781200  35.3319883  15.0246536
  22.3135313  34.7063829  13.6559297  16.7875611  30.7786743  19.6541468
  16.6495409  30.0466982  20.2553007  17.6980535  30.6895643  19.3725655
  19.4157912  30.4906702  19.1425147  20.1257531  29.8499894  19.1011766
  19.3727220  30.7419597  20.0651328  27.4044691  37.4274055  22.0631726
  27.3457237  36.7433276  21.3962309  27.8064209  38.1693045  21.6112352
  18.1286846  27.4771920  20.9620787  17.5924203  27.0262658  21.6142383
  17.5403554  27.6117829  20.2191251  16.4235390  44.2435969  14.8565445
  16.6631988  44.8754493  15.5344464  15.5804586  43.8924009  15.1430805
  27.4062098  35.3913639  20.2945706  26.5188877  35.0539561  20.4172105
  27.9760649  34.6596671  20.5314471  20.9363251  40.0515092  17.2606949
  20.8633423  40.8570063  17.7726254  20.4940644  40.2507058  16.4354971
  20.7253031  39.2886862  10.7709771  19.9420553  39.8308542  10.8647995
  21.4245776  39.8060841  11.1704012  31.8879439  30.8021857  15.0562268
  31.8769315  31.6846572  14.6856201  31.0196818  30.4493408  14.8616805
  23.3961935  39.9501926  19.4165108  24.1089907  40.5849391  19.3441009
  22.9051964  40.0465792  18.6005110  18.4473848  37.6996369  20.2370679
  19.1483308  38.3332852  20.3900073  17.9768963  38.0411101  19.4766318
  26.2475134  30.2540977  18.0623229  25.5946585  30.5016884  17.4075682
  26.6255514  29.4405115  17.7285706  23.2082308  40.2900670  12.1651399
  23.3904703  39.4722326  12.6279152  24.0315294  40.5068362  11.7276289
  22.2962707  30.9960788  24.5489266  21.6203344  30.8954917  25.2191641
  23.1190341  30.8400001  25.0125263  14.0441566  37.2332724  17.1701781
  14.6295003  36.4876412  17.3029686  13.8466405  37.5436681  18.0538445
  16.8980222  40.2683972  12.1864224  16.2290597  40.7530099  11.7028264
  16.7593091  40.5153192  13.1007602  21.0385490  42.3027715  18.7846882
  21.5903798  42.4659337  19.5495967  21.3791684  42.8932153  18.1126907
  15.4902256  26.7225997  23.0341801  16.1174295  26.3403075  23.6479325
  14.6330175  26.5040199  23.3997494  25.8896365  37.1288973  24.6395537
  26.4336269  37.7418931  24.1450491  25.3083209  37.6868551  25.1562550
  24.1753878  40.2509691  15.7710564  24.0505017  39.4499431  15.2621510
  24.8332969  40.7455884  15.2824534  26.2388786  38.0518711  17.3990114
  25.2919121  37.9324062  17.3268441  26.5871559  37.1641209  17.4816376
  18.5988359  23.9412850  21.2228356  19.1222761  24.1875146  21.9854666
  18.3800693  24.7732884  20.8031494  23.2435219  37.8471427  13.5994467
  23.0960182  36.9188134  13.7802037  24.0688713  37.8691518  13.1151542
  26.8469341  38.6699986  14.6859339  27.7715889  38.4642847  14.5483791
  26.6784644  38.4216387  15.5948681  26.6364657  39.1885653  10.0421431
  26.8101535  38.6232076   9.2895283  27.1293549  39.9886548   9.8600921
  32.4904048  31.9522076  11.6611731  32.9335195  31.2029401  11.2630854
  31.6130559  31.9432212  11.2785463  13.2407639  30.3270218  21.0015147
  12.4989375  30.4752854  21.5879777  12.9200383  30.5878484  20.1381896
  21.1851302  39.8686197  20.7995537  21.4938428  39.6235343  21.6718236
  21.9826784  40.0732835  20.3114407  21.2071914  42.0224106  13.0300913
  20.7676904  41.5300485  13.7233770  21.9580031  41.4797074  12.7892988
  18.6545786  37.5662115  15.1023215  18.0325795  36.9032820  14.8025443
  19.3250653  37.5923247  14.4196863  18.7270313  26.0443903  24.6955721
  18.7758469  26.9206026  24.3133490  19.2692828  25.5021297  24.1227364
  29.2125159  36.5885027  23.9756858  28.4220703  36.5709166  23.4361357
  28.9758514  37.1273320  24.7305894  29.3323034  33.4377493  21.2889586
  29.3821039  33.2727501  22.2305109  29.2236957  32.5704752  20.8987467
  26.6226796  29.4208421  22.6048893  27.5236659  29.2814886  22.3132891
  26.6974771  29.5862876  23.5447071  20.9569602  26.7975276  21.4502079
  20.0872911  27.0908842  21.1784668  21.1929082  27.3815721  22.1709343
  30.8341231  35.8574435  21.5331608  30.5426039  36.2204415  22.3695069
  30.2213362  35.1441443  21.3544940  32.0336913  33.4227314  14.0534178
  32.8683805  33.8617118  14.2171739  32.1696042  32.9465968  13.2342424
  29.0828419  30.9807049  20.0011666  29.5582541  31.1734696  19.1930517
  28.1593984  31.0366235  19.7555050  23.6608636  23.0154893  18.9667500
  24.1790579  23.7515920  18.6413988  23.3063768  23.3218886  19.8014259
  27.7830088  27.8572809  18.2339972  28.7347511  27.9570907  18.2552196
  27.6133539  27.0651078  18.7438056  25.8044468  24.9428393  18.4199372
  25.2094400  25.2233405  17.7245861  25.5194164  25.4322293  19.1916114
  30.2618166  31.0778929  17.3482271  30.2294486  30.1394930  17.5341955
  30.8718790  31.1562966  16.6148096  30.4112654  27.8689972  17.3940554
  29.8951703  27.0848429  17.2070483  31.2952603  27.5408689  17.5587074
  36.0794716  32.1394936  16.4888308  36.8098104  31.8780224  17.0496011
  35.4701661  31.4023658  16.5290376  34.1610013  30.2802798  17.0862759
  33.4343176  30.1458763  16.4779251  33.7457300  30.5879627  17.8919477
  21.9840189  33.9992728  24.8510132  22.9043199  34.1771327  25.0450179
  21.9489772  33.0548773  24.6989831  14.9802262  31.9093763  17.4932913
  15.1988272  32.8410871  17.5120947  15.3928036  31.5501737  18.2787717
  19.8530127  27.4826969  26.8835662  19.7526854  28.4321325  26.8147753
  19.6351669  27.1545207  26.0111732  19.7161397  30.9124107  25.7000724
  19.2328479  31.7124467  25.9064613  19.8022336  30.9232052  24.7468168
  15.6434735  34.8028642  17.7369158  16.5977988  34.7712584  17.6699089
  15.4447258  34.3419266  18.5519384  16.2334117  33.3729758  20.3039955
  17.0527006  33.8673837  20.3274793  16.5070925  32.4561726  20.2757523
  31.7787808  26.5014651  14.4396191  32.3732299  26.2610387  13.7289499
  31.8514391  25.7821781  15.0669727  13.9984963  40.3448262  14.7539356
  13.8639431  39.5848662  14.1877354  13.5817026  41.0689161  14.2868145
  34.0858881  29.8080851  13.2139612  33.5258439  29.8774041  13.9871174
  33.4802384  29.6321836  12.4939108  17.1554089  41.2417579  14.9657798
  17.0386474  42.1863011  14.8636489  16.3346536  40.9391140  15.3543597
  24.0122423  34.7748739  26.5024293  24.8813583  34.9489392  26.1410928
  23.5329175  35.5943156  26.3800022  18.1808603  41.8945840  18.1813727
  19.0835850  41.9269451  18.4980222  17.9545974  40.9646291  18.1960062
  19.9362206  40.6476827  14.8423805  18.9857837  40.6478689  14.7288178
  20.2394692  39.9009562  14.3259840  15.8266522  24.8535509  25.1007167
  16.6897984  24.4972314  25.3110491  15.2531933  24.5149404  25.7882571
  35.6714899  46.4837365  15.9069568  36.3093309  46.3644113  15.2032908
  35.5535742  47.4318209  15.9657520  32.4804605  46.4364794  15.8431092
  32.1423117  46.3205858  14.9551627  33.3494373  46.0355959  15.8232099
  28.3391421  48.2900270  11.8327983  27.7756286  48.1990207  11.0644271
  28.2243816  47.4700174  12.3130476  32.9624388  47.5899645  21.8017298
  32.9513029  47.1952444  20.9297802  33.1245028  46.8565718  22.3951069
  25.8855853  49.7851462  14.6712204  26.6777145  49.4442286  14.2558503
  26.1252503  49.8946437  15.5914357  33.9190980  51.9571238   7.1442448
  33.2678959  52.5425318   6.7576462  34.7135342  52.4877433   7.2037486
  27.8446607  49.0460375   7.5429583  28.6177483  48.4989362   7.4042458
  28.1972006  49.9104624   7.7544044  29.6831649  50.3736757  20.7496482
  29.3921515  51.2782388  20.6343148  30.3188634  50.4153285  21.4640551
  30.6087856  47.7513606  17.3397842  31.2051429  47.5269628  16.6254805
  30.6662828  47.0098351  17.9423289  30.1812885  45.2053041   5.1748033
  30.4338405  44.6834562   4.4131496  29.2437444  45.0419186   5.2774716
  35.2256167  44.2088819  12.9822776  36.0119257  43.7908242  12.6313193
  35.4894872  45.1134911  13.1504424  35.3966245  49.6461670   7.6811433
  34.7612078  49.7196296   8.3932337  35.0663651  50.2355268   7.0030512
  40.6264595  44.1464052  13.8855754  41.3589767  43.5763269  14.1193584
  39.8703950  43.7585653  14.3262260  29.9009173  47.1081147   7.3772407
  29.7845431  46.4326050   8.0453492  30.0111433  46.6213521   6.5604561
  32.2440714  46.5691294  11.0819097  31.8798922  46.0421915  11.7932018
  33.1007830  46.1789763  10.9085582  38.1490015  37.8585627  18.3450363
  37.8173340  38.7281038  18.1211578  37.5535628  37.5421911  19.0244393
  31.8846201  41.5981194   6.0780445  32.0520604  42.4661430   6.4450916
  31.6943370  41.7608475   5.1541734  34.6421534  50.0598173  17.7446276
  34.3422258  50.9623211  17.6362083  34.2972594  49.7930356  18.5967428
  28.0934016  46.5111969  13.7782980  27.1684512  46.3788184  13.9860672
  28.3418429  47.2906189  14.2752922  38.0418678  42.5780713  15.4243713
  37.1335556  42.5096121  15.1302474  37.9906274  43.0552658  16.2525538
  31.8635422  44.0538851   7.0627112  31.7435047  44.4995902   7.9012592
  31.1688011  44.4024169   6.5040650  25.4542827  46.1545243  14.6126769
  25.5835208  46.4079722  15.5266181  24.7740278  46.7472951  14.2931424
  29.6242314  56.8242493  10.7117243  29.5466344  57.7750318  10.7905724
  29.0203958  56.4788365  11.3692170  32.1159544  43.9970358  23.3678610
  31.3392878  44.5564278  23.3581475  32.7550107  44.4827141  23.8893480
  39.9080325  40.7797151  17.2021587  39.2654705  41.0729684  16.5561381
  39.4035253  40.6650071  18.0074784  37.5620488  44.5260324   7.8907446
  38.4738344  44.7587711   7.7155144  37.0530135  45.1097369   7.3282525
  30.3705916  46.8055812  22.9296577  31.1120601  47.3440856  22.6531401
  29.6642902  47.4322100  23.0868129  35.8461256  48.9484952  21.5268739
  36.2544612  48.5067363  20.7823371  35.1238518  48.3737580  21.7802932
  32.1992326  43.8857559  18.9002296  33.0453521  44.3096972  19.0436945
  32.1390964  43.2291183  19.5940859  36.1690071  49.5086143  15.2821028
  35.5398933  49.6731857  14.5797095  35.7815733  49.9227752  16.0531992
  40.0479303  50.4440581  12.6365391  39.3630341  50.8239482  12.0862425
  40.1323152  51.0535907  13.3697339  35.3491771  41.5461927  20.5583469
  35.1052703  42.3003988  20.0217745  35.6251702  41.9247275  21.3930716
  37.3030234  48.0900540  19.2360735  37.5147129  48.7332300  18.5595116
  37.2559982  47.2562856  18.7682665  34.9056463  40.7018360  16.1397307
  34.0440942  40.9999614  16.4314045  34.9318898  40.9188759  15.2078340
  31.7218033  49.2460551  12.5471113  32.1856378  49.5248254  11.7575735
  31.4574831  48.3443995  12.3644203  28.6142114  48.7932032  15.4850876
  29.1843471  49.2219301  14.8468360  29.2050225  48.5114617  16.1835062
  30.6586919  45.3683703   9.3560678  31.3610962  45.8204747   9.8234604
  30.3267547  44.7267522   9.9840571  29.1067280  43.9595460  23.7311887
  28.4765941  44.6411741  23.9647284  29.0003368  43.8478541  22.7865025
  24.4012253  43.6267256  14.6577811  23.6111307  43.8824784  14.1817922
  24.8923500  44.4415594  14.7629852  38.4176062  50.9672495  17.4083092
  39.2393506  50.5652682  17.1265774  38.4138465  50.8640729  18.3599208
  26.3526998  43.9911835  11.6161288  25.5558161  44.1030529  12.1344784
  26.1252590  44.3298487  10.7502179  32.1832666  50.5156538  19.5643803
  32.2477098  50.9776946  20.4001975  31.4743589  49.8853903  19.6926113
  22.6849956  43.8797746  17.0892802  22.9357994  44.7644756  17.3550378
  23.2209504  43.7002348  16.3167894  46.5082055  47.3111244  13.7568064
  45.7545764  46.7418642  13.6012068  46.6429596  47.2773908  14.7038698
  31.8980683  52.1824646   9.4322783  31.7626358  53.0276182   9.8607631
  32.4390496  52.3843924   8.6688717  28.3848023  38.2616226  26.0937138
  27.9914968  37.7082424  26.7684782  29.2014163  38.5726804  26.4843656
  25.3510081  49.7000084  10.0050708  25.8634601  50.4943334  10.1556273
  26.0032793  49.0026374   9.9384310  27.1604965  52.8165840  12.0873461
  27.3371594  53.7383805  11.8994445  27.9561799  52.5024259  12.5167841
  31.3015984  39.6774105  23.6857395  32.0425697  40.2781258  23.6061857
  31.5333907  38.9351743  23.1275437  26.4457322  44.8630472  21.9635625
  26.3310837  43.9615729  22.2642723  25.5901840  45.1094169  21.6120441
  33.5249160  52.8048212  23.5623125  33.0813014  52.0184591  23.2444030
  34.1866373  52.9927363  22.8967016  28.2836281  54.3344014  18.0883804
  28.8343706  54.2061077  17.3160798  27.4447757  54.6338903  17.7378696
  35.6230398  53.0851012  21.5904526  35.6048873  53.9059893  21.0984796
  36.5450318  52.9605088  21.8154668  32.0803452  50.5995142  22.4328035
  32.6131789  49.8383430  22.2027343  31.5517533  50.3068794  23.1752189
  35.2473147  35.7055208  17.9621676  34.9037416  36.5956849  17.8860787
  35.6152109  35.5156865  17.0991262  23.3158997  48.0288738  10.7810279
  24.1534219  48.4385747  10.5643986  23.4937265  47.0888180  10.7510473
  35.2123429  45.6963819   6.4694112  34.6970053  46.4668423   6.7082499
  34.9400738  45.0228955   7.0927173  32.7970541  40.5413520  11.5279350
  31.9412137  40.1520370  11.3484989  33.2097492  40.6205480  10.6679136
  34.3269687  38.0759863  15.9270910  33.8234483  38.0389998  15.1138715
  34.6200294  38.9852606  15.9867566  30.5712573  38.1598593  14.9337091
  31.4365570  37.9641401  14.5742981  30.6390082  37.9308944  15.8606448
  40.1857704  48.4496174   8.4047285  39.4087146  48.1107333   7.9602447
  40.8649185  48.4548797   7.7302250  35.0009733  43.5690911   8.2953893
  34.6959868  43.8837060   9.1464036  35.9540175  43.6472331   8.3381226
  33.4456165  49.7281134   9.9446847  32.9177526  48.9933894   9.6320084
  32.9443667  50.5055811   9.6986815  38.4249011  47.9230155  15.0613893
  37.7672685  48.6129416  15.1494022  39.2289410  48.3126587  15.4047879
  28.1774892  40.3900801  12.3053458  28.7518644  40.1675982  11.5726651
  28.7645875  40.4589495  13.0582060  37.2354469  46.2774527  13.1117835
  37.7486351  46.9104519  13.6139545  37.8855693  45.6775723  12.7461195
  30.4797560  37.2642049  11.0328528  29.8261972  36.9491067  10.4085142
  30.4378034  36.6417790  11.7588351  31.5908765  47.5461345   2.9481820
  30.6835826  47.3150598   3.1472969  32.0879797  46.7498964   3.1355801
  34.4976844  56.2558852   5.8678506  33.8238542  56.5590548   6.4763464
  34.8842666  57.0587932   5.5183963  33.7135300  43.7523983  15.3576175
  32.7957862  43.9738930  15.1997863  34.1295444  43.8270293  14.4987883
  34.4970348  45.1515399  10.4878856  35.2442167  45.6636796  10.1785978
  34.7661938  44.8299451  11.3483249  32.7696998  47.6473939   7.4705810
  31.8608217  47.3632972   7.5678280  32.7992082  48.0673018   6.6109117
  38.0016266  51.2580529  11.2396977  37.5478593  50.4171439  11.2962168
  37.3710232  51.8941927  11.5771758  36.9449185  42.1872515  12.4697645
  36.2071942  41.6749901  12.8007887  37.1975959  41.7472897  11.6580922
  36.4449205  53.0957026  12.1746796  36.7372179  53.6562083  11.4559161
  36.9547825  53.3885587  12.9299955  37.0460812  34.9648767  13.0639414
  37.3519689  34.1046130  12.7765329  37.7713417  35.5566387  12.8638408
  23.3385169  45.3679454  11.4521012  23.1409568  44.7748814  10.7272079
  22.7831833  45.0631664  12.1696951  31.3181892  45.2602560  13.5715605
  31.3730502  44.3076396  13.4958082  30.5073094  45.4161999  14.0556904
  32.4673086  49.1882683   4.8093888  32.0292516  48.4718542   4.3499526
  33.2083527  49.4158798   4.2478980  29.2574252  43.8779620  11.3305984
  28.4442118  44.1773790  11.7371176  29.7533246  43.4835309  12.0480466
  31.4082830  53.8737377  13.2640249  31.3659009  54.0998223  12.3348781
  32.3245529  53.6400751  13.4126050  34.8548464  44.3421444  20.1620878
  35.2097851  44.5692917  21.0215344  35.5020595  44.6739821  19.5398133
  40.5846201  47.4639880  10.8670207  40.4464099  47.6541476   9.9391396
  40.2282420  48.2259263  11.3238258  28.7488327  41.4497975  16.9467219
  29.3887706  41.3086734  16.2490182  27.9165857  41.1632489  16.5705821
  40.6115580  49.5316407  15.8781479  41.0452087  49.4391696  16.7264533
  41.3247161  49.5073908  15.2401495  29.5248631  50.7500406  13.0602212
  30.3189229  50.2550726  12.8584786  28.8140323  50.2218269  12.6969917
  34.3443475  53.1318501  17.4114579  34.3980498  53.7009438  18.1792295
  33.4758257  53.3020386  17.0468616  25.8331394  44.8943487   9.1361964
  24.9028982  44.8327943   9.3531926  25.9288866  44.3719440   8.3398605
  25.7516943  41.4198300  11.7240206  26.0123761  42.3343634  11.6149366
  26.5734116  40.9522743  11.8736819  27.2241869  42.8336057  18.8939030
  27.8964922  42.6253420  18.2451679  26.3971655  42.6358143  18.4544263
  41.4731130  49.5740108  18.4114364  41.6667020  50.4785918  18.6573639
  41.3731748  49.1147527  19.2452949  33.1267441  39.4597998  20.9104691
  32.4795356  40.1587948  20.8169168  33.8968456  39.8934142  21.2780939
  36.5346239  49.7246851  23.9855245  36.3831745  49.4957402  23.0685328
  36.5250918  50.6817452  23.9986590  33.3031575  47.2978763  18.9701511
  34.2323635  47.4489923  18.7970478  32.8822605  47.3862784  18.1150158
  32.1019907  51.3229428  16.7400049  31.9630992  50.9548212  17.6125987
  31.3134503  51.8377067  16.5684006  32.6968059  56.4238524   8.0825585
  32.8719814  55.9526567   8.8971208  32.0100847  57.0504290   8.3106846
  33.6525122  50.7011030  14.1288886  33.3174955  50.6611800  15.0246536
  33.1529068  50.0355746  13.6559297  27.6269366  46.1078660  19.6541468
  27.4889164  45.3758899  20.2553007  28.5374289  46.0187561  19.3725655
  36.5884314  48.0467065   4.4025946  35.9713484  47.3213893   4.3058999
  36.1200802  48.8076425   4.0593020  30.2551667  45.8198620  19.1425147
  30.9651285  45.1791812  19.1011766  30.2120975  46.0711515  20.0651328
  38.2438445  52.7565973  22.0631726  38.1850991  52.0725193  21.3962309
  38.6457964  53.4984963  21.6112352  28.9680601  42.8063838  20.9620787
  28.4317958  42.3554576  21.6142383  28.3797309  42.9409746  20.2191251
  27.2629144  59.5727887  14.8565445  27.5025742  60.2046411  15.5344464
  26.4198340  59.2215927  15.1430805  38.2455852  50.7205557  20.2945706
  37.3582631  50.3831479  20.4172105  38.8154404  49.9888588  20.5314471
  19.8985000  47.0529649  13.6188757  20.5856039  46.7391379  13.0309773
  19.7433128  47.9571013  13.3456009  24.7019722  41.9419845  18.0473781
  24.6177910  41.3345515  17.3124191  23.8802428  42.4328864  18.0483278
  31.7757006  55.3807009  17.2606949  31.7027177  56.1861981  17.7726254
  31.3334399  55.5798975  16.4354971  31.5646785  54.6178779  10.7709771
  30.7814307  55.1600460  10.8647995  32.2639531  55.1352759  11.1704012
  34.8743436  40.4273409  13.4143976  35.3712135  39.6743371  13.0945046
  34.1030417  40.4637726  12.8487186  42.7273193  46.1313774  15.0562268
  42.7163069  47.0138490  14.6856201  41.8590572  45.7785325  14.8616805
  34.2355689  55.2793843  19.4165108  34.9483662  55.9141308  19.3441009
  33.7445718  55.3757709  18.6005110  35.9573216  49.1845096  10.9882400
  35.0229495  49.3046559  10.8187104  36.1349885  48.2817563  10.7242409
  31.4578404  42.5690792  13.1415661  31.0876192  42.0161832  13.8296566
  31.9537497  41.9648925  12.5890661  39.3445768  45.0262415  11.5232434
  39.8106220  45.8590407  11.4492736  39.7953268  44.5607397  12.2277692
  29.2867603  53.0288287  20.2370679  29.9877062  53.6624770  20.3900073
  28.8162718  53.3703018  19.4766318  37.4121999  51.3706237   8.5218586
  37.6881843  51.2562831   9.4312460  36.5426497  50.9723721   8.4830759
  37.3162430  37.3943002  15.5623335  36.4025510  37.6247229  15.7305542
  37.7455532  37.4781446  16.4137367  37.0868889  45.5832894  18.0623229
  36.4340339  45.8308802  17.4075682  37.4649269  44.7697032  17.7285706
  34.0476063  55.6192587  12.1651399  34.2298457  54.8014243  12.6279152
  34.8709049  55.8360280  11.7276289  34.3818228  54.5460773   9.4266448
  34.9105995  54.0353227   8.8136610  34.6446448  54.2303303  10.2911981
  33.1356462  46.3252705  24.5489266  32.4597099  46.2246835  25.2191641
  33.9584096  46.1691919  25.0125263  24.8835321  52.5624642  17.1701781
  25.4688758  51.8168330  17.3029686  24.6860159  52.8728599  18.0538445
  27.7373976  55.5975889  12.1864224  27.0684351  56.0822017  11.7028264
  27.5986846  55.8445110  13.1007602  19.4752976  45.1330242  15.8906225
  19.5137075  44.5993833  16.6843343  18.9693269  44.6065448  15.2717202
  31.8779245  57.6319633  18.7846882  32.4297553  57.7951254  19.5495967
  32.2185438  58.2224071  18.1126907  26.8543738  39.9794783  19.3868767
  26.9185065  40.8409614  18.9746165  26.7910858  39.3668784  18.6541125
  26.3296011  42.0517915  23.0341801  26.9568049  41.6694992  23.6479325
  25.4723929  41.8332117  23.3997494  36.7290119  52.4580890  24.6395537
  37.2730023  53.0710849  24.1450491  36.1476964  53.0160469  25.1562550
  23.1061553  43.8594344   8.9660156  23.4014994  42.9505023   8.9127210
  22.2049589  43.8382084   8.6441158  35.0147632  55.5801608  15.7710564
  34.8898772  54.7791348  15.2621510  35.6726723  56.0747802  15.2824534
  26.6355800  41.9350341  14.9487705  25.9142386  42.5486309  14.8095178
  27.4249056  42.4708106  14.8704351  37.0782540  53.3810628  17.3990114
  36.1312876  53.2615980  17.3268441  37.4265314  52.4933126  17.4816376
  29.4382114  39.2704767  21.2228356  29.9616516  39.5167064  21.9854666
  29.2194447  40.1024802  20.8031494  24.8349395  41.5408442   9.0899481
  24.5062101  40.6605821   8.9074587  25.1888766  41.4856111   9.9775870
  34.0828974  53.1763345  13.5994467  33.9353936  52.2480052  13.7802037
  34.9082467  53.1983435  13.1151542  27.9491218  41.8281412   9.4574959
  28.2887291  42.3567333   8.7353567  28.3963339  42.1661818  10.2333525
  37.6863096  53.9991903  14.6859339  38.6109643  53.7934765  14.5483791
  37.5178399  53.7508305  15.5948681  30.6434659  40.2118462  18.9078027
  30.3031479  39.4126276  19.3098707  29.9373665  40.5120173  18.3354860
  31.2951131  37.2967775  17.3605350  32.1177200  36.8228253  17.2384240
  31.5389194  38.0758259  17.8604036  29.9359365  40.3256033   7.6568252
  30.6567728  40.7037286   7.1531968  29.3124669  41.0444910   7.7603230
  34.0790488  41.0301182   8.5926584  34.2954102  41.9125820   8.2915412
  33.5984555  40.6387396   7.8632226  28.8189709  43.9886896  15.1697329
  28.6734290  44.3027199  16.0621610  28.3414913  44.6071796  14.6168227
  30.6786092  40.9789443  15.2178218  30.6647661  40.0830537  14.8810516
  31.3958520  40.9860107  15.8516504  32.5312223  41.4126784  17.2631346
  32.2730001  42.3343854  17.2615676  31.9997263  41.0157218  17.9531810
  37.4758412  54.5177571  10.0421431  37.6495289  53.9523993   9.2895283
  37.9687303  55.3178466   9.8600921  23.2935372  46.5292240  18.1084990
  22.7488840  47.3052048  18.2405264  24.1714721  46.8763044  17.9504111
  30.0822988  39.8603824  10.4865788  30.2038899  38.9320470  10.6856676
  29.7925031  39.8742510   9.5744104  32.9514179  37.5458734  13.6232508
  32.9735875  37.6098067  12.6684488  33.3682238  36.7063243  13.8173014
  43.3297803  47.2813994  11.6611731  43.7728949  46.5321319  11.2630854
  42.4524313  47.2724130  11.2785463  38.4633584  53.8344335   7.1418329
  39.1584489  54.4551028   7.3605644  38.8056734  52.9839686   7.4170707
  24.0801393  45.6562136  21.0015147  23.3383130  45.8044772  21.5879777
  23.7594138  45.9170402  20.1381896  40.3625007  51.2844041   8.6705660
  40.8876332  51.6231314   7.9454980  40.2747360  50.3491056   8.4868795
  32.0245056  55.1978114  20.7995537  32.3332183  54.9527261  21.6718236
  32.8220538  55.4024753  20.3114407  32.0465668  57.3516024  13.0300913
  31.6070658  56.8592403  13.7233770  32.7973785  56.8088992  12.7892988
  24.5258007  53.5427565  13.0325541  25.3516027  53.2431337  12.6524185
  24.1752059  52.7735187  13.4815330  29.4939540  52.8954033  15.1023215
  28.8719550  52.2324738  14.8025443  30.1644407  52.9215165  14.4196863
  22.7266612  51.4613891  13.9914475  21.8898521  51.0336066  13.8098476
  22.6990258  51.6546335  14.9285266  29.5664068  41.3735821  24.6955721
  29.6152223  42.2497944  24.3133490  30.1086582  40.8313214  24.1227364
  40.0518913  51.9176944  23.9756858  39.2614457  51.9001083  23.4361357
  39.8152268  52.4565238  24.7305894  40.1716789  48.7669411  21.2889586
  40.2214793  48.6019418  22.2305109  40.0630712  47.8996670  20.8987467
  29.0553047  51.4457956   8.5781675  29.2041168  52.1293421   7.9248348
  29.8619491  51.4263047   9.0931131  37.4620551  44.7500339  22.6048893
  38.3630414  44.6106804  22.3132891  37.5368525  44.9154794  23.5447071
  31.7963356  42.1267194  21.4502079  30.9266666  42.4200760  21.1784668
  32.0322837  42.7107639  22.1709343  41.6734985  51.1866352  21.5331608
  41.3819794  51.5496333  22.3695069  41.0607117  50.4733361  21.3544940
  42.8730668  48.7519232  14.0534178  43.7077559  49.1909036  14.2171739
  43.0089796  48.2757885  13.2342424  39.9222174  46.3098967  20.0011666
  40.3976295  46.5026613  19.1930517  38.9987739  46.3658153  19.7555050
  26.8105680  47.4723134   9.5842744  26.5651722  46.5685464   9.7822954
  26.9801595  47.4740285   8.6422222  34.5002390  38.3446810  18.9667500
  35.0184334  39.0807837  18.6413988  34.1457523  38.6510804  19.8014259
  34.7514984  34.7647093  14.4868396  35.0316738  34.0970282  15.1128823
  35.5365591  34.9576189  13.9743060  32.5548453  53.9406087   6.0493423
  31.9822420  54.5596274   5.5963895  33.1281246  54.4905449   6.5833345
  38.6223843  43.1864727  18.2339972  39.5741265  43.2862825  18.2552196
  38.4527293  42.3942996  18.7438056  36.6438222  40.2720310  18.4199372
  36.0488154  40.5525323  17.7245861  36.3587919  40.7614211  19.1916114
  35.7745713  54.2243237   7.1802005  36.7076386  54.1588799   7.3834881
  35.6868925  55.0599504   6.7216538  38.4033729  53.5409107   4.1405953
  38.3247361  53.2068971   5.0341711  39.2243396  54.0330875   4.1397425
  41.1011920  46.4070847  17.3482271  41.0688240  45.4686847  17.5341955
  41.7112544  46.4854883  16.6148096  32.9395251  45.2766900   3.3909475
  33.8854356  45.1473108   3.4597893  32.5609496  44.5381562   3.8678903
  41.2506409  43.1981890  17.3940554  40.7345458  42.4140347  17.2070483
  42.1346357  42.8700607  17.5587074  38.9117136  36.9422906  13.3536367
  38.7141957  36.6337994  14.2379699  39.5216841  37.6684545  13.4834297
  46.9188470  47.4686854  16.4888308  47.6491859  47.2072142  17.0496011
  46.3095416  46.7315575  16.5290376  45.0003767  45.6094716  17.0862759
  44.2736931  45.4750681  16.4779251  44.5851054  45.9171545  17.8919477
  32.8233944  49.3284646  24.8510132  33.7436953  49.5063245  25.0450179
  32.7883527  48.3840691  24.6989831  22.0416109  44.5223239  13.7763407
  21.7218893  43.6688548  13.4837781  21.4949537  44.7371818  14.5321374
  25.8196016  47.2385680  17.4932913  26.0382026  48.1702788  17.5120947
  26.2321790  46.8793655  18.2787717  32.7400234  37.7453766   9.4808602
  31.9300962  37.4000851   9.8563848  33.4284651  37.4361309  10.0696213
  34.6690782  36.8231813  11.1032898  35.2221821  37.2427266  11.7622922
  34.9060869  35.8967561  11.1455854  30.6923882  42.8118886  26.8835662
  30.5920609  43.7613243  26.8147753  30.4745424  42.4837125  26.0111732
  21.9104369  48.1426151  15.7456528  21.2167840  47.7280104  15.2326483
  22.6577360  48.1846687  15.1489947  38.0469589  38.9332338  10.6111563
  37.4668259  39.5917142  10.2289615  37.7805522  38.1109682  10.1998980
  36.4973156  38.3337395  12.8132883  36.9972934  38.4453930  12.0047202
  37.1408764  38.0298448  13.4533691  30.5555152  46.2416025  25.7000724
  30.0722233  47.0416385  25.9064613  30.6416091  46.2523970  24.7468168
  23.8241111  48.0744405  13.6222543  23.8011799  48.1732092  12.6704426
  24.1341748  48.9209556  13.9439709  26.4828489  50.1320560  17.7369158
  27.4371743  50.1004502  17.6699089  26.2841013  49.6711183  18.5519384
  27.0727871  48.7021676  20.3039955  27.8920760  49.1965754  20.3274793
  27.3464679  47.7853644  20.2757523  36.8294468  41.0932428   9.6667911
  35.9420323  41.3782079   9.4488106  37.2448457  40.9326191   8.8195188
  40.1809004  41.1178949  13.3822250  40.9569394  41.6075402  13.6546867
  39.4557138  41.5437003  13.8394120  42.6181562  41.8306568  14.4396191
  43.2126053  41.5902304  13.7289499  42.6908146  41.1113699  15.0669727
  24.8378718  55.6740179  14.7539356  24.7033186  54.9140580  14.1877354
  24.4210780  56.3981079  14.2868145  35.9737681  50.8577103   3.7615931
  36.6773531  51.0627105   4.3773587  35.2500330  51.4253865   4.0265014
  36.8035491  46.6086964   9.8818201  36.7470693  47.0655515   9.0425834
  37.3563834  45.8477649   9.7041044  40.6140297  42.3976696  10.7068321
  40.3577231  41.9973332  11.5376528  39.9893165  43.1120490  10.5818460
  44.9252635  45.1372769  13.2139612  44.3652193  45.2065958  13.9871174
  44.3196138  44.9613754  12.4939108  27.9947844  56.5709496  14.9657798
  27.8780228  57.5154929  14.8636489  27.1740290  56.2683058  15.3543597
  37.8824378  51.2959632   5.8114391  38.7169982  50.8640830   5.6291866
  37.7208721  51.1241646   6.7391285  37.5370271  47.7991745   7.1770730
  37.4819074  47.6336017   6.2359174  36.9116326  48.5067778   7.3332920
  22.3262786  43.0359810  21.0032152  22.9721649  42.5258764  21.4919378
  22.1179937  43.7728491  21.5775578  34.8516178  50.1040657  26.5024293
  35.7207337  50.2781309  26.1410928  34.3722929  50.9235074  26.3800022
  29.0202358  57.2237758  18.1813727  29.9229605  57.2561368  18.4980222
  28.7939728  56.2938209  18.1960062  30.7755960  55.9768745  14.8423805
  29.8251591  55.9770606  14.7288178  31.0788446  55.2301479  14.3259840
  34.6618515  33.8942631  11.0101985  33.8950911  33.3401118  11.1558668
  35.0729220  33.9664500  11.8716137  26.6660277  40.1827427  25.1007167
  27.5291738  39.8264232  25.3110491  26.0925687  39.8441322  25.7882571
  46.5108653  61.8129283  15.9069568  47.1487063  61.6936030  15.2032908
  46.3929496  62.7610127  15.9657520  43.3198360  61.7656711  15.8431092
  42.9816871  61.6497776  14.9551627  44.1888128  61.3647876  15.8232099
  39.1785175  63.6192188  11.8327983  38.6150041  63.5282125  11.0644271
  39.0637571  62.7992092  12.3130476  43.8018143  62.9191563  21.8017298
  43.7906784  62.5244361  20.9297802  43.9638782  62.1857636  22.3951069
  36.7249607  65.1143379  14.6712204  37.5170899  64.7734204  14.2558503
  36.9646258  65.2238354  15.5914357  44.7584734  67.2863155   7.1442448
  44.1072714  67.8717236   6.7576462  45.5529097  67.8169350   7.2037486
  38.6840361  64.3752292   7.5429583  39.4571237  63.8281280   7.4042458
  39.0365760  65.2396542   7.7544044  40.5225404  65.7028675  20.7496482
  40.2315270  66.6074306  20.6343148  41.1582388  65.7445202  21.4640551
  41.4481611  63.0805523  17.3397842  42.0445183  62.8561546  16.6254805
  41.5056582  62.3390269  17.9423289  41.0206639  60.5344959   5.1748033
  41.2732160  60.0126480   4.4131496  40.0831198  60.3711104   5.2774716
  46.0649922  59.5380737  12.9822776  46.8513011  59.1200160  12.6313193
  46.3288626  60.4426829  13.1504424  46.2359999  64.9753587   7.6811433
  45.6005832  65.0488214   8.3932337  45.9057406  65.5647186   7.0030512
  51.4658349  59.4755970  13.8855754  52.1983521  58.9055187  14.1193584
  50.7097705  59.0877571  14.3262260  40.7402928  62.4373065   7.3772407
  40.6239186  61.7617968   8.0453492  40.8505188  61.9505438   6.5604561
  43.0834469  61.8983212  11.0819097  42.7192676  61.3713833  11.7932018
  43.9401585  61.5081681  10.9085582  48.9883769  53.1877544  18.3450363
  48.6567094  54.0572955  18.1211578  48.3929383  52.8713828  19.0244393
  42.7239956  56.9273111   6.0780445  42.8914358  57.7953348   6.4450916
  42.5337125  57.0900393   5.1541734  45.4815289  65.3890090  17.7446276
  45.1816012  66.2915129  17.6362083  45.1366348  65.1222273  18.5967428
  38.9327770  61.8403887  13.7782980  38.0078267  61.7080101  13.9860672
  39.1812184  62.6198106  14.2752922  48.8812433  57.9072630  15.4243713
  47.9729310  57.8388039  15.1302474  48.8300029  58.3844575  16.2525538
  42.7029177  59.3830769   7.0627112  42.5828802  59.8287820   7.9012592
  42.0081765  59.7316087   6.5040650  36.2936581  61.4837161  14.6126769
  36.4228963  61.7371640  15.5266181  35.6134033  62.0764869  14.2931424
  40.4636069  72.1534411  10.7117243  40.3860098  73.1042236  10.7905724
  39.8597712  71.8080283  11.3692170  42.9553299  59.3262276  23.3678610
  42.1786633  59.8856196  23.3581475  43.5943862  59.8119059  23.8893480
  50.7474079  56.1089069  17.2021587  50.1048459  56.4021602  16.5561381
  50.2429008  55.9941989  18.0074784  48.4014243  59.8552242   7.8907446
  49.3132099  60.0879629   7.7155144  47.8923890  60.4389286   7.3282525
  41.2099671  62.1347729  22.9296577  41.9514355  62.6732773  22.6531401
  40.5036656  62.7614018  23.0868129  46.6855010  64.2776870  21.5268739
  47.0938367  63.8359280  20.7823371  45.9632272  63.7029497  21.7802932
  43.0386081  59.2149477  18.9002296  43.8847276  59.6388890  19.0436945
  42.9784718  58.5583101  19.5940859  47.0083825  64.8378060  15.2821028
  46.3792688  65.0023775  14.5797095  46.6209487  65.2519670  16.0531992
  50.8873057  65.7732498  12.6365391  50.2024095  66.1531400  12.0862425
  50.9716906  66.3827825  13.3697339  46.1885526  56.8753845  20.5583469
  45.9446458  57.6295906  20.0217745  46.4645456  57.2539193  21.3930716
  48.1423989  63.4192457  19.2360735  48.3540884  64.0624217  18.5595116
  48.0953737  62.5854774  18.7682665  45.7450218  56.0310278  16.1397307
  44.8834697  56.3291532  16.4314045  45.7712652  56.2480677  15.2078340
  42.5611787  64.5752469  12.5471113  43.0250133  64.8540172  11.7575735
  42.2968585  63.6735913  12.3644203  39.4535868  64.1223950  15.4850876
  40.0237225  64.5511218  14.8468360  40.0443980  63.8406535  16.1835062
  41.4980673  60.6975621   9.3560678  42.2004716  61.1496665   9.8234604
  41.1661302  60.0559440   9.9840571  39.9461035  59.2887378  23.7311887
  39.3159695  59.9703658  23.9647284  39.8397122  59.1770459  22.7865025
  35.2406007  58.9559174  14.6577811  34.4505061  59.2116702  14.1817922
  35.7317254  59.7707511  14.7629852  49.2569817  66.2964413  17.4083092
  50.0787260  65.8944600  17.1265774  49.2532219  66.1932647  18.3599208
  37.1920752  59.3203753  11.6161288  36.3951916  59.4322447  12.1344784
  36.9646345  59.6590405  10.7502179  43.0226420  65.8448456  19.5643803
  43.0870853  66.3068863  20.4001975  42.3137344  65.2145821  19.6926113
  33.5243710  59.2089664  17.0892802  33.7751748  60.0936674  17.3550378
  34.0603258  59.0294266  16.3167894  57.3475810  62.6403161  13.7568064
  56.5939518  62.0710559  13.6012068  57.4823351  62.6065826  14.7038698
  42.7374438  67.5116564   9.4322783  42.6020112  68.3568099   9.8607631
  43.2784250  67.7135841   8.6688717  39.2241777  53.5908143  26.0937138
  38.8308723  53.0374342  26.7684782  40.0407918  53.9018722  26.4843656
  36.1903835  65.0292002  10.0050708  36.7028356  65.8235252  10.1556273
  36.8426548  64.3318292   9.9384310  37.9998720  68.1457758  12.0873461
  38.1765348  69.0675723  11.8994445  38.7955553  67.8316177  12.5167841
  42.1409738  55.0066022  23.6857395  42.8819452  55.6073176  23.6061857
  42.3727661  54.2643660  23.1275437  37.2851076  60.1922390  21.9635625
  37.1704591  59.2907647  22.2642723  36.4295594  60.4386087  21.6120441
  44.3642914  68.1340130  23.5623125  43.9206768  67.3476509  23.2444030
  45.0260128  68.3219281  22.8967016  39.1230035  69.6635932  18.0883804
  39.6737460  69.5352995  17.3160798  38.2841511  69.9630821  17.7378696
  46.4624152  68.4142930  21.5904526  46.4442627  69.2351811  21.0984796
  47.3844072  68.2897005  21.8154668  42.9197206  65.9287059  22.4328035
  43.4525543  65.1675348  22.2027343  42.3911287  65.6360711  23.1752189
  46.0866901  51.0347125  17.9621676  45.7431171  51.9248767  17.8860787
  46.4545864  50.8448783  17.0991262  34.1552752  63.3580656  10.7810279
  34.9927974  63.7677664  10.5643986  34.3331020  62.4180098  10.7510473
  46.0517184  61.0255737   6.4694112  45.5363807  61.7960341   6.7082499
  45.7794492  60.3520873   7.0927173  43.6364295  55.8705437  11.5279350
  42.7805891  55.4812288  11.3484989  44.0491247  55.9497398  10.6679136
  45.1663442  53.4051781  15.9270910  44.6628237  53.3681916  15.1138715
  45.4594049  54.3144523  15.9867566  41.4106328  53.4890510  14.9337091
  42.2759324  53.2933319  14.5742981  41.4783836  53.2600862  15.8606448
  51.0251458  63.7788091   8.4047285  50.2480901  63.4399251   7.9602447
  51.7042939  63.7840714   7.7302250  45.8403487  58.8982829   8.2953893
  45.5353623  59.2128978   9.1464036  46.7933929  58.9764249   8.3381226
  44.2849919  65.0573052   9.9446847  43.7571281  64.3225812   9.6320084
  43.7837422  65.8347728   9.6986815  49.2642765  63.2522072  15.0613893
  48.6066439  63.9421334  15.1494022  50.0683164  63.6418504  15.4047879
  39.0168647  55.7192718  12.3053458  39.5912399  55.4967900  11.5726651
  39.6039629  55.7881413  13.0582060  48.0748224  61.6066445  13.1117835
  48.5880106  62.2396437  13.6139545  48.7249448  61.0067641  12.7461195
  39.3438234  57.7497179   6.3249344  38.5075546  58.0871866   6.6458618
  39.2043003  57.6146159   5.3876481  41.3191314  52.5933967  11.0328528
  40.6655727  52.2782984  10.4085142  41.2771788  51.9709708  11.7588351
  42.4302519  62.8753262   2.9481820  41.5229581  62.6442516   3.1472969
  42.9273551  62.0790881   3.1355801  45.3370598  71.5850769   5.8678506
  44.6632297  71.8882466   6.4763464  45.7236420  72.3879850   5.5183963
  44.5529055  59.0815901  15.3576175  43.6351616  59.3030848  15.1997863
  44.9689198  59.1562211  14.4987883  45.3364102  60.4807316  10.4878856
  46.0835921  60.9928714  10.1785978  45.6055692  60.1591369  11.3483249
  43.6090753  62.9765857   7.4705810  42.7001972  62.6924890   7.5678280
  43.6385836  63.3964936   6.6109117  48.8410020  66.5872447  11.2396977
  48.3872347  65.7463356  11.2962168  48.2103987  67.2233845  11.5771758
  47.7842940  57.5164433  12.4697645  47.0465696  57.0041819  12.8007887
  48.0369713  57.0764814  11.6580922  47.2842959  68.4248943  12.1746796
  47.5765934  68.9854000  11.4559161  47.7941580  68.7177504  12.9299955
  47.8854567  50.2940685  13.0639414  48.1913444  49.4338048  12.7765329
  48.6107172  50.8858305  12.8638408  34.1778923  60.6971371  11.4521012
  33.9803323  60.1040732  10.7272079  33.6225587  60.3923581  12.1696951
  42.1575647  60.5894478  13.5715605  42.2124256  59.6368314  13.4958082
  41.3466849  60.7453917  14.0556904  43.3066840  64.5174601   4.8093888
  42.8686270  63.8010460   4.3499526  44.0477281  64.7450716   4.2478980
  40.0968007  59.2071537  11.3305984  39.2835872  59.5065708  11.7371176
  40.5927001  58.8127226  12.0480466  42.2476584  69.2029294  13.2640249
  42.2052763  69.4290141  12.3348781  43.1639283  68.9692669  13.4126050
  45.6942218  59.6713362  20.1620878  46.0491606  59.8984835  21.0215344
  46.3414349  60.0031739  19.5398133  51.4239955  62.7931798  10.8670207
  51.2857854  62.9833394   9.9391396  51.0676174  63.5551181  11.3238258
  39.5882081  56.7789893  16.9467219  40.2281461  56.6378652  16.2490182
  38.7559612  56.4924406  16.5705821  51.4509335  64.8608325  15.8781479
  51.8845841  64.7683614  16.7264533  52.1640916  64.8365825  15.2401495
  40.3642385  66.0792323  13.0602212  41.1582984  65.5842644  12.8584786
  39.6534078  65.5510187  12.6969917  45.1837230  68.4610419  17.4114579
  45.2374252  69.0301355  18.1792295  44.3152011  68.6312304  17.0468616
  36.6725149  60.2235405   9.1361964  35.7422737  60.1619861   9.3531926
  36.7682621  59.7011358   8.3398605  36.5910698  56.7490218  11.7240206
  36.8517515  57.6635551  11.6149366  37.4127870  56.2814661  11.8736819
  38.0635623  58.1627975  18.8939030  38.7358677  57.9545337  18.2451679
  37.2365410  57.9650061  18.4544263  52.3124884  64.9032025  18.4114364
  52.5060774  65.8077836  18.6573639  52.2125503  64.4439445  19.2452949
  43.9661195  54.7889916  20.9104691  43.3189110  55.4879866  20.8169168
  44.7362211  55.2226060  21.2780939  47.3739993  65.0538768  23.9855245
  47.2225499  64.8249320  23.0685328  47.3644673  66.0109370  23.9986590
  44.1425329  62.6270681  18.9701511  45.0717389  62.7781841  18.7970478
  43.7216359  62.7154702  18.1150158  42.9413661  66.6521345  16.7400049
  42.8024747  66.2840130  17.6125987  42.1528257  67.1668985  16.5684006
  43.5361813  71.7530442   8.0825585  43.7113569  71.2818485   8.8971208
  42.8494601  72.3796208   8.3106846  44.4918876  66.0302948  14.1288886
  44.1568709  65.9903718  15.0246536  43.9922822  65.3647664  13.6559297
  38.4663120  61.4370578  19.6541468  38.3282918  60.7050817  20.2553007
  39.3768044  61.3479478  19.3725655  47.4278068  63.3758982   4.4025946
  46.8107239  62.6505811   4.3058999  46.9594556  64.1368343   4.0593020
  41.0945421  61.1490537  19.1425147  41.8045040  60.5083730  19.1011766
  41.0514729  61.4003432  20.0651328  49.0832200  68.0857891  22.0631726
  49.0244746  67.4017111  21.3962309  49.4851718  68.8276881  21.6112352
  39.8074355  58.1355755  20.9620787  39.2711712  57.6846494  21.6142383
  39.2191063  58.2701664  20.2191251  38.1022898  74.9019805  14.8565445
  38.3419497  75.5338329  15.5344464  37.2592095  74.5507845  15.1430805
  39.2176614  57.5944407   3.5247250  38.3406080  57.4733207   3.1609497
  39.6934367  56.8030485   3.2726139  49.0849607  66.0497475  20.2945706
  48.1976386  65.7123396  20.4172105  49.6548158  65.3180506  20.5314471
  30.7378754  62.3821566  13.6188757  31.4249794  62.0683296  13.0309773
  30.5826883  63.2862931  13.3456009  35.5413476  57.2711763  18.0473781
  35.4571665  56.6637433  17.3124191  34.7196183  57.7620781  18.0483278
  42.6150760  70.7098927  17.2606949  42.5420932  71.5153899  17.7726254
  42.1728153  70.9090893  16.4354971  42.4040540  69.9470697  10.7709771
  41.6208062  70.4892377  10.8647995  43.1033285  70.4644677  11.1704012
  45.7137190  55.7565327  13.4143976  46.2105890  55.0035289  13.0945046
  44.9424172  55.7929643  12.8487186  53.5666948  61.4605692  15.0562268
  53.5556824  62.3430407  14.6856201  52.6984327  61.1077243  14.8616805
  45.0749444  70.6085761  19.4165108  45.7877416  71.2433226  19.3441009
  44.5839473  70.7049627  18.6005110  46.7966971  64.5137014  10.9882400
  45.8623250  64.6338476  10.8187104  46.9743639  63.6109481  10.7242409
  42.2972159  57.8982710  13.1415661  41.9269946  57.3453750  13.8296566
  42.7931251  57.2940843  12.5890661  50.1839522  60.3554333  11.5232434
  50.6499974  61.1882325  11.4492736  50.6347023  59.8899315  12.2277692
  40.1261357  68.3580205  20.2370679  40.8270817  68.9916687  20.3900073
  39.6556472  68.6994936  19.4766318  48.2515753  66.6998154   8.5218586
  48.5275597  66.5854749   9.4312460  47.3820252  66.3015639   8.4830759
  48.1556185  52.7234920  15.5623335  47.2419265  52.9539147  15.7305542
  48.5849286  52.8073364  16.4137367  47.9262643  60.9124812  18.0623229
  47.2734094  61.1600719  17.4075682  48.3043023  60.0988950  17.7285706
  44.8869817  70.9484505  12.1651399  45.0692212  70.1306161  12.6279152
  45.7102803  71.1652197  11.7276289  45.2211983  69.8752690   9.4266448
  45.7499749  69.3645145   8.8136610  45.4840202  69.5595220  10.2911981
  43.9750216  61.6544623  24.5489266  43.2990853  61.5538752  25.2191641
  44.7977850  61.4983837  25.0125263  35.7229075  67.8916560  17.1701781
  36.3082512  67.1460247  17.3029686  35.5253914  68.2020516  18.0538445
  38.5767731  70.9267807  12.1864224  37.9078106  71.4113935  11.7028264
  38.4380600  71.1737027  13.1007602  30.3146730  60.4622160  15.8906225
  30.3530830  59.9285750  16.6843343  29.8087023  59.9357365  15.2717202
  42.7172999  72.9611550  18.7846882  43.2691307  73.1243172  19.5495967
  43.0579193  73.5515988  18.1126907  37.6937493  55.3086700  19.3868767
  37.7578819  56.1701531  18.9746165  37.6304613  54.6960702  18.6541125
  37.1689765  57.3809833  23.0341801  37.7961804  56.9986910  23.6479325
  36.3117684  57.1624035  23.3997494  47.5683874  67.7872808  24.6395537
  48.1123778  68.4002766  24.1450491  46.9870718  68.3452386  25.1562550
  33.9455308  59.1886262   8.9660156  34.2408749  58.2796940   8.9127210
  33.0443344  59.1674001   8.6441158  45.8541387  70.9093526  15.7710564
  45.7292526  70.1083266  15.2621510  46.5120478  71.4039719  15.2824534
  37.4749555  57.2642259  14.9487705  36.7536141  57.8778226  14.8095178
  38.2642811  57.8000023  14.8704351  47.9176295  68.7102546  17.3990114
  46.9706630  68.5907897  17.3268441  48.2659068  67.8225044  17.4816376
  40.2775868  54.5996685  21.2228356  40.8010270  54.8458982  21.9854666
  40.0588202  55.4316720  20.8031494  35.6743149  56.8700360   9.0899481
  35.3455856  55.9897739   8.9074587  36.0282520  56.8148028   9.9775870
  44.9222728  68.5055262  13.5994467  44.7747691  67.5771970  13.7802037
  45.7476222  68.5275353  13.1151542  38.7884973  57.1573329   9.4574959
  39.1281045  57.6859251   8.7353567  39.2357093  57.4953736  10.2333525
  48.5256850  69.3283821  14.6859339  49.4503398  69.1226682  14.5483791
  48.3572153  69.0800222  15.5948681  41.4828413  55.5410380  18.9078027
  41.1425234  54.7418193  19.3098707  40.7767420  55.8412091  18.3354860
  42.1344885  52.6259693  17.3605350  42.9570954  52.1520171  17.2384240
  42.3782949  53.4050176  17.8604036  40.7753120  55.6547951   7.6568252
  41.4961482  56.0329204   7.1531968  40.1518424  56.3736828   7.7603230
  44.9184243  56.3593100   8.5926584  45.1347857  57.2417738   8.2915412
  44.4378310  55.9679313   7.8632226  39.6583464  59.3178813  15.1697329
  39.5128045  59.6319116  16.0621610  39.1808668  59.9363714  14.6168227
  41.5179847  56.3081361  15.2178218  41.5041416  55.4122454  14.8810516
  42.2352275  56.3152025  15.8516504  43.3705978  56.7418701  17.2631346
  43.1123755  57.6635772  17.2615676  42.8391018  56.3449136  17.9531810
  48.3152166  69.8469488  10.0421431  48.4889044  69.2815911   9.2895283
  48.8081058  70.6470383   9.8600921  34.1329126  61.8584158  18.1084990
  33.5882594  62.6343966  18.2405264  35.0108476  62.2054962  17.9504111
  40.9216743  55.1895741  10.4865788  41.0432654  54.2612388  10.6856676
  40.6318785  55.2034427   9.5744104  43.7907933  52.8750652  13.6232508
  43.8129630  52.9389985  12.6684488  44.2075992  52.0355161  13.8173014
  54.1691557  62.6105911  11.6611731  54.6122703  61.8613237  11.2630854
  53.2918068  62.6016048  11.2785463  49.3027339  69.1636253   7.1418329
  49.9978243  69.7842946   7.3605644  49.6450489  68.3131604   7.4170707
  34.9195148  60.9854054  21.0015147  34.1776884  61.1336689  21.5879777
  34.5987892  61.2462319  20.1381896  51.2018762  66.6135958   8.6705660
  51.7270086  66.9523231   7.9454980  51.1141114  65.6782974   8.4868795
  42.8638811  70.5270032  20.7995537  43.1725937  70.2819179  21.6718236
  43.6614293  70.7316671  20.3114407  42.8859423  72.6807942  13.0300913
  42.4464413  72.1884320  13.7233770  43.6367540  72.1380909  12.7892988
  35.3651762  68.8719483  13.0325541  36.1909782  68.5723254  12.6524185
  35.0145814  68.1027105  13.4815330  40.3333295  68.2245951  15.1023215
  39.7113304  67.5616656  14.8025443  41.0038162  68.2507083  14.4196863
  33.5660367  66.7905809  13.9914475  32.7292275  66.3627983  13.8098476
  33.5384012  66.9838252  14.9285266  40.4057822  56.7027739  24.6955721
  40.4545978  57.5789862  24.3133490  40.9480336  56.1605132  24.1227364
  50.8912668  67.2468862  23.9756858  50.1008212  67.2293001  23.4361357
  50.6546023  67.7857156  24.7305894  51.0110543  64.0961328  21.2889586
  51.0608548  63.9311336  22.2305109  50.9024466  63.2288587  20.8987467
  39.8946802  66.7749874   8.5781675  40.0434922  67.4585339   7.9248348
  40.7013245  66.7554964   9.0931131  48.3014305  60.0792256  22.6048893
  49.2024168  59.9398721  22.3132891  48.3762280  60.2446711  23.5447071
  42.6357111  57.4559111  21.4502079  41.7660420  57.7492677  21.1784668
  42.8716591  58.0399556  22.1709343  52.5128740  66.5158270  21.5331608
  52.2213548  66.8788251  22.3695069  51.9000871  65.8025278  21.3544940
  53.7124422  64.0811150  14.0534178  54.5471314  64.5200954  14.2171739
  53.8483551  63.6049803  13.2342424  50.7615928  61.6390885  20.0011666
  51.2370050  61.8318531  19.1930517  49.8381493  61.6950070  19.7555050
  37.6499435  62.8015052   9.5842744  37.4045477  61.8977382   9.7822954
  37.8195349  62.8032202   8.6422222  45.3396145  53.6738728  18.9667500
  45.8578088  54.4099755  18.6413988  44.9851277  53.9802721  19.8014259
  36.9195082  58.5343409   7.0828906  36.2264327  58.6087764   6.4268942
  36.6746834  57.7703753   7.6050423  45.5908739  50.0939011  14.4868396
  45.8710493  49.4262200  15.1128823  46.3759346  50.2868106  13.9743060
  43.3942207  69.2698005   6.0493423  42.8216174  69.8888192   5.5963895
  43.9675001  69.8197366   6.5833345  49.4617597  58.5156645  18.2339972
  50.4135020  58.6154742  18.2552196  49.2921048  57.7234913  18.7438056
  47.4831977  55.6012228  18.4199372  46.8881909  55.8817241  17.7245861
  47.1981673  56.0906129  19.1916114  46.6139467  69.5535155   7.1802005
  47.5470140  69.4880716   7.3834881  46.5262680  70.3891422   6.7216538
  49.2427484  68.8701025   4.1405953  49.1641115  68.5360889   5.0341711
  50.0637150  69.3622793   4.1397425  51.9405675  61.7362764  17.3482271
  51.9081995  60.7978765  17.5341955  52.5506299  61.8146801  16.6148096
  43.7789006  60.6058817   3.3909475  44.7248110  60.4765025   3.4597893
  43.4003251  59.8673479   3.8678903  52.0900163  58.5273808  17.3940554
  51.5739212  57.7432264  17.2070483  52.9740112  58.1992524  17.5587074
  49.7510890  52.2714823  13.3536367  49.5535711  51.9629912  14.2379699
  50.3610596  52.9976462  13.4834297  57.7582225  62.7978771  16.4888308
  58.4885613  62.5364059  17.0496011  57.1489170  62.0607493  16.5290376
  55.8397522  60.9386634  17.0862759  55.1130685  60.8042599  16.4779251
  55.4244809  61.2463462  17.8919477  43.6627698  64.6576563  24.8510132
  44.5830708  64.8355162  25.0450179  43.6277281  63.7132609  24.6989831
  41.9631923  58.5308794   3.3264360  41.0563378  58.2341906   3.4027074
  42.2407904  58.2338612   2.4598647  32.8809863  59.8515157  13.7763407
  32.5612648  58.9980465  13.4837781  32.3343291  60.0663735  14.5321374
  36.6589771  62.5677598  17.4932913  36.8775781  63.4994706  17.5120947
  37.0715545  62.2085573  18.2787717  43.5793989  53.0745683   9.4808602
  42.7694717  52.7292768   9.8563848  44.2678406  52.7653227  10.0696213
  45.5084537  52.1523730  11.1032898  46.0615576  52.5719184  11.7622922
  45.7454623  51.2259478  11.1455854  41.5317636  58.1410804  26.8835662
  41.4314363  59.0905161  26.8147753  41.3139178  57.8129043  26.0111732
  40.7330708  55.3895729   3.4676340  41.5949872  55.7150627   3.7272157
  40.9181052  54.6027225   2.9549405  32.7498123  63.4718069  15.7456528
  32.0561595  63.0572021  15.2326483  33.4971114  63.5138605  15.1489947
  48.8863344  54.2624255  10.6111563  48.3062013  54.9209059  10.2289615
  48.6199277  53.4401600  10.1998980  47.3366910  53.6629313  12.8132883
  47.8366689  53.7745848  12.0047202  47.9802518  53.3590366  13.4533691
  41.3948906  61.5707943  25.7000724  40.9115988  62.3708303  25.9064613
  41.4809845  61.5815888  24.7468168  34.6634866  63.4036322  13.6222543
  34.6405554  63.5024010  12.6704426  34.9735502  64.2501473  13.9439709
  37.3222244  65.4612477  17.7369158  38.2765497  65.4296420  17.6699089
  37.1234767  65.0003101  18.5519384  37.9121626  64.0313593  20.3039955
  38.7314515  64.5257672  20.3274793  38.1858434  63.1145562  20.2757523
  47.6688222  56.4224346   9.6667911  46.7814077  56.7073996   9.4488106
  48.0842211  56.2618109   8.8195188  51.0202758  56.4470867  13.3822250
  51.7963148  56.9367319  13.6546867  50.2950892  56.8728921  13.8394120
  53.4575317  57.1598486  14.4396191  54.0519808  56.9194222  13.7289499
  53.5301900  56.4405617  15.0669727  35.6772472  71.0032097  14.7539356
  35.5426940  70.2432498  14.1877354  35.2604535  71.7272997  14.2868145
  46.8131435  66.1869020   3.7615931  47.5167286  66.3919023   4.3773587
  46.0894084  66.7545782   4.0265014  47.6429246  61.9378882   9.8818201
  47.5864447  62.3947433   9.0425834  48.1957588  61.1769566   9.7041044
  51.4534052  57.7268614  10.7068321  51.1970986  57.3265249  11.5376528
  50.8286920  58.4412408  10.5818460  55.7646390  60.4664687  13.2139612
  55.2045947  60.5357876  13.9871174  55.1589893  60.2905671  12.4939108
  38.8341598  71.9001414  14.9657798  38.7173982  72.8446846  14.8636489
  38.0134045  71.5974975  15.3543597  48.7218133  66.6251550   5.8114391
  49.5563737  66.1932748   5.6291866  48.5602476  66.4533563   6.7391285
  48.3764025  63.1283663   7.1770730  48.3212829  62.9627934   6.2359174
  47.7510080  63.8359696   7.3332920  33.1656540  58.3651727  21.0032152
  33.8115404  57.8550681  21.4919378  32.9573691  59.1020409  21.5775578
  45.6909932  65.4332575  26.5024293  46.5601092  65.6073227  26.1410928
  45.2116684  66.2526992  26.3800022  41.6860151  52.6291772   6.7556049
  41.6738820  53.5733612   6.9124320  42.5783572  52.4461917   6.4615510
  39.8596112  72.5529676  18.1813727  40.7623359  72.5853286  18.4980222
  39.6333483  71.6230127  18.1960062  41.6149714  71.3060662  14.8423805
  40.6645345  71.3062524  14.7288178  41.9182201  70.5593397  14.3259840
  45.5012270  49.2234549  11.0101985  44.7344666  48.6693035  11.1558668
  45.9122975  49.2956417  11.8716137  37.5054031  55.5119344  25.1007167
  38.3685493  55.1556149  25.3110491  36.9319442  55.1733239  25.7882571
  57.3502408  77.1421201  15.9069568  57.9880818  77.0227948  15.2032908
  57.2323251  78.0902045  15.9657520  54.1592114  77.0948629  15.8431092
  53.8210626  76.9789694  14.9551627  55.0281882  76.6939794  15.8232099
  50.0178930  78.9484105  11.8327983  49.4543795  78.8574042  11.0644271
  49.9031325  78.1284010  12.3130476  54.6411897  78.2483481  21.8017298
  54.6300538  77.8536279  20.9297802  54.8032537  77.5149553  22.3951069
  47.5643362  80.4435297  14.6712204  48.3564654  80.1026122  14.2558503
  47.8040012  80.5530272  15.5914357  55.5978489  82.6155073   7.1442448
  54.9466468  83.2009153   6.7576462  56.3922851  83.1461268   7.2037486
  49.5234116  79.7044210   7.5429583  50.2964992  79.1573197   7.4042458
  49.8759515  80.5688459   7.7544044  51.3619158  81.0320592  20.7496482
  51.0709024  81.9366223  20.6343148  51.9976143  81.0737120  21.4640551
  52.2875365  78.4097441  17.3397842  52.8838937  78.1853463  16.6254805
  52.3450337  77.6682186  17.9423289  51.8600394  75.8636876   5.1748033
  52.1125914  75.3418398   4.4131496  50.9224953  75.7003022   5.2774716
  56.9043676  74.8672655  12.9822776  57.6906766  74.4492078  12.6313193
  57.1682381  75.7718747  13.1504424  57.0753754  80.3045505   7.6811433
  56.4399587  80.3780131   8.3932337  56.7451160  80.8939104   7.0030512
  62.3052104  74.8047888  13.8855754  63.0377276  74.2347105  14.1193584
  61.5491459  74.4169488  14.3262260  51.5796682  77.7664982   7.3772407
  51.4632940  77.0909886   8.0453492  51.6898942  77.2797356   6.5604561
  53.9228223  77.2275129  11.0819097  53.5586431  76.7005750  11.7932018
  54.7795339  76.8373598  10.9085582  59.8277524  68.5169462  18.3450363
  59.4960849  69.3864873  18.1211578  59.2323137  68.2005746  19.0244393
  53.5633710  72.2565029   6.0780445  53.7308113  73.1245265   6.4450916
  53.3730879  72.4192311   5.1541734  56.3209043  80.7182008  17.7446276
  56.0209767  81.6207047  17.6362083  55.9760103  80.4514191  18.5967428
  49.7721525  77.1695805  13.7782980  48.8472021  77.0372019  13.9860672
  50.0205938  77.9490024  14.2752922  59.7206187  73.2364548  15.4243713
  58.8123065  73.1679957  15.1302474  59.6693783  73.7136493  16.2525538
  53.5422931  74.7122687   7.0627112  53.4222556  75.1579737   7.9012592
  52.8475520  75.0608004   6.5040650  47.1330336  76.8129078  14.6126769
  47.2622717  77.0663557  15.5266181  46.4527787  77.4056786  14.2931424
  51.3029823  87.4826328  10.7117243  51.2253853  88.4334153  10.7905724
  50.6991467  87.1372201  11.3692170  53.7947053  74.6554194  23.3678610
  53.0180387  75.2148114  23.3581475  54.4337616  75.1410977  23.8893480
  61.5867834  71.4380987  17.2021587  60.9442214  71.7313520  16.5561381
  61.0822762  71.3233907  18.0074784  59.2407997  75.1844160   7.8907446
  60.1525853  75.4171546   7.7155144  58.7317644  75.7681204   7.3282525
  52.0493425  77.4639647  22.9296577  52.7908110  78.0024691  22.6531401
  51.3430411  78.0905936  23.0868129  57.5248765  79.6068788  21.5268739
  57.9332121  79.1651198  20.7823371  56.8026026  79.0321415  21.7802932
  53.8779835  74.5441394  18.9002296  54.7241030  74.9680808  19.0436945
  53.8178473  73.8875019  19.5940859  57.8477580  80.1669978  15.2821028
  57.2186442  80.3315692  14.5797095  57.4603242  80.5811588  16.0531992
  61.7266812  81.1024416  12.6365391  61.0417850  81.4823317  12.0862425
  61.8110661  81.7119743  13.3697339  57.0279280  72.2045763  20.5583469
  56.7840212  72.9587823  20.0217745  57.3039211  72.5831110  21.3930716
  58.9817743  78.7484375  19.2360735  59.1934638  79.3916135  18.5595116
  58.9347491  77.9146692  18.7682665  56.5843972  71.3602196  16.1397307
  55.7228451  71.6583449  16.4314045  56.6106407  71.5772595  15.2078340
  53.4005542  79.9044386  12.5471113  53.8643887  80.1832089  11.7575735
  53.1362340  79.0027831  12.3644203  50.2929623  79.4515868  15.4850876
  50.8630980  79.8803136  14.8468360  50.8837734  79.1698452  16.1835062
  52.3374428  76.0267539   9.3560678  53.0398471  76.4788582   9.8234604
  52.0055056  75.3851357   9.9840571  50.7854789  74.6179295  23.7311887
  50.1553450  75.2995576  23.9647284  50.6790877  74.5062377  22.7865025
  46.0799762  74.2851091  14.6577811  45.2898816  74.5408620  14.1817922
  46.5711009  75.0999429  14.7629852  60.0963571  81.6256330  17.4083092
  60.9181015  81.2236518  17.1265774  60.0925974  81.5224565  18.3599208
  48.0314507  74.6495671  11.6161288  47.2345670  74.7614365  12.1344784
  47.8040099  74.9882323  10.7502179  53.8620175  81.1740374  19.5643803
  53.9264607  81.6360781  20.4001975  53.1531098  80.5437739  19.6926113
  44.3637465  74.5381582  17.0892802  44.6145503  75.4228592  17.3550378
  44.8997013  74.3586183  16.3167894  68.1869564  77.9695079  13.7568064
  67.4333273  77.4002477  13.6012068  68.3217105  77.9357743  14.7038698
  53.5768192  82.8408481   9.4322783  53.4413867  83.6860017   9.8607631
  54.1178005  83.0427759   8.6688717  50.0635532  68.9200061  26.0937138
  49.6702477  68.3666260  26.7684782  50.8801672  69.2310640  26.4843656
  47.0297590  80.3583919  10.0050708  47.5422110  81.1527170  10.1556273
  47.6820302  79.6610210   9.9384310  48.8392474  83.4749676  12.0873461
  49.0159103  84.3967640  11.8994445  49.6349308  83.1608095  12.5167841
  52.9803493  70.3357940  23.6857395  53.7213206  70.9365093  23.6061857
  53.2121416  69.5935578  23.1275437  48.1244831  75.5214307  21.9635625
  48.0098346  74.6199565  22.2642723  47.2689349  75.7678004  21.6120441
  55.2036669  83.4632048  23.5623125  54.7600523  82.6768426  23.2444030
  55.8653882  83.6511198  22.8967016  49.9623790  84.9927849  18.0883804
  50.5131215  84.8644913  17.3160798  49.1235266  85.2922738  17.7378696
  57.3017907  83.7434848  21.5904526  57.2836382  84.5643729  21.0984796
  58.2237827  83.6188923  21.8154668  53.7590961  81.2578977  22.4328035
  54.2919298  80.4967265  22.2027343  53.2305042  80.9652629  23.1752189
  56.9260656  66.3639043  17.9621676  56.5824925  67.2540685  17.8860787
  57.2939618  66.1740701  17.0991262  44.9946506  78.6872574  10.7810279
  45.8321728  79.0969582  10.5643986  45.1724774  77.7472016  10.7510473
  56.8910938  76.3547654   6.4694112  56.3757562  77.1252259   6.7082499
  56.6188247  75.6812790   7.0927173  54.4758050  71.1997355  11.5279350
  53.6199646  70.8104205  11.3484989  54.8885001  71.2789316  10.6679136
  56.0057196  68.7343698  15.9270910  55.5021992  68.6973833  15.1138715
  56.2987803  69.6436441  15.9867566  52.2500082  68.8182428  14.9337091
  53.1153079  68.6225237  14.5742981  52.3177591  68.5892780  15.8606448
  61.8645213  79.1080009   8.4047285  61.0874655  78.7691168   7.9602447
  62.5436694  79.1132632   7.7302250  56.6797242  74.2274746   8.2953893
  56.3747377  74.5420895   9.1464036  57.6327684  74.3056166   8.3381226
  55.1243673  80.3864970   9.9446847  54.5965035  79.6517729   9.6320084
  54.6231176  81.1639646   9.6986815  60.1036520  78.5813990  15.0613893
  59.4460194  79.2713252  15.1494022  60.9076919  78.9710422  15.4047879
  49.8562401  71.0484636  12.3053458  50.4306153  70.8259817  11.5726651
  50.4433384  71.1173330  13.0582060  58.9141978  76.9358363  13.1117835
  59.4273860  77.5688355  13.6139545  59.5643202  76.3359558  12.7461195
  50.1831988  73.0789097   6.3249344  49.3469300  73.4163783   6.6458618
  50.0436758  72.9438077   5.3876481  52.1585069  67.9225885  11.0328528
  51.5049481  67.6074902  10.4085142  52.1165543  67.3001625  11.7588351
  53.2696274  78.2045180   2.9481820  52.3623335  77.9734433   3.1472969
  53.7667306  77.4082799   3.1355801  55.3922809  74.4107818  15.3576175
  54.4745371  74.6322765  15.1997863  55.8082953  74.4854129  14.4987883
  56.1757857  75.8099234  10.4878856  56.9229676  76.3220631  10.1785978
  56.4449446  75.4883287  11.3483249  54.4484507  78.3057775   7.4705810
  53.5395726  78.0216808   7.5678280  54.4779591  78.7256853   6.6109117
  59.6803775  81.9164364  11.2396977  59.2266102  81.0755274  11.2962168
  59.0497741  82.5525763  11.5771758  58.6236694  72.8456350  12.4697645
  57.8859451  72.3333736  12.8007887  58.8763468  72.4056732  11.6580922
  58.1236714  83.7540861  12.1746796  58.4159688  84.3145918  11.4559161
  58.6335334  84.0469422  12.9299955  58.7248321  65.6232602  13.0639414
  59.0307198  64.7629966  12.7765329  59.4500926  66.2150222  12.8638408
  45.0172677  76.0263289  11.4521012  44.8197077  75.4332650  10.7272079
  44.4619341  75.7215499  12.1696951  52.9969401  75.9186395  13.5715605
  53.0518011  74.9660232  13.4958082  52.1860603  76.0745834  14.0556904
  54.1460595  79.8466518   4.8093888  53.7080025  79.1302377   4.3499526
  54.8871036  80.0742633   4.2478980  50.9361761  74.5363455  11.3305984
  50.1229627  74.8357626  11.7371176  51.4320755  74.1419144  12.0480466
  53.0870339  84.5321212  13.2640249  53.0446518  84.7582058  12.3348781
  54.0033038  84.2984587  13.4126050  56.5335973  75.0005280  20.1620878
  56.8885360  75.2276753  21.0215344  57.1808104  75.3323656  19.5398133
  62.2633710  78.1223715  10.8670207  62.1251608  78.3125311   9.9391396
  61.9069929  78.8843098  11.3238258  50.4275836  72.1081811  16.9467219
  51.0675215  71.9670570  16.2490182  49.5953366  71.8216324  16.5705821
  62.2903089  80.1900242  15.8781479  62.7239596  80.0975532  16.7264533
  63.0034670  80.1657743  15.2401495  51.2036140  81.4084241  13.0602212
  51.9976738  80.9134561  12.8584786  50.4927832  80.8802104  12.6969917
  56.0230984  83.7902337  17.4114579  56.0768006  84.3593273  18.1792295
  55.1545766  83.9604222  17.0468616  47.5118903  75.5527323   9.1361964
  46.5816491  75.4911778   9.3531926  47.6076375  75.0303276   8.3398605
  47.4304452  72.0782136  11.7240206  47.6911270  72.9927469  11.6149366
  48.2521625  71.6106578  11.8736819  48.9029378  73.4919893  18.8939030
  49.5752431  73.2837255  18.2451679  48.0759164  73.2941979  18.4544263
  63.1518639  80.2323943  18.4114364  63.3454529  81.1369754  18.6573639
  63.0519257  79.7731362  19.2452949  54.8054950  70.1181834  20.9104691
  54.1582865  70.8171783  20.8169168  55.5755965  70.5517978  21.2780939
  58.2133748  80.3830686  23.9855245  58.0619254  80.1541238  23.0685328
  58.2038427  81.3401287  23.9986590  54.9819084  77.9562599  18.9701511
  55.9111144  78.1073758  18.7970478  54.5610114  78.0446619  18.1150158
  53.7807416  81.9813263  16.7400049  53.6418501  81.6132047  17.6125987
  52.9922012  82.4960902  16.5684006  54.3755568  87.0822359   8.0825585
  54.5507323  86.6110403   8.8971208  53.6888356  87.7088126   8.3106846
  55.3312631  81.3594866  14.1288886  54.9962463  81.3195636  15.0246536
  54.8316577  80.6939582  13.6559297  49.3056875  76.7662496  19.6541468
  49.1676673  76.0342735  20.2553007  50.2161798  76.6771396  19.3725655
  51.9339176  76.4782455  19.1425147  52.6438794  75.8375647  19.1011766
  51.8908484  76.7295350  20.0651328  59.9225954  83.4149808  22.0631726
  59.8638500  82.7309029  21.3962309  60.3245473  84.1568798  21.6112352
  50.6468109  73.4647673  20.9620787  50.1105467  73.0138411  21.6142383
  50.0584818  73.5993582  20.2191251  48.9416653  90.2311722  14.8565445
  49.1813251  90.8630246  15.5344464  48.0985849  89.8799762  15.1430805
  50.0570368  72.9236324   3.5247250  49.1799835  72.8025125   3.1609497
  50.5328122  72.1322403   3.2726139  59.9243361  81.3789392  20.2945706
  59.0370140  81.0415314  20.4172105  60.4941913  80.6472424  20.5314471
  41.5772509  77.7113484  13.6188757  42.2643548  77.3975214  13.0309773
  41.4220637  78.6154849  13.3456009  46.3807231  72.6003681  18.0473781
  46.2965419  71.9929350  17.3124191  45.5589937  73.0912699  18.0483278
  53.4544515  86.0390845  17.2606949  53.3814686  86.8445816  17.7726254
  53.0121908  86.2382811  16.4354971  53.2434294  85.2762615  10.7709771
  52.4601816  85.8184295  10.8647995  53.9427040  85.7936594  11.1704012
  56.5530945  71.0857244  13.4143976  57.0499644  70.3327207  13.0945046
  55.7817926  71.1221561  12.8487186  64.4060702  76.7897610  15.0562268
  64.3950578  77.6722325  14.6856201  63.5378081  76.4369161  14.8616805
  55.9143198  85.9377679  19.4165108  56.6271171  86.5725144  19.3441009
  55.4233227  86.0341545  18.6005110  57.6360725  79.8428931  10.9882400
  56.7017004  79.9630394  10.8187104  57.8137394  78.9401398  10.7242409
  53.1365913  73.2274627  13.1415661  52.7663701  72.6745668  13.8296566
  53.6325006  72.6232761  12.5890661  61.0233277  75.6846251  11.5232434
  61.4893729  76.5174242  11.4492736  61.4740777  75.2191232  12.2277692
  50.9655112  83.6872122  20.2370679  51.6664571  84.3208605  20.3900073
  50.4950227  84.0286854  19.4766318  59.0909508  82.0290072   8.5218586
  59.3669352  81.9146667   9.4312460  58.2214006  81.6307557   8.4830759
  58.9949939  68.0526838  15.5623335  58.0813019  68.2831065  15.7305542
  59.4243041  68.1365282  16.4137367  58.7656398  76.2416730  18.0623229
  58.1127848  76.4892637  17.4075682  59.1436778  75.4280868  17.7285706
  55.7263572  86.2776423  12.1651399  55.9085966  85.4598079  12.6279152
  56.5496558  86.4944115  11.7276289  56.0605737  85.2044608   9.4266448
  56.5893504  84.6937063   8.8136610  56.3233957  84.8887138  10.2911981
  54.8143971  76.9836541  24.5489266  54.1384608  76.8830670  25.2191641
  55.6371605  76.8275754  25.0125263  46.5622830  83.2208477  17.1701781
  47.1476267  82.4752165  17.3029686  46.3647668  83.5312434  18.0538445
  49.4161485  86.2559725  12.1864224  48.7471860  86.7405852  11.7028264
  49.2774355  86.5028945  13.1007602  41.1540485  75.7914077  15.8906225
  41.1924584  75.2577668  16.6843343  40.6480778  75.2649283  15.2717202
  53.5566754  88.2903468  18.7846882  54.1085062  88.4535090  19.5495967
  53.8972947  88.8807906  18.1126907  48.5331247  70.6378618  19.3868767
  48.5972573  71.4993449  18.9746165  48.4698367  70.0252620  18.6541125
  48.0083520  72.7101751  23.0341801  48.6355558  72.3278828  23.6479325
  47.1511438  72.4915952  23.3997494  58.4077628  83.1164726  24.6395537
  58.9517532  83.7294684  24.1450491  57.8264473  83.6744304  25.1562550
  44.7849062  74.5178180   8.9660156  45.0802503  73.6088858   8.9127210
  43.8837098  74.4965919   8.6441158  56.6935141  86.2385444  15.7710564
  56.5686281  85.4375184  15.2621510  57.3514232  86.7331637  15.2824534
  48.3143309  72.5934176  14.9487705  47.5929895  73.2070144  14.8095178
  49.1036565  73.1291941  14.8704351  58.7570049  84.0394464  17.3990114
  57.8100385  83.9199815  17.3268441  59.1052823  83.1516962  17.4816376
  51.1169623  69.9288603  21.2228356  51.6404025  70.1750899  21.9854666
  50.8981956  70.7608638  20.8031494  46.5136904  72.1992277   9.0899481
  46.1849610  71.3189656   8.9074587  46.8676275  72.1439946   9.9775870
  55.7616483  83.8347180  13.5994467  55.6141445  82.9063887  13.7802037
  56.5869976  83.8567271  13.1151542  49.6278727  72.4865247   9.4574959
  49.9674800  73.0151168   8.7353567  50.0750847  72.8245653  10.2333525
  59.3650605  84.6575739  14.6859339  60.2897152  84.4518600  14.5483791
  59.1965908  84.4092140  15.5948681  52.3222168  70.8702298  18.9078027
  51.9818988  70.0710111  19.3098707  51.6161174  71.1704009  18.3354860
  52.9738640  67.9551610  17.3605350  53.7964709  67.4812088  17.2384240
  53.2176703  68.7342094  17.8604036  51.6146874  70.9839869   7.6568252
  52.3355237  71.3621121   7.1531968  50.9912178  71.7028745   7.7603230
  55.7577997  71.6885018   8.5926584  55.9741611  72.5709656   8.2915412
  55.2772064  71.2971231   7.8632226  50.4977218  74.6470731  15.1697329
  50.3521799  74.9611034  16.0621610  50.0202422  75.2655631  14.6168227
  52.3573601  71.6373279  15.2178218  52.3435170  70.7414372  14.8810516
  53.0746029  71.6443943  15.8516504  54.2099732  72.0710619  17.2631346
  53.9517510  72.9927690  17.2615676  53.6784772  71.6741054  17.9531810
  59.1545921  85.1761406  10.0421431  59.3282798  84.6107829   9.2895283
  59.6474812  85.9762301   9.8600921  44.9722881  77.1876075  18.1084990
  44.4276349  77.9635883  18.2405264  45.8502230  77.5346880  17.9504111
  51.7610497  70.5187659  10.4865788  51.8826408  69.5904305  10.6856676
  51.4712540  70.5326345   9.5744104  54.6301688  68.2042570  13.6232508
  54.6523384  68.2681903  12.6684488  55.0469747  67.3647078  13.8173014
  65.0085312  77.9397829  11.6611731  65.4516458  77.1905154  11.2630854
  64.1311822  77.9307965  11.2785463  45.7588902  76.3145972  21.0015147
  45.0170638  76.4628607  21.5879777  45.4381647  76.5754237  20.1381896
  62.0412516  81.9427876   8.6705660  62.5663840  82.2815149   7.9454980
  61.9534869  81.0074891   8.4868795  53.7032565  85.8561950  20.7995537
  54.0119692  85.6111097  21.6718236  54.5008047  86.0608588  20.3114407
  53.7253177  88.0099859  13.0300913  53.2858167  87.5176238  13.7233770
  54.4761294  87.4672827  12.7892988  46.2045516  84.2011400  13.0325541
  47.0303536  83.9015172  12.6524185  45.8539568  83.4319023  13.4815330
  51.1727049  83.5537868  15.1023215  50.5507059  82.8908573  14.8025443
  51.8431916  83.5799000  14.4196863  44.4054121  82.1197727  13.9914475
  43.5686029  81.6919901  13.8098476  44.3777767  82.3130170  14.9285266
  51.2451577  72.0319656  24.6955721  51.2939732  72.9081779  24.3133490
  51.7874091  71.4897050  24.1227364  61.7306422  82.5760780  23.9756858
  60.9401966  82.5584919  23.4361357  61.4939777  83.1149073  24.7305894
  61.8504298  79.4253246  21.2889586  61.9002302  79.2603254  22.2305109
  61.7418221  78.5580505  20.8987467  50.7340556  82.1041792   8.5781675
  50.8828677  82.7877256   7.9248348  51.5407000  82.0846882   9.0931131
  59.1408060  75.4084174  22.6048893  60.0417923  75.2690639  22.3132891
  59.2156034  75.5738629  23.5447071  53.4750865  72.7851029  21.4502079
  52.6054175  73.0784595  21.1784668  53.7110346  73.3691474  22.1709343
  63.3522494  81.8450188  21.5331608  63.0607303  82.2080168  22.3695069
  62.7394626  81.1317196  21.3544940  64.5518177  79.4103067  14.0534178
  65.3865068  79.8492871  14.2171739  64.6877305  78.9341721  13.2342424
  61.6009683  76.9682802  20.0011666  62.0763804  77.1610449  19.1930517
  60.6775248  77.0241988  19.7555050  48.4893189  78.1306969   9.5842744
  48.2439231  77.2269299   9.7822954  48.6589104  78.1324120   8.6422222
  56.1789899  69.0030646  18.9667500  56.6971843  69.7391673  18.6413988
  55.8245032  69.3094639  19.8014259  47.7588837  73.8635327   7.0828906
  47.0658082  73.9379682   6.4268942  47.5140589  73.0995671   7.6050423
  56.4302493  65.4230928  14.4868396  56.7104247  64.7554117  15.1128823
  57.2153100  65.6160024  13.9743060  60.3011352  73.8448562  18.2339972
  61.2528774  73.9446660  18.2552196  60.1314802  73.0526831  18.7438056
  58.3225731  70.9304146  18.4199372  57.7275663  71.2109158  17.7245861
  58.0375428  71.4198046  19.1916114  62.7799429  77.0654682  17.3482271
  62.7475749  76.1270683  17.5341955  63.3900053  77.1438719  16.6148096
  54.6182760  75.9350735   3.3909475  55.5641865  75.8056943   3.4597893
  54.2397005  75.1965397   3.8678903  62.9293918  73.8565725  17.3940554
  62.4132966  73.0724182  17.2070483  63.8133866  73.5284442  17.5587074
  60.5904645  67.6006741  13.3536367  60.3929466  67.2921829  14.2379699
  61.2004350  68.3268380  13.4834297  68.5975979  78.1270689  16.4888308
  69.3279368  77.8655977  17.0496011  67.9882925  77.3899411  16.5290376
  66.6791276  76.2678551  17.0862759  65.9524440  76.1334516  16.4779251
  66.2638563  76.5755380  17.8919477  54.5021453  79.9868481  24.8510132
  55.4224462  80.1647080  25.0450179  54.4671036  79.0424526  24.6989831
  52.8025677  73.8600711   3.3264360  51.8957133  73.5633824   3.4027074
  53.0801658  73.5630529   2.4598647  43.7203618  75.1807075  13.7763407
  43.4006402  74.3272383  13.4837781  43.1737046  75.3955653  14.5321374
  47.4983525  77.8969516  17.4932913  47.7169535  78.8286624  17.5120947
  47.9109299  77.5377490  18.2787717  54.4187743  68.4037601   9.4808602
  53.6088471  68.0584686   9.8563848  55.1072160  68.0945145  10.0696213
  56.3478291  67.4815648  11.1032898  56.9009330  67.9011101  11.7622922
  56.5848378  66.5551396  11.1455854  52.3711391  73.4702722  26.8835662
  52.2708118  74.4197079  26.8147753  52.1532933  73.1420960  26.0111732
  51.5724462  70.7187647   3.4676340  52.4343626  71.0442545   3.7272157
  51.7574806  69.9319143   2.9549405  43.5891878  78.8009986  15.7456528
  42.8955349  78.3863939  15.2326483  44.3364869  78.8430523  15.1489947
  59.7257098  69.5916173  10.6111563  59.1455768  70.2500977  10.2289615
  59.4593031  68.7693518  10.1998980  58.1760665  68.9921231  12.8132883
  58.6760443  69.1037765  12.0047202  58.8196273  68.6882284  13.4533691
  52.2342661  76.8999860  25.7000724  51.7509742  77.7000221  25.9064613
  52.3203600  76.9107805  24.7468168  45.5028620  78.7328240  13.6222543
  45.4799308  78.8315927  12.6704426  45.8129257  79.5793391  13.9439709
  48.1615998  80.7904395  17.7369158  49.1159252  80.7588337  17.6699089
  47.9628522  80.3295019  18.5519384  48.7515380  79.3605511  20.3039955
  49.5708269  79.8549590  20.3274793  49.0252188  78.4437479  20.2757523
  58.5081976  71.7516263   9.6667911  57.6207832  72.0365914   9.4488106
  58.9235966  71.5910027   8.8195188  61.8596513  71.7762784  13.3822250
  62.6356903  72.2659237  13.6546867  61.1344647  72.2020839  13.8394120
  64.2969071  72.4890404  14.4396191  64.8913562  72.2486140  13.7289499
  64.3695655  71.7697534  15.0669727  46.5166227  86.3324015  14.7539356
  46.3820695  85.5724415  14.1877354  46.0998289  87.0564914  14.2868145
  58.4823000  77.2670799   9.8818201  58.4258202  77.7239351   9.0425834
  59.0351343  76.5061484   9.7041044  62.2927806  73.0560531  10.7068321
  62.0364740  72.6557167  11.5376528  61.6680674  73.7704325  10.5818460
  66.6040144  75.7956605  13.2139612  66.0439702  75.8649794  13.9871174
  65.9983647  75.6197589  12.4939108  49.6735353  87.2293332  14.9657798
  49.5567737  88.1738764  14.8636489  48.8527799  86.9266893  15.3543597
  59.2157780  78.4575581   7.1770730  59.1606583  78.2919852   6.2359174
  58.5903835  79.1651614   7.3332920  44.0050295  73.6943645  21.0032152
  44.6509158  73.1842599  21.4919378  43.7967446  74.4312327  21.5775578
  56.5303687  80.7624493  26.5024293  57.3994846  80.9365145  26.1410928
  56.0510438  81.5818909  26.3800022  52.5253905  67.9583690   6.7556049
  52.5132575  68.9025530   6.9124320  53.4177327  67.7753835   6.4615510
  50.6989867  87.8821594  18.1813727  51.6017114  87.9145204  18.4980222
  50.4727237  86.9522044  18.1960062  52.4543469  86.6352580  14.8423805
  51.5039100  86.6354442  14.7288178  52.7575955  85.8885315  14.3259840
  56.3406024  64.5526466  11.0101985  55.5738420  63.9984953  11.1558668
  56.7516729  64.6248335  11.8716137  48.3447786  70.8411262  25.1007167
  49.2079247  70.4848067  25.3110491  47.7713196  70.5025157  25.7882571
  64.9985869  92.4240547  15.8431092  64.6604380  92.3081611  14.9551627
  65.8675637  92.0231712  15.8232099  65.4805652  93.5775398  21.8017298
  65.4694293  93.1828197  20.9297802  65.6426291  92.8441471  22.3951069
  58.4037116  95.7727215  14.6712204  59.1958408  95.4318039  14.2558503
  58.6433767  95.8822190  15.5914357  62.2012913  96.3612510  20.7496482
  61.9102779  97.2658141  20.6343148  62.8369897  96.4029038  21.4640551
  63.1269120  93.7389359  17.3397842  63.7232692  93.5145381  16.6254805
  63.1844091  92.9974104  17.9423289  70.6671278  83.8461380  18.3450363
  70.3354603  84.7156791  18.1211578  70.0716892  83.5297664  19.0244393
  60.6115279  92.4987722  13.7782980  59.6865776  92.3663937  13.9860672
  60.8599693  93.2781942  14.2752922  70.5599942  88.5656466  15.4243713
  69.6516819  88.4971874  15.1302474  70.5087538  89.0428411  16.2525538
  57.9724090  92.1420996  14.6126769  58.1016472  92.3955475  15.5266181
  57.2921542  92.7348704  14.2931424  64.6340808  89.9846111  23.3678610
  63.8574142  90.5440032  23.3581475  65.2731371  90.4702894  23.8893480
  72.4261588  86.7672904  17.2021587  71.7835968  87.0605437  16.5561381
  71.9216517  86.6525825  18.0074784  62.8887180  92.7931565  22.9296577
  63.6301864  93.3316609  22.6531401  62.1824165  93.4197853  23.0868129
  68.3642519  94.9360705  21.5268739  68.7725876  94.4943116  20.7823371
  67.6419781  94.3613333  21.7802932  64.7173590  89.8733312  18.9002296
  65.5634785  90.2972726  19.0436945  64.6572227  89.2166936  19.5940859
  67.8673035  87.5337680  20.5583469  67.6233967  88.2879741  20.0217745
  68.1432965  87.9123028  21.3930716  69.8211498  94.0776293  19.2360735
  70.0328393  94.7208053  18.5595116  69.7741246  93.2438609  18.7682665
  67.4237727  86.6894113  16.1397307  66.5622206  86.9875367  16.4314045
  67.4500161  86.9064512  15.2078340  61.6248544  89.9471213  23.7311887
  60.9947204  90.6287494  23.9647284  61.5184631  89.8354295  22.7865025
  56.9193516  89.6143009  14.6577811  56.1292570  89.8700537  14.1817922
  57.4104763  90.4291347  14.7629852  64.7013929  96.5032291  19.5643803
  64.7658362  96.9652699  20.4001975  63.9924853  95.8729656  19.6926113
  55.2031219  89.8673499  17.0892802  55.4539257  90.7520509  17.3550378
  55.7390767  89.6878101  16.3167894  60.9029286  84.2491979  26.0937138
  60.5096232  83.6958177  26.7684782  61.7195427  84.5602557  26.4843656
  63.8197247  85.6649858  23.6857395  64.5606961  86.2657011  23.6061857
  64.0515170  84.9227496  23.1275437  58.9638585  90.8506225  21.9635625
  58.8492100  89.9491482  22.2642723  58.1083103  91.0969922  21.6120441
  66.0430423  98.7923965  23.5623125  65.5994277  98.0060344  23.2444030
  66.7047637  98.9803116  22.8967016  68.1411661  99.0726765  21.5904526
  68.1230136  99.8935646  21.0984796  69.0631581  98.9480841  21.8154668
  64.5984715  96.5870895  22.4328035  65.1313052  95.8259183  22.2027343
  64.0698796  96.2944547  23.1752189  67.7654410  81.6930961  17.9621676
  67.4218680  82.5832602  17.8860787  68.1333373  81.5032618  17.0991262
  66.8450951  84.0635616  15.9270910  66.3415746  84.0265751  15.1138715
  67.1381557  84.9728359  15.9867566  63.0893837  84.1474346  14.9337091
  63.9546833  83.9517154  14.5742981  63.1571345  83.9184697  15.8606448
  60.6956156  86.3776554  12.3053458  61.2699907  86.1551735  11.5726651
  61.2827138  86.4465248  13.0582060  62.9978823  83.2517802  11.0328528
  62.3443236  82.9366820  10.4085142  62.9559297  82.6293543  11.7588351
  66.2316564  89.7399736  15.3576175  65.3139125  89.9614683  15.1997863
  66.6476707  89.8146047  14.4987883  69.5642076  80.9524520  13.0639414
  69.8700953  80.0921883  12.7765329  70.2894681  81.5442140  12.8638408
  55.8566432  91.3555207  11.4521012  55.6590832  90.7624567  10.7272079
  55.3013096  91.0507417  12.1696951  63.8363156  91.2478313  13.5715605
  63.8911765  90.2952149  13.4958082  63.0254358  91.4037752  14.0556904
  67.3729727  90.3297197  20.1620878  67.7279115  90.5568670  21.0215344
  68.0201858  90.6615574  19.5398133  61.2669590  87.4373728  16.9467219
  61.9068970  87.2962487  16.2490182  60.4347121  87.1508242  16.5705821
  58.2698207  87.4074053  11.7240206  58.5305024  88.3219387  11.6149366
  59.0915379  86.9398496  11.8736819  59.7423132  88.8211810  18.8939030
  60.4146185  88.6129173  18.2451679  58.9152919  88.6233896  18.4544263
  65.6448704  85.4473751  20.9104691  64.9976619  86.1463701  20.8169168
  66.4149719  85.8809895  21.2780939  69.0527502  95.7122604  23.9855245
  68.9013008  95.4833155  23.0685328  69.0432181  96.6693205  23.9986590
  65.8212838  93.2854516  18.9701511  66.7504898  93.4365676  18.7970478
  65.4003868  93.3738537  18.1150158  60.1450629  92.0954413  19.6541468
  60.0070427  91.3634652  20.2553007  61.0555553  92.0063314  19.3725655
  62.7732930  91.8074373  19.1425147  63.4832549  91.1667565  19.1011766
  62.7302238  92.0587268  20.0651328  70.7619709  98.7441726  22.0631726
  70.7032255  98.0600946  21.3962309  71.1639227  99.4860716  21.6112352
  61.4861864  88.7939591  20.9620787  60.9499221  88.3430329  21.6142383
  60.8978572  88.9285499  20.2191251  70.7637116  96.7081310  20.2945706
  69.8763895  96.3707232  20.4172105  71.3335667  95.9764341  20.5314471
  52.4166263  93.0405402  13.6188757  53.1037303  92.7267132  13.0309773
  52.2614392  93.9446766  13.3456009  57.2200985  87.9295598  18.0473781
  57.1359174  87.3221268  17.3124191  56.3983692  88.4204617  18.0483278
  67.3924699  86.4149162  13.4143976  67.8893399  85.6619124  13.0945046
  66.6211681  86.4513479  12.8487186  63.9759668  88.5566545  13.1415661
  63.6057455  88.0037585  13.8296566  64.4718760  87.9524678  12.5890661
  61.8048866  99.0164040  20.2370679  62.5058326  99.6500523  20.3900073
  61.3343981  99.3578771  19.4766318  69.8343694  83.3818755  15.5623335
  68.9206774  83.6122982  15.7305542  70.2636795  83.4657199  16.4137367
  69.6050152  91.5708647  18.0623229  68.9521603  91.8184555  17.4075682
  69.9830532  90.7572786  17.7285706  65.6537725  92.3128458  24.5489266
  64.9778362  92.2122588  25.2191641  66.4765359  92.1567672  25.0125263
  57.4016584  98.5500395  17.1701781  57.9870021  97.8044083  17.3029686
  57.2041423  98.8604352  18.0538445  51.9934239  91.1205995  15.8906225
  52.0318339  90.5869586  16.6843343  51.4874532  90.5941201  15.2717202
  59.3725001  85.9670536  19.3868767  59.4366328  86.8285367  18.9746165
  59.3092122  85.3544537  18.6541125  58.8477274  88.0393668  23.0341801
  59.4749313  87.6570746  23.6479325  57.9905193  87.8207870  23.3997494
  69.2471383  98.4456643  24.6395537  69.7911287  99.0586602  24.1450491
  68.6658227  99.0036222  25.1562550  59.1537064  87.9226094  14.9487705
  58.4323650  88.5362062  14.8095178  59.9430320  88.4583859  14.8704351
  61.9563377  85.2580520  21.2228356  62.4797779  85.5042817  21.9854666
  61.7375711  86.0900555  20.8031494  57.3530658  87.5284195   9.0899481
  57.0243365  86.6481574   8.9074587  57.7070029  87.4731864   9.9775870
  63.1615922  86.1994215  18.9078027  62.8212743  85.4002029  19.3098707
  62.4554929  86.4995926  18.3354860  63.8132394  83.2843528  17.3605350
  64.6358463  82.8104006  17.2384240  64.0570458  84.0634012  17.8604036
  61.3370973  89.9762649  15.1697329  61.1915554  90.2902952  16.0621610
  60.8596177  90.5947549  14.6168227  63.1967356  86.9665197  15.2178218
  63.1828925  86.0706290  14.8810516  63.9139784  86.9735860  15.8516504
  65.0493487  87.4002537  17.2631346  64.7911264  88.3219607  17.2615676
  64.5178527  87.0032971  17.9531810  55.8116635  92.5167993  18.1084990
  55.2670103  93.2927801  18.2405264  56.6895985  92.8638797  17.9504111
  65.4695442  83.5334487  13.6232508  65.4917139  83.5973820  12.6684488
  65.8863501  82.6938996  13.8173014  56.5982657  91.6437889  21.0015147
  55.8564393  91.7920525  21.5879777  56.2775401  91.9046155  20.1381896
  64.5426320 101.1853867  20.7995537  64.8513446 100.9403014  21.6718236
  65.3401802 101.3900506  20.3114407  55.2447876  97.4489644  13.9914475
  54.4079784  97.0211819  13.8098476  55.2171521  97.6422088  14.9285266
  62.0845331  87.3611574  24.6955721  62.1333487  88.2373697  24.3133490
  62.6267845  86.8188967  24.1227364  72.5700177  97.9052697  23.9756858
  71.7795721  97.8876836  23.4361357  72.3333532  98.4440991  24.7305894
  72.6898052  94.7545164  21.2889586  72.7396057  94.5895171  22.2305109
  72.5811975  93.8872423  20.8987467  69.9801814  90.7376092  22.6048893
  70.8811677  90.5982557  22.3132891  70.0549789  90.9030547  23.5447071
  64.3144620  88.1142947  21.4502079  63.4447929  88.4076513  21.1784668
  64.5504100  88.6983392  22.1709343  74.1916249  97.1742105  21.5331608
  73.9001057  97.5372086  22.3695069  73.5788380  96.4609114  21.3544940
  72.4403437  92.2974720  20.0011666  72.9157559  92.4902366  19.1930517
  71.5169002  92.3533906  19.7555050  67.0183654  84.3322564  18.9667500
  67.5365597  85.0683590  18.6413988  66.6638786  84.6386557  19.8014259
  67.2696248  80.7522846  14.4868396  67.5498001  80.0846035  15.1128823
  68.0546855  80.9451942  13.9743060  71.1405106  89.1740480  18.2339972
  72.0922529  89.2738578  18.2552196  70.9708556  88.3818749  18.7438056
  69.1619486  86.2596063  18.4199372  68.5669418  86.5401076  17.7245861
  68.8769182  86.7489964  19.1916114  73.7687672  89.1857643  17.3940554
  73.2526721  88.4016100  17.2070483  74.6527621  88.8576360  17.5587074
  71.4298399  82.9298659  13.3536367  71.2323220  82.6213747  14.2379699
  72.0398105  83.6560298  13.4834297  65.3415207  95.3160399  24.8510132
  66.2618217  95.4938998  25.0450179  65.3064790  94.3716444  24.6989831
  54.5597372  90.5098992  13.7763407  54.2400157  89.6564301  13.4837781
  54.0130800  90.7247571  14.5321374  58.3377280  93.2261433  17.4932913
  58.5563290  94.1578541  17.5120947  58.7503054  92.8669408  18.2787717
  67.1872046  82.8107566  11.1032898  67.7403084  83.2303019  11.7622922
  67.4242132  81.8843314  11.1455854  63.2105145  88.7994639  26.8835662
  63.1101872  89.7488996  26.8147753  62.9926687  88.4712878  26.0111732
  54.4285632  94.1301904  15.7456528  53.7349104  93.7155857  15.2326483
  55.1758623  94.1722440  15.1489947  69.0154419  84.3213148  12.8132883
  69.5154198  84.4329683  12.0047202  69.6590027  84.0174201  13.4533691
  63.0736415  92.2291778  25.7000724  62.5903497  93.0292138  25.9064613
  63.1597354  92.2399723  24.7468168  56.3422375  94.0620158  13.6222543
  56.3193063  94.1607845  12.6704426  56.6523011  94.9085309  13.9439709
  59.0009753  96.1196313  17.7369158  59.9553006  96.0880255  17.6699089
  58.8022276  95.6586937  18.5519384  59.5909135  94.6897429  20.3039955
  60.4102024  95.1841508  20.3274793  59.8645942  93.7729397  20.2757523
  54.8444049  89.0235563  21.0032152  55.4902913  88.5134517  21.4919378
  54.6361200  89.7604244  21.5775578  67.3697441  96.0916410  26.5024293
  68.2388601  96.2657062  26.1410928  66.8904193  96.9110827  26.3800022
  67.1799779  79.8818384  11.0101985  66.4132175  79.3276871  11.1558668
  67.5910484  79.9540253  11.8716137  59.1841540  86.1703180  25.1007167
  60.0473002  85.8139985  25.3110491  58.6106951  85.8317075  25.7882571
  71.7423041  99.5783896  26.0937138  71.3489986  99.0250095  26.7684782
  72.5589181  99.8894475  26.4843656  69.6871029 103.3685586  23.0341801
  70.3143067 102.9862663  23.6479325  68.8298947 103.1499788  23.3997494
  74.0498900 104.1286557  26.8835662  73.9495627 105.0780914  26.8147753
  73.8320442 103.8004796  26.0111732  70.0235295 101.4995097  25.1007167
  70.8866756 101.1431902  25.3110491  69.4500705 101.1608992  25.7882571
  36.7290120  29.4643013  11.3640843  37.2730024  30.0772971  10.8695798
  36.1476965  30.0222591  11.8807856  40.0518915  28.9239067  10.7002165
  39.2614458  28.9063206  10.1606664  39.8152269  29.4627361  11.4551201
  34.8516179  27.1102780  13.2269600  35.7207339  27.2843432  12.8656235
  34.3722930  27.9297197  13.1045329  46.5108655  38.8191406   2.6314874
  47.1487065  38.6998153   1.9278214  46.3929498  39.7672250   2.6902827
  43.8018144  39.9253686   8.5262605  43.7906785  39.5306484   7.6543108
  43.9638783  39.1919758   9.1196376  40.5225405  42.7090797   7.4741789
  40.2315271  43.6136428   7.3588455  41.1582390  42.7507325   8.1885858
  41.4481612  40.0867646   4.0643148  42.0445184  39.8623668   3.3500111
  41.5056584  39.3452391   4.6668596  51.4658350  36.4818093   0.6101061
  52.1983522  35.9117310   0.8438890  50.7097706  36.0939693   1.0507566
  48.9883771  30.1939667   5.0695670  48.6567095  31.0635078   4.8456884
  48.3929384  29.8775951   5.7489700  45.4815290  42.3952213   4.4691582
  45.1816013  43.2977252   4.3607389  45.1366350  42.1284396   5.3212735
  40.4636070  49.1596533  -2.5637450  40.3860100  50.1104358  -2.4848969
  39.8597714  48.8142406  -1.9062524  42.9553300  36.3324399  10.0923917
  42.1786634  36.8918319  10.0826781  43.5943863  36.8181182  10.6138787
  50.7474080  33.1151191   3.9266893  50.1048461  33.4083725   3.2806688
  50.2429009  33.0004112   4.7320090  41.2099672  39.1409852   9.6541884
  41.9514356  39.6794896   9.3776707  40.5036658  39.7676141   9.8113436
  46.6855012  41.2838992   8.2514045  47.0938368  40.8421403   7.5068678
  45.9632273  40.7091620   8.5048238  43.0386082  36.2211599   5.6247602
  43.8847277  36.6451013   5.7682251  42.9784719  35.5645224   6.3186165
  47.0083826  41.8440183   2.0066334  46.3792689  42.0085897   1.3042402
  46.6209488  42.2581793   2.7777298  50.8873058  42.7794621  -0.6389302
  50.2024096  43.1593522  -1.1892269  50.9716908  43.3889948   0.0942646
  46.1885527  33.8815968   7.2828776  45.9446459  34.6358028   6.7463052
  46.4645458  34.2601315   8.1176023  48.1423990  40.4254580   5.9606041
  48.3540885  41.0686340   5.2840423  48.0953738  39.5916896   5.4927972
  39.4535869  41.1286073   2.2096183  40.0237226  41.5573341   1.5713667
  40.0443981  40.8468657   2.9080368  39.9461036  36.2949500  10.4557194
  39.3159696  36.9765781  10.6892591  39.8397124  36.1832582   9.5110332
  49.2569818  43.3026535   4.1328399  50.0787262  42.9006723   3.8511080
  49.2532221  43.1994770   5.0844515  43.0226421  42.8510579   6.2889109
  43.0870854  43.3130986   7.1247281  42.3137345  42.2207944   6.4171419
  57.3475811  39.6465284   0.4813370  56.5939519  39.0772682   0.3257375
  57.4823352  39.6127948   1.4284005  39.2241779  30.5970266  12.8182445
  38.8308724  30.0436465  13.4930089  40.0407919  30.9080844  13.2088962
  42.1409740  32.0128145  10.4102701  42.8819453  32.6135298  10.3307164
  42.3727662  31.2705783   9.8520744  37.2851078  37.1984512   8.6880931
  37.1704593  36.2969770   8.9888030  36.4295595  37.4448209   8.3365748
  44.3642915  45.1402253  10.2868432  43.9206770  44.3538631   9.9689336
  45.0260129  45.3281403   9.6212323  39.1230037  46.6698054   4.8129110
  39.6737462  46.5415118   4.0406104  38.2841512  46.9692943   4.4624003
  46.4624153  45.4205053   8.3149833  46.4442629  46.2413934   7.8230102
  47.3844073  45.2959128   8.5399974  42.9197208  42.9349182   9.1573341
  43.4525544  42.1737470   8.9272649  42.3911289  42.6422834   9.8997496
  49.2642766  40.2584195   1.7859200  48.6066441  40.9483456   1.8739328
  50.0683165  40.6480627   2.1293186  48.8410021  43.5934569  -2.0357716
  48.3872348  42.7525479  -1.9792525  48.2103988  44.2295968  -1.6982936
  47.2842961  45.4311066  -1.1007898  47.5765935  45.9916123  -1.8195532
  47.7941581  45.7239627  -0.3454739  42.2476586  46.2091417  -0.0114445
  42.2052765  46.4352263  -0.9405913  43.1639285  45.9754792   0.1371357
  45.6942220  36.6775484   6.8866185  46.0491607  36.9046958   7.7460650
  46.3414351  37.0093861   6.2643440  51.4509336  41.8670447   2.6026785
  51.8845843  41.7745736   3.4509839  52.1640917  41.8427948   1.9646801
  45.1837231  45.4672542   4.1359886  45.2374253  46.0363478   4.9037602
  44.3152012  45.6374427   3.7713923  52.3124886  41.9094148   5.1359671
  52.5060776  42.8139959   5.3818946  52.2125504  41.4501567   5.9698256
  43.9661196  31.7952039   7.6349998  43.3189111  32.4941988   7.5414474
  44.7362212  32.2288183   8.0026246  47.3739994  42.0600891  10.7100551
  47.2225501  41.8311442   9.7930635  47.3644674  43.0171492  10.7231896
  44.1425331  39.6332804   5.6946818  45.0717391  39.7843963   5.5215785
  43.7216361  39.7216824   4.8395464  42.9413662  43.6583468   3.4645355
  42.8024748  43.2902252   4.3371293  42.1528259  44.1731107   3.2929313
  44.4918878  43.0365071   0.8534193  44.1568710  42.9965841   1.7491843
  43.9922823  42.3709787   0.3804603  38.4663122  38.4432701   6.3786774
  38.3282920  37.7112940   6.9798313  39.3768045  38.3541601   6.0970962
  41.0945422  38.1552660   5.8670454  41.8045041  37.5145852   5.8257072
  41.0514730  38.4065555   6.7896635  49.0832201  45.0920013   8.7877033
  49.0244747  44.4079233   8.1207616  49.4851719  45.8339003   8.3357659
  39.8074356  35.1417878   7.6866093  39.2711713  34.6908616   8.3387690
  39.2191065  35.2763787   6.9436558  38.1022900  51.9081927   1.5810752
  38.3419498  52.5400451   2.2589771  37.2592096  51.5569967   1.8676111
  49.0849608  43.0559597   7.0191013  48.1976387  42.7185519   7.1417412
  49.6548159  42.3242629   7.2559778  42.6150762  47.7161050   3.9852256
  42.5420933  48.5216021   4.4971560  42.1728155  47.9153015   3.1600277
  42.4040541  46.9532820  -2.5044923  41.6208063  47.4954500  -2.4106698
  43.1033286  47.4706799  -2.1050681  53.5666949  38.4667815   1.7807574
  53.5556825  39.3492530   1.4101507  52.6984328  38.1139365   1.5862111
  45.0749445  47.6147884   6.1410415  45.7877417  48.2495348   6.0686316
  44.5839474  47.7111750   5.3250416  40.1261359  45.3642327   6.9615985
  40.8270818  45.9978810   7.1145380  39.6556474  45.7057059   6.2011625
  47.9262645  37.9186935   4.7868536  47.2734095  38.1662842   4.1320989
  48.3043025  37.1051073   4.4531013  44.8869819  47.9546628  -1.1103294
  45.0692213  47.1368284  -0.6475542  45.7102805  48.1714320  -1.5478404
  43.9750218  38.6606746  11.2734573  43.2990855  38.5600875  11.9436948
  44.7977852  38.5045959  11.7370570  35.7229077  44.8978682   3.8947088
  36.3082514  44.1522370   4.0274992  35.5253915  45.2082639   4.7783752
  38.5767732  47.9329930  -1.0890470  37.9078107  48.4176057  -1.5726429
  38.4380602  48.1799150  -0.1747091  42.7173001  49.9673673   5.5092189
  43.2691309  50.1305295   6.2741274  43.0579194  50.5578111   4.8372214
  37.1689766  34.3871955   9.7587108  37.7961805  34.0049033  10.3724632
  36.3117685  34.1686157  10.1242800  47.5683875  44.7934931  11.3640843
  48.1123779  45.4064889  10.8695798  46.9870720  45.3514509  11.8807856
  45.8541388  47.9155649   2.4955871  45.7292527  47.1145388   1.9866816
  46.5120479  48.4101842   2.0069841  47.9176296  45.7164669   4.1235421
  46.9706632  45.5970020   4.0513748  48.2659069  44.8287167   4.2061683
  40.2775870  31.6058808   7.9473663  40.8010271  31.8521104   8.7099972
  40.0588203  32.4378842   7.5276800  44.9222730  45.5117385   0.3239773
  44.7747692  44.5834092   0.5047343  45.7476223  45.5337476  -0.1603151
  48.5256851  46.3345944   1.4104646  49.4503399  46.1288805   1.2729097
  48.3572155  46.0862345   2.3193988  48.3152168  46.8531611  -3.2333262
  48.4889045  46.2878034  -3.9859410  48.8081059  47.6532506  -3.4153773
  54.1691559  39.6168034  -1.6142963  54.6122705  38.8675359  -2.0123839
  53.2918069  39.6078170  -1.9969231  34.9195149  37.9916176   7.7260453
  34.1776885  38.1398812   8.3125084  34.5987894  38.2524442   6.8627203
  42.8638812  47.5332155   7.5240843  43.1725938  47.2881301   8.3963543
  43.6614294  47.7378793   7.0359713  42.8859424  49.6870064  -0.2453780
  42.4464414  49.1946443   0.4479076  43.6367541  49.1443032  -0.4861705
  40.3333296  45.2308073   1.8268521  39.7113305  44.5678778   1.5270749
  41.0038163  45.2569205   1.1442169  40.4057824  33.7089861  11.4201027
  40.4545979  34.5851984  11.0378797  40.9480338  33.1667254  10.8472671
  50.8912669  44.2530985  10.7002165  50.1008213  44.2355124  10.1606664
  50.6546024  44.7919278  11.4551201  51.0110544  41.1023451   8.0134893
  51.0608549  40.9373458   8.9550416  50.9024468  40.2350710   7.6232774
  48.3014307  37.0854379   9.3294200  49.2024169  36.9460844   9.0378198
  48.3762281  37.2508834  10.2692377  42.6357112  34.4621234   8.1747386
  41.7660421  34.7554800   7.9029975  42.8716592  35.0461679   8.8954650
  52.5128741  43.5220393   8.2576915  52.2213549  43.8850373   9.0940376
  51.9000872  42.8087401   8.0790247  53.7124423  41.0873272   0.7779485
  54.5471315  41.5263076   0.9417045  53.8483552  40.6111926  -0.0412269
  50.7615929  38.6453007   6.7256973  51.2370051  38.8380653   5.9175824
  49.8381495  38.7012193   6.4800356  45.3396146  30.6800851   5.6912807
  45.8578090  31.4161878   5.3659295  44.9851279  30.9864844   6.5259566
  49.4617598  35.5218767   4.9585278  50.4135021  35.6216865   4.9797502
  49.2921049  34.7297036   5.4683363  47.4831978  32.6074350   5.1444679
  46.8881910  32.8879363   4.4491168  47.1981675  33.0968251   5.9161420
  51.9405676  38.7424887   4.0727578  51.9081996  37.8040888   4.2587262
  52.5506300  38.8208924   3.3393403  52.0900165  35.5335930   4.1185861
  51.5739213  34.7494387   3.9315790  52.9740113  35.2054647   4.2832381
  57.7582226  39.8040894   3.2133615  58.4885614  39.5426182   3.7741318
  57.1489171  39.0669616   3.2535683  55.8397523  37.9448756   3.8108066
  55.1130687  37.8104721   3.2024557  55.4244810  38.2525585   4.6164784
  43.6627700  41.6638686  11.5755439  44.5830709  41.8417285  11.7695485
  43.6277283  40.7194731  11.4235138  36.6589772  39.5739721   4.2178220
  36.8775782  40.5056829   4.2366254  37.0715546  39.2147695   5.0033024
  41.5317637  35.1472926  13.6080969  41.4314364  36.0967283  13.5393060
  41.3139179  34.8191165  12.7357039  41.3948907  38.5770065  12.4246031
  40.9115989  39.3770425  12.6309920  41.4809846  38.5878010  11.4713475
  37.3222245  42.4674600   4.4614464  38.2765498  42.4358542   4.3944396
  37.1234769  42.0065224   5.2764690  37.9121627  41.0375716   7.0285262
  38.7314516  41.5319795   7.0520099  38.1858435  40.1207684   7.0002830
  53.4575318  34.1660609   1.1641497  54.0519809  33.9256345   0.4534806
  53.5301902  33.4467739   1.7915034  35.6772474  48.0094220   1.4784662
  35.5426942  47.2494620   0.9122660  35.2604536  48.7335119   1.0113451
  55.7646391  37.4726809  -0.0615081  55.2045949  37.5419999   0.7116481
  55.1589894  37.2967794  -0.7815585  38.8341600  48.9063537   1.6903105
  38.7173984  49.8508969   1.5881795  38.0134046  48.6037098   2.0788904
  45.6909934  42.4394697  13.2269600  46.5601093  42.6135350  12.8656235
  45.2116685  43.2589114  13.1045329  39.8596114  49.5591798   4.9059033
  40.7623360  49.5915409   5.2225528  39.6333484  48.6292249   4.9205369
  41.6149716  48.3122785   1.5669112  40.6645347  48.3124647   1.4533484
  41.9182202  47.5655520   1.0505147  37.5054032  32.5181467  11.8252473
  38.3685494  32.1618272  12.0355798  36.9319443  32.1795362  12.5127878
  57.3502409  54.1483323   2.6314874  57.9880819  54.0290071   1.9278214
  57.2323252  55.0964167   2.6902827  54.1592116  54.1010751   2.5676399
  53.8210627  53.9851816   1.6796934  55.0281884  53.7001917   2.5477405
  50.0178931  55.9546228  -1.4426710  49.4543796  55.8636165  -2.2110422
  49.9031326  55.1346132  -0.9624217  54.6411899  55.2545603   8.5262605
  54.6300539  54.8598401   7.6543108  54.8032538  54.5211676   9.1196376
  47.5643363  57.4497419   1.3957510  48.3564655  57.1088244   0.9803810
  47.8040013  57.5592395   2.3159664  55.5978490  59.6217196  -6.1312245
  54.9466470  60.2071276  -6.5178231  56.3922853  60.1523390  -6.0717208
  49.5234117  56.7106333  -5.7325111  50.2964993  56.1635320  -5.8712235
  49.8759516  57.5750582  -5.5210649  51.3619160  58.0382715   7.4741789
  51.0709026  58.9428346   7.3588455  51.9976144  58.0799243   8.1885858
  52.2875367  55.4159564   4.0643148  52.8838939  55.1915586   3.3500111
  52.3450338  54.6744309   4.6668596  51.8600395  52.8698999  -8.1006661
  52.1125916  52.3480520  -8.8623198  50.9224954  52.7065144  -7.9979977
  56.9043678  51.8734777  -0.2931918  57.6906767  51.4554200  -0.6441501
  57.1682382  52.7780869  -0.1250269  57.0753755  57.3107628  -5.5943261
  56.4399588  57.3842254  -4.8822356  56.7451161  57.9001226  -6.2724182
  62.3052105  51.8110010   0.6101061  63.0377277  51.2409227   0.8438890
  61.5491461  51.4231611   1.0507566  51.5796684  54.7727105  -5.8982286
  51.4632942  54.0972008  -5.2301202  51.6898944  54.2859479  -6.7150133
  53.9228225  54.2337252  -2.1935597  53.5586432  53.7067873  -1.4822675
  54.7795340  53.8435721  -2.3669111  59.8277525  45.5231585   5.0695670
  59.4960850  46.3926995   4.8456884  59.2323139  45.2067869   5.7489700
  53.5633712  49.2627152  -7.1974248  53.7308114  50.1307388  -6.8303777
  53.3730881  49.4254433  -8.1212959  56.3209045  57.7244131   4.4691582
  56.0209768  58.6269169   4.3607389  55.9760104  57.4576314   5.3212735
  49.7721526  54.1757927   0.5028287  48.8472023  54.0434141   0.7105978
  50.0205939  54.9552147   0.9998229  59.7206189  50.2426671   2.1489020
  58.8123066  50.1742079   1.8547781  59.6693784  50.7198616   2.9770845
  53.5422932  51.7184809  -6.2127581  53.4222558  52.1641860  -5.3742101
  52.8475521  52.0670127  -6.7714043  47.1330337  53.8191201   1.3372076
  47.2622718  54.0725680   2.2511487  46.4527789  54.4118909   1.0176731
  51.3029825  64.4888451  -2.5637450  51.2253854  65.4396276  -2.4848969
  50.6991468  64.1434323  -1.9062524  53.7947054  51.6616316  10.0923917
  53.0180388  52.2210236  10.0826781  54.4337617  52.1473099  10.6138787
  61.5867835  48.4443109   3.9266893  60.9442215  48.7375642   3.2806688
  61.0822763  48.3296029   4.7320090  59.2407999  52.1906282  -5.3847247
  60.1525855  52.4233669  -5.5599550  58.7317646  52.7743326  -5.9472169
  52.0493427  54.4701770   9.6541884  52.7908111  55.0086814   9.3776707
  51.3430412  55.0968058   9.8113436  57.5248766  56.6130910   8.2514045
  57.9332122  56.1713321   7.5068678  56.8026028  56.0383538   8.5048238
  53.8779836  51.5503517   5.6247602  54.7241031  51.9742930   5.7682251
  53.8178474  50.8937141   6.3186165  57.8477581  57.1732101   2.0066334
  57.2186443  57.3377815   1.3042402  57.4603243  57.5873710   2.7777298
  61.7266813  58.1086539  -0.6389302  61.0417851  58.4885440  -1.1892269
  61.8110662  58.7181865   0.0942646  57.0279282  49.2107885   7.2828776
  56.7840214  49.9649946   6.7463052  57.3039212  49.5893233   8.1176023
  58.9817744  55.7546498   5.9606041  59.1934640  56.3978258   5.2840423
  58.9347493  54.9208814   5.4927972  56.5843973  48.3664318   2.8642614
  55.7228452  48.6645572   3.1559351  56.6106408  48.5834717   1.9323646
  53.4005543  56.9106509  -0.7283581  53.8643888  57.1894212  -1.5178958
  53.1362341  56.0089953  -0.9110490  50.2929624  56.4577990   2.2096183
  50.8630981  56.8865259   1.5713667  50.8837736  56.1760575   2.9080368
  52.3374429  53.0329661  -3.9194016  53.0398472  53.4850705  -3.4520089
  52.0055057  52.3913480  -3.2914122  50.7854790  51.6241418  10.4557194
  50.1553451  52.3057699  10.6892591  50.6790878  51.5124499   9.5110332
  46.0799763  51.2913214   1.3823118  45.2898817  51.5470742   0.9063229
  46.5711010  52.1061552   1.4875159  60.0963572  58.6318453   4.1328399
  60.9181016  58.2298640   3.8511080  60.0925975  58.5286687   5.0844515
  48.0314508  51.6557793  -1.6593405  47.2345671  51.7676487  -1.1409910
  47.8040100  51.9944445  -2.5252515  53.8620176  58.1802496   6.2889109
  53.9264608  58.6422904   7.1247281  53.1531100  57.5499861   6.4171419
  44.3637466  51.5443704   3.8138109  44.6145504  52.4290714   4.0795685
  44.8997014  51.3648306   3.0413201  68.1869565  54.9757202   0.4813370
  67.4333274  54.4064600   0.3257375  68.3217107  54.9419866   1.4284005
  53.5768193  59.8470604  -3.8431910  53.4413868  60.6922140  -3.4147063
  54.1178006  60.0489881  -4.6065977  50.0635533  45.9262184  12.8182445
  49.6702479  45.3728382  13.4930089  50.8801673  46.2372762  13.2088962
  47.0297591  57.3646042  -3.2703985  47.5422111  58.1589292  -3.1198421
  47.6820304  56.6672332  -3.3370384  48.8392476  60.4811798  -1.1881232
  49.0159104  61.4029763  -1.3760248  49.6349309  60.1670217  -0.7586852
  52.9803494  47.3420063  10.4102701  53.7213207  47.9427216  10.3307164
  53.2121417  46.5997701   9.8520744  48.1244832  52.5276430   8.6880931
  48.0098347  51.6261687   8.9888030  47.2689350  52.7740127   8.3365748
  55.2036670  60.4694170  10.2868432  54.7600524  59.6830549   9.9689336
  55.8653883  60.6573321   9.6212323  49.9623791  61.9989972   4.8129110
  50.5131216  61.8707035   4.0406104  49.1235267  62.2984861   4.4624003
  57.3017908  60.7496970   8.3149833  57.2836383  61.5705851   7.8230102
  58.2237828  60.6251045   8.5399974  53.7590962  58.2641100   9.1573341
  54.2919299  57.5029388   8.9272649  53.2305043  57.9714752   9.8997496
  56.9260657  43.3701166   4.6866983  56.5824926  44.2602807   4.6106094
  57.2939620  43.1802823   3.8236568  44.9946508  55.6934696  -2.4944415
  45.8321730  56.1031705  -2.7110707  45.1724775  54.7534138  -2.5244221
  56.8910940  53.3609777  -6.8060582  56.3757563  54.1314381  -6.5672194
  56.6188248  52.6874913  -6.1827520  54.4758051  48.2059478  -1.7475343
  53.6199647  47.8166328  -1.9269705  54.8885003  48.2851438  -2.6075558
  56.0057197  45.7405821   2.6516216  55.5021993  45.7035956   1.8384022
  56.2987804  46.6498564   2.7112873  52.2500083  45.8244551   1.6582398
  53.1153080  45.6287359   1.2988288  52.3177592  45.5954902   2.5851755
  61.8645214  56.1142131  -4.8707408  61.0874657  55.7753291  -5.3152246
  62.5436695  56.1194755  -5.5452443  56.6797243  51.2336869  -4.9800801
  56.3747378  51.5483018  -4.1290657  57.6327685  51.3118289  -4.9373468
  55.1243675  57.3927092  -3.3307847  54.5965036  56.6579852  -3.6434609
  54.6231177  58.1701769  -3.5767878  60.1036521  55.5876113   1.7859200
  59.4460195  56.2775374   1.8739328  60.9076920  55.9772545   2.1293186
  49.8562402  48.0546759  -0.9701235  50.4306154  47.8321940  -1.7028042
  50.4433385  48.1235453  -0.2172634  58.9141980  53.9420485  -0.1636859
  59.4273861  54.5750477   0.3384851  59.5643203  53.3421681  -0.5293499
  52.1585070  44.9288007  -2.2426166  51.5049482  44.6137025  -2.8669551
  52.1165544  44.3063748  -1.5166343  53.2696275  55.2107302 -10.3272874
  52.3623337  54.9796556 -10.1281725  53.7667307  54.4144922 -10.1398892
  55.3922810  51.4169941   2.0821482  54.4745372  51.6384888   1.9243170
  55.8082954  51.4916251   1.2233189  56.1757858  52.8161357  -2.7875838
  56.9229677  53.3282754  -3.0968716  56.4449448  52.4945409  -1.9271444
  54.4484508  55.3119897  -5.8048883  53.5395728  55.0278930  -5.7076414
  54.4779592  55.7318976  -6.6645577  59.6803776  58.9226487  -2.0357716
  59.2266103  58.0817397  -1.9792525  59.0497742  59.5587885  -1.6982936
  58.6236695  49.8518473  -0.8057048  57.8859452  49.3395859  -0.4746806
  58.8763469  49.4118854  -1.6173772  58.1236715  60.7602984  -1.1007898
  58.4159689  61.3208041  -1.8195532  58.6335336  61.0531545  -0.3454739
  58.7248323  42.6294725  -0.2115279  59.0307199  41.7692088  -0.4989364
  59.4500927  43.2212345  -0.4116285  45.0172679  53.0325411  -1.8233681
  44.8197079  52.4394772  -2.5482615  44.4619343  52.7277622  -1.1057742
  52.9969402  52.9248518   0.2960912  53.0518012  51.9722354   0.2203388
  52.1860604  53.0807957   0.7802210  54.1460596  56.8528641  -8.4660805
  53.7080026  56.1364500  -8.9255168  54.8871037  57.0804756  -9.0275714
  50.9361762  51.5425578  -1.9448709  50.1229628  51.8419748  -1.5383517
  51.4320757  51.1481266  -1.2274227  53.0870340  61.5383335  -0.0114445
  53.0446519  61.7644181  -0.9405913  54.0033039  61.3046709   0.1371357
  56.5335974  52.0067402   6.8866185  56.8885362  52.2338875   7.7460650
  57.1808105  52.3385779   6.2643440  62.2633711  55.1285838  -2.4084486
  62.1251610  55.3187434  -3.3363297  61.9069930  55.8905221  -1.9516435
  50.4275837  49.1143933   3.6712526  51.0675216  48.9732692   2.9735489
  49.5953368  48.8278447   3.2951128  62.2903091  57.1962365   2.6026785
  62.7239597  57.1037654   3.4509839  63.0034671  57.1719866   1.9646801
  51.2036141  58.4146364  -0.2152482  51.9976739  57.9196684  -0.4169907
  50.4927833  57.8864227  -0.5784776  56.0230985  60.7964459   4.1359886
  56.0768008  61.3655395   4.9037602  55.1545767  60.9666344   3.7713923
  47.5118904  52.5589445  -4.1392729  46.5816493  52.4973901  -3.9222767
  47.6076376  52.0365398  -4.9356088  47.4304454  49.0844258  -1.5514487
  47.6911271  49.9989591  -1.6605327  48.2521626  48.6168701  -1.4017875
  48.9029379  50.4982015   5.6184337  49.5752432  50.2899378   4.9696986
  48.0759165  50.3004101   5.1789569  63.1518640  57.2386066   5.1359671
  63.3454530  58.1431876   5.3818946  63.0519258  56.7793485   5.9698256
  54.8054951  47.1243956   7.6349998  54.1582866  47.8233906   7.5414474
  55.5755966  47.5580100   8.0026246  58.2133749  57.3892808  10.7100551
  58.0619255  57.1603360   9.7930635  58.2038428  58.3463410  10.7231896
  54.9819085  54.9624721   5.6946818  55.9111145  55.1135881   5.5215785
  54.5610115  55.0508742   4.8395464  53.7807417  58.9875386   3.4645355
  53.6418503  58.6194170   4.3371293  52.9922013  59.5023025   3.2929313
  54.3755569  64.0884482  -5.1929108  54.5507325  63.6172525  -4.3783486
  53.6888357  64.7150248  -4.9647847  55.3312632  58.3656988   0.8534193
  54.9962465  58.3257758   1.7491843  54.8316578  57.7001704   0.3804603
  49.3056876  53.7724618   6.3786774  49.1676674  53.0404857   6.9798313
  50.2161800  53.6833518   6.0970962  51.9339177  53.4844578   5.8670454
  52.6438795  52.8437770   5.8257072  51.8908485  53.7357473   6.7896635
  59.9225955  60.4211931   8.7877033  59.8638502  59.7371151   8.1207616
  60.3245474  61.1630921   8.3357659  50.6468111  50.4709796   7.6866093
  50.1105468  50.0200534   8.3387690  50.0584819  50.6055704   6.9436558
  48.9416654  67.2373845   1.5810752  49.1813252  67.8692369   2.2589771
  48.0985851  66.8861885   1.8676111  59.9243363  58.3851515   7.0191013
  59.0370141  58.0477437   7.1417412  60.4941914  57.6534546   7.2559778
  41.5772510  54.7175607   0.3434064  42.2643550  54.4037337  -0.2444921
  41.4220639  55.6216971   0.0701316  46.3807232  49.6065803   4.7719088
  46.2965421  48.9991473   4.0369498  45.5589938  50.0974822   4.7728584
  53.4544516  63.0452967   3.9852256  53.3814688  63.8507939   4.4971560
  53.0121909  63.2444933   3.1600277  53.2434296  62.2824737  -2.5044923
  52.4601818  62.8246418  -2.4106698  53.9427041  62.7998717  -2.1050681
  56.5530946  48.0919367   0.1389283  57.0499645  47.3389329  -0.1809647
  55.7817927  48.1283683  -0.4267508  64.4060703  53.7959732   1.7807574
  64.3950579  54.6784448   1.4101507  63.5378083  53.4431283   1.5862111
  55.9143200  62.9439801   6.1410415  56.6271172  63.5787266   6.0686316
  55.4233228  63.0403667   5.3250416  57.6360727  56.8491054  -2.2872294
  56.7017005  56.9692516  -2.4567589  57.8137395  55.9463521  -2.5512284
  53.1365915  50.2336750  -0.1339033  52.7663702  49.6807790   0.5541873
  53.6325007  49.6294883  -0.6864033  61.0233278  52.6908373  -1.7522260
  61.4893730  53.5236365  -1.8261957  61.4740778  52.2253355  -1.0477001
  50.9655113  60.6934245   6.9615985  51.6664573  61.3270728   7.1145380
  50.4950228  61.0348976   6.2011625  59.0909509  59.0352195  -4.7536108
  59.3669353  58.9208789  -3.8442233  58.2214008  58.6369679  -4.7923934
  58.9949941  45.0588960   2.2868642  58.0813020  45.2893187   2.4550849
  59.4243042  45.1427404   3.1382674  58.7656399  53.2478852   4.7868536
  58.1127849  53.4954760   4.1320989  59.1436779  52.4342990   4.4531013
  55.7263573  63.2838545  -1.1103294  55.9085968  62.4660201  -0.6475542
  56.5496559  63.5006238  -1.5478404  56.0605739  62.2106731  -3.8488245
  56.5893505  61.6999185  -4.4618083  56.3233958  61.8949261  -2.9842712
  54.8143972  53.9898663  11.2734573  54.1384609  53.8892793  11.9436948
  55.6371606  53.8337877  11.7370570  46.5622831  60.2270600   3.8947088
  47.1476268  59.4814288   4.0274992  46.3647670  60.5374557   4.7783752
  49.4161486  63.2621847  -1.0890470  48.7471862  63.7467975  -1.5726429
  49.2774356  63.5091068  -0.1747091  41.1540486  52.7976200   2.6151531
  41.1924585  52.2639791   3.4088649  40.6480779  52.2711406   1.9962508
  53.5566755  65.2965591   5.5092189  54.1085063  65.4597212   6.2741274
  53.8972948  65.8870029   4.8372214  48.5331248  47.6440741   6.1114074
  48.5972575  48.5055571   5.6991471  48.4698369  47.0314742   5.3786432
  48.0083521  49.7163873   9.7587108  48.6355560  49.3340950  10.3724632
  47.1511440  49.4978075  10.1242800  58.4077629  60.1226848  11.3640843
  58.9517533  60.7356807  10.8695798  57.8264474  60.6806427  11.8807856
  44.7849064  51.5240302  -4.3094537  45.0802505  50.6150981  -4.3627484
  43.8837099  51.5028042  -4.6313535  56.6935142  63.2447566   2.4955871
  56.5686282  62.4437306   1.9866816  57.3514233  63.7393760   2.0069841
  48.3143311  49.5996299   1.6733011  47.5929896  50.2132266   1.5340485
  49.1036566  50.1354064   1.5949657  58.7570051  61.0456586   4.1235421
  57.8100386  60.9261938   4.0513748  59.1052824  60.1579084   4.2061683
  51.1169624  46.9350725   7.9473663  51.6404026  47.1813022   8.7099972
  50.8981957  47.7670760   7.5276800  46.5136905  49.2054400  -4.1855212
  46.1849611  48.3251779  -4.3680106  46.8676276  49.1502069  -3.2978823
  55.7616484  60.8409303   0.3239773  55.6141446  59.9126010   0.5047343
  56.5869977  60.8629393  -0.1603151  49.6278728  49.4927370  -3.8179735
  49.9674801  50.0213291  -4.5401126  50.0750849  49.8307776  -3.0421168
  59.3650606  61.6637861   1.4104646  60.2897153  61.4580723   1.2729097
  59.1965909  61.4154262   2.3193988  52.3222169  47.8764420   5.6323334
  51.9818989  47.0772233   6.0344013  51.6161175  48.1766131   5.0600167
  52.9738641  44.9613733   4.0850657  53.7964710  44.4874211   3.9629547
  53.2176704  45.7404217   4.5849343  51.6146875  47.9901991  -5.6186442
  52.3355238  48.3683244  -6.1222725  50.9912180  48.7090868  -5.5151464
  55.7577998  48.6947140  -4.6828109  55.9741613  49.5771778  -4.9839281
  55.2772065  48.3033354  -5.4122467  50.4977220  51.6532853   1.8942635
  50.3521800  51.9673157   2.7866917  50.0202423  52.2717754   1.3413534
  52.3573603  48.6435401   1.9423525  52.3435171  47.7476495   1.6055823
  53.0746031  48.6506065   2.5761811  54.2099733  49.0772742   3.9876652
  53.9517511  49.9989812   3.9860983  53.6784774  48.6803176   4.6777116
  59.1545922  62.1823529  -3.2333262  59.3282800  61.6169951  -3.9859410
  59.6474813  62.9824424  -3.4153773  44.9722882  54.1938198   4.8330296
  44.4276350  54.9698006   4.9650571  45.8502232  54.5409002   4.6749418
  51.7610499  47.5249782  -2.7888905  51.8826410  46.5966428  -2.5898018
  51.4712541  47.5388468  -3.7010590  54.6301689  45.2104692   0.3477815
  54.6523386  45.2744025  -0.6070206  55.0469748  44.3709201   0.5418321
  65.0085313  54.9459952  -1.6142963  65.4516459  54.1967277  -2.0123839
  64.1311824  54.9370088  -1.9969231  45.7588904  53.3208094   7.7260453
  45.0170640  53.4690729   8.3125084  45.4381648  53.5816360   6.8627203
  62.0412518  58.9489999  -4.6049033  62.5663842  59.2877271  -5.3299713
  61.9534870  58.0137014  -4.7885899  53.7032566  62.8624072   7.5240843
  54.0119693  62.6173219   8.3963543  54.5008048  63.0670711   7.0359713
  53.7253178  65.0161982  -0.2453780  53.2858169  64.5238361   0.4479076
  54.4761295  64.4734950  -0.4861705  46.2045517  61.2073523  -0.2429152
  47.0303537  60.9077295  -0.6230509  45.8539569  60.4381145   0.2060636
  51.1727051  60.5599991   1.8268521  50.5507060  59.8970696   1.5270749
  51.8431917  60.5861123   1.1442169  44.4054122  59.1259849   0.7159781
  43.5686031  58.6982024   0.5343783  44.3777768  59.3192293   1.6530573
  51.2451578  49.0381779  11.4201027  51.2939734  49.9143902  11.0378797
  51.7874092  48.4959172  10.8472671  61.7306424  59.5822902  10.7002165
  60.9401967  59.5647041  10.1606664  61.4939778  60.1211196  11.4551201
  61.8504299  56.4315369   8.0134893  61.9002304  56.2665376   8.9550416
  61.7418222  55.5642628   7.6232774  50.7340557  59.1103914  -4.6973018
  50.8828678  59.7939379  -5.3506345  51.5407001  59.0909004  -4.1823562
  59.1408061  52.4146297   9.3294200  60.0417924  52.2752762   9.0378198
  59.2156036  52.5800752  10.2692377  53.4750866  49.7913151   8.1747386
  52.6054176  50.0846718   7.9029975  53.7110347  50.3753596   8.8954650
  63.3522496  58.8512310   8.2576915  63.0607304  59.2142291   9.0940376
  62.7394627  58.1379319   8.0790247  64.5518178  56.4165190   0.7779485
  65.3865069  56.8554994   0.9417045  64.6877307  55.9403843  -0.0412269
  61.6009684  53.9744925   6.7256973  62.0763805  54.1672571   5.9175824
  60.6775249  54.0304111   6.4800356  48.4893190  55.1369092  -3.6911949
  48.2439232  54.2331422  -3.4931739  48.6589105  55.1386242  -4.6332471
  56.1789900  46.0092768   5.6912807  56.6971844  46.7453795   5.3659295
  55.8245033  46.3156762   6.5259566  56.4302494  42.4293051   1.2113703
  56.7104248  41.7616240   1.8374130  57.2153101  42.6222147   0.6988367
  60.3011353  50.8510685   4.9585278  61.2528776  50.9508783   4.9797502
  60.1314803  50.0588953   5.4683363  58.3225732  47.9366268   5.1444679
  57.7275664  48.2171281   4.4491168  58.0375429  48.4260169   5.9161420
  62.7799431  54.0716805   4.0727578  62.7475751  53.1332805   4.2587262
  63.3900054  54.1500841   3.3393403  54.6182761  52.9412858  -9.8845218
  55.5641866  52.8119066  -9.8156800  54.2397006  52.2027520  -9.4075790
  62.9293919  50.8627848   4.1185861  62.4132968  50.0786305   3.9315790
  63.8133868  50.5346565   4.2832381  60.5904646  44.6068864   0.0781674
  60.3929467  44.2983952   0.9625006  61.2004352  45.3330503   0.2079604
  68.5975980  55.1332811   3.2133615  69.3279369  54.8718100   3.7741318
  67.9882926  54.3961533   3.2535683  66.6791278  53.2740674   3.8108066
  65.9524441  53.1396639   3.2024557  66.2638564  53.5817503   4.6164784
  54.5021454  56.9930604  11.5755439  55.4224463  57.1709203  11.7695485
  54.4671037  56.0486649  11.4235138  43.7203619  52.1869197   0.5008714
  43.4006403  51.3334506   0.2083088  43.1737047  52.4017776   1.2566681
  47.4983527  54.9031638   4.2178220  47.7169536  55.8348746   4.2366254
  47.9109300  54.5439613   5.0033024  54.4187744  45.4099724  -3.7946092
  53.6088473  45.0646809  -3.4190846  55.1072161  45.1007267  -3.2058480
  56.3478293  44.4877771  -2.1721795  56.9009331  44.9073224  -1.5131772
  56.5848379  43.5613519  -2.1298839  52.3711392  50.4764844  13.6080969
  52.2708119  51.4259201  13.5393060  52.1532934  50.1483083  12.7357039
  43.5891879  55.8072109   2.4701835  42.8955350  55.3926062   1.9571790
  44.3364870  55.8492645   1.8735254  59.7257100  46.5978296  -2.6643131
  59.1455769  47.2563100  -3.0465078  59.4593032  45.7755640  -3.0755713
  58.1760666  45.9983353  -0.4621810  58.6760444  46.1099888  -1.2707492
  58.8196274  45.6944406   0.1778998  52.2342662  53.9061983  12.4246031
  51.7509744  54.7062343  12.6309920  52.3203601  53.9169928  11.4713475
  45.5028622  55.7390363   0.3467850  45.4799310  55.8378050  -0.6050267
  45.8129258  56.5855513   0.6685016  48.1615999  57.7966518   4.4614464
  49.1159253  57.7650460   4.3944396  47.9628523  57.3357141   5.2764690
  48.7515382  56.3667634   7.0285262  49.5708271  56.8611712   7.0520099
  49.0252189  55.4499602   7.0002830  58.5081978  48.7578386  -3.6086782
  57.6207833  49.0428037  -3.8266588  58.9235967  48.5972149  -4.4559506
  61.8596514  48.7824907   0.1067557  62.6356904  49.2721359   0.3792174
  61.1344648  49.2082961   0.5639426  64.2969073  49.4952526   1.1641497
  64.8913563  49.2548262   0.4534806  64.3695656  48.7759657   1.7915034
  46.5166228  63.3386137   1.4784662  46.3820696  62.5786538   0.9122660
  46.0998290  64.0627037   1.0113451  58.4823002  54.2732922  -3.3936492
  58.4258203  54.7301473  -4.2328860  59.0351344  53.5123607  -3.5713650
  62.2927807  50.0622654  -2.5686373  62.0364742  49.6619290  -1.7378165
  61.6680675  50.7766448  -2.6936234  66.6040145  52.8018727  -0.0615081
  66.0439703  52.8711916   0.7116481  65.9983649  52.6259712  -0.7815585
  49.6735354  64.2355454   1.6903105  49.5567738  65.1800887   1.5881795
  48.8527800  63.9329016   2.0788904  59.2157781  55.4637703  -6.0983963
  59.1606585  55.2981975  -7.0395519  58.5903836  56.1713736  -5.9421773
  44.0050296  50.7005768   7.7277459  44.6509159  50.1904722   8.2164684
  43.7967447  51.4374449   8.3020884  56.5303688  57.7686615  13.2269600
  57.3994848  57.9427267  12.8656235  56.0510439  58.5881032  13.1045329
  50.6989868  64.8883716   4.9059033  51.6017115  64.9207326   5.2225528
  50.4727238  63.9584167   4.9205369  52.4543470  63.6414703   1.5669112
  51.5039101  63.6416564   1.4533484  52.7575956  62.8947437   1.0505147
  56.3406026  41.5588589  -2.2652708  55.5738422  41.0047076  -2.1196026
  56.7516731  41.6310458  -1.4038556  48.3447787  47.8473385  11.8252473
  49.2079248  47.4910190  12.0355798  47.7713197  47.5087280  12.5127878
  64.9985870  69.4302669   2.5676399  64.6604382  69.3143734   1.6796934
  65.8675638  69.0293834   2.5477405  65.4805653  70.5837521   8.5262605
  65.4694294  70.1890319   7.6543108  65.6426292  69.8503593   9.1196376
  58.4037118  72.7789337   1.3957510  59.1958410  72.4380162   0.9803810
  58.6433768  72.8884312   2.3159664  62.2012914  73.3674633   7.4741789
  61.9102780  74.2720264   7.3588455  62.8369898  73.4091160   8.1885858
  63.1269121  70.7451481   4.0643148  63.7232693  70.5207504   3.3500111
  63.1844093  70.0036227   4.6668596  70.6671280  60.8523502   5.0695670
  70.3354604  61.7218913   4.8456884  70.0716893  60.5359786   5.7489700
  60.6115281  69.5049845   0.5028287  59.6865777  69.3726059   0.7105978
  60.8599694  70.2844064   0.9998229  70.5599943  65.5718588   2.1489020
  69.6516820  65.5033997   1.8547781  70.5087539  66.0490533   2.9770845
  57.9724092  69.1483119   1.3372076  58.1016473  69.4017598   2.2511487
  57.2921543  69.7410827   1.0176731  64.6340809  66.9908234  10.0923917
  63.8574143  67.5502154  10.0826781  65.2731372  67.4765017  10.6138787
  72.4261589  63.7735027   3.9266893  71.7835970  64.0667560   3.2806688
  71.9216518  63.6587947   4.7320090  62.8887181  69.7993687   9.6541884
  63.6301865  70.3378731   9.3776707  62.1824167  70.4259976   9.8113436
  68.3642521  71.9422828   8.2514045  68.7725877  71.5005238   7.5068678
  67.6419782  71.3675455   8.5048238  64.7173591  66.8795435   5.6247602
  65.5634786  67.3034848   5.7682251  64.6572228  66.2229059   6.3186165
  67.8673036  64.5399803   7.2828776  67.6233968  65.2941863   6.7463052
  68.1432967  64.9185151   8.1176023  69.8211499  71.0838415   5.9606041
  70.0328394  71.7270175   5.2840423  69.7741247  70.2500732   5.4927972
  67.4237728  63.6956236   2.8642614  66.5622207  63.9937490   3.1559351
  67.4500162  63.9126635   1.9323646  61.6248545  66.9533336  10.4557194
  60.9947205  67.6349616  10.6892591  61.5184633  66.8416417   9.5110332
  56.9193517  66.6205132   1.3823118  56.1292571  66.8762660   0.9063229
  57.4104765  67.4353469   1.4875159  64.7013930  73.5094414   6.2889109
  64.7658363  73.9714821   7.1247281  63.9924854  72.8791779   6.4171419
  55.2031220  66.8735622   3.8138109  55.4539259  67.7582632   4.0795685
  55.7390769  66.6940224   3.0413201  60.9029288  61.2554101  12.8182445
  60.5096233  60.7020300  13.4930089  61.7195428  61.5664680  13.2088962
  63.8197249  62.6711980  10.4102701  64.5606962  63.2719134  10.3307164
  64.0515171  61.9289618   9.8520744  58.9638587  67.8568348   8.6880931
  58.8492102  66.9553605   8.9888030  58.1083104  68.1032044   8.3365748
  66.0430424  75.7986088  10.2868432  65.5994279  75.0122467   9.9689336
  66.7047638  75.9865239   9.6212323  68.1411662  76.0788888   8.3149833
  68.1230138  76.8997769   7.8230102  69.0631582  75.9542963   8.5399974
  64.5984717  73.5933017   9.1573341  65.1313053  72.8321306   8.9272649
  64.0698798  73.3006669   9.8997496  67.7654412  58.6993083   4.6866983
  67.4218681  59.5894725   4.6106094  68.1333374  58.5094741   3.8236568
  66.8450952  61.0697739   2.6516216  66.3415747  61.0327874   1.8384022
  67.1381559  61.9790481   2.7112873  63.0893838  61.1536468   1.6582398
  63.9546835  60.9579277   1.2988288  63.1571347  60.9246820   2.5851755
  60.6956157  63.3838676  -0.9701235  61.2699909  63.1613858  -1.7028042
  61.2827139  63.4527371  -0.2172634  62.9978825  60.2579925  -2.2426166
  62.3443237  59.9428942  -2.8669551  62.9559299  59.6355666  -1.5166343
  66.2316565  66.7461859   2.0821482  65.3139126  66.9676806   1.9243170
  66.6476709  66.8208169   1.2233189  69.5642077  57.9586643  -0.2115279
  69.8700954  57.0984006  -0.4989364  70.2894682  58.5504263  -0.4116285
  55.8566433  68.3617329  -1.8233681  55.6590833  67.7686690  -2.5482615
  55.3013097  68.0569539  -1.1057742  63.8363157  68.2540436   0.2960912
  63.8911767  67.3014272   0.2203388  63.0254359  68.4099875   0.7802210
  67.3729729  67.3359320   6.8866185  67.7279116  67.5630793   7.7460650
  68.0201860  67.6677697   6.2643440  61.2669592  64.4435851   3.6712526
  61.9068971  64.3024610   2.9735489  60.4347122  64.1570364   3.2951128
  58.2698208  64.4136176  -1.5514487  58.5305025  65.3281509  -1.6605327
  59.0915380  63.9460618  -1.4017875  59.7423133  65.8273933   5.6184337
  60.4146187  65.6191295   4.9696986  58.9152920  65.6296019   5.1789569
  65.6448705  62.4535874   7.6349998  64.9976620  63.1525824   7.5414474
  66.4149721  62.8872018   8.0026246  69.0527503  72.7184726  10.7100551
  68.9013010  72.4895278   9.7930635  69.0432183  73.6755328  10.7231896
  65.8212840  70.2916639   5.6946818  66.7504900  70.4427799   5.5215785
  65.4003870  70.3800660   4.8395464  60.1450631  69.1016536   6.3786774
  60.0070429  68.3696775   6.9798313  61.0555554  69.0125436   6.0970962
  62.7732931  68.8136495   5.8670454  63.4832550  68.1729688   5.8257072
  62.7302239  69.0649390   6.7896635  70.7619710  75.7503849   8.7877033
  70.7032256  75.0663069   8.1207616  71.1639228  76.4922839   8.3357659
  61.4861865  65.8001713   7.6866093  60.9499222  65.3492452   8.3387690
  60.8978574  65.9347622   6.9436558  70.7637117  73.7143433   7.0191013
  69.8763896  73.3769354   7.1417412  71.3335668  72.9826464   7.2559778
  52.4166264  70.0467524   0.3434064  53.1037304  69.7329254  -0.2444921
  52.2614393  70.9508889   0.0701316  57.2200986  64.9357721   4.7719088
  57.1359175  64.3283390   4.0369498  56.3983693  65.4266739   4.7728584
  67.3924700  63.4211284   0.1389283  67.8893400  62.6681247  -0.1809647
  66.6211682  63.4575601  -0.4267508  63.9759669  65.5628667  -0.1339033
  63.6057457  65.0099708   0.5541873  64.4718762  64.9586801  -0.6864033
  61.8048868  76.0226162   6.9615985  62.5058327  76.6562645   7.1145380
  61.3343983  76.3640894   6.2011625  69.8343695  60.3880878   2.2868642
  68.9206775  60.6185105   2.4550849  70.2636797  60.4719322   3.1382674
  69.6050154  68.5770770   4.7868536  68.9521604  68.8246677   4.1320989
  69.9830534  67.7634908   4.4531013  65.6537727  69.3190581  11.2734573
  64.9778364  69.2184710  11.9436948  66.4765361  69.1629795  11.7370570
  57.4016586  75.5562518   3.8947088  57.9870023  74.8106205   4.0274992
  57.2041424  75.8666474   4.7783752  51.9934240  68.1268118   2.6151531
  52.0318340  67.5931708   3.4088649  51.4874533  67.6003323   1.9962508
  59.3725003  62.9732658   6.1114074  59.4366329  63.8347489   5.6991471
  59.3092123  62.3606660   5.3786432  58.8477275  65.0455791   9.7587108
  59.4749314  64.6632868  10.3724632  57.9905194  64.8269993  10.1242800
  69.2471384  75.4518766  11.3640843  69.7911288  76.0648724  10.8695798
  68.6658229  76.0098344  11.8807856  59.1537065  64.9288216   1.6733011
  58.4323651  65.5424184   1.5340485  59.9430321  65.4645981   1.5949657
  61.9563379  62.2642643   7.9473663  62.4797780  62.5104940   8.7099972
  61.7375712  63.0962678   7.5276800  57.3530660  64.5346318  -4.1855212
  57.0243366  63.6543696  -4.3680106  57.7070030  64.4793986  -3.2978823
  63.1615924  63.2056338   5.6323334  62.8212744  62.4064151   6.0344013
  62.4554930  63.5058049   5.0600167  63.8132395  60.2905650   4.0850657
  64.6358465  59.8166129   3.9629547  64.0570459  61.0696134   4.5849343
  61.3370974  66.9824771   1.8942635  61.1915555  67.2965074   2.7866917
  60.8596178  67.6009671   1.3413534  63.1967357  63.9727319   1.9423525
  63.1828926  63.0768412   1.6055823  63.9139785  63.9797983   2.5761811
  65.0493488  64.4064659   3.9876652  64.7911266  65.3281730   3.9860983
  64.5178528  64.0095094   4.6777116  55.8116636  69.5230116   4.8330296
  55.2670104  70.2989923   4.9650571  56.6895986  69.8700920   4.6749418
  65.4695443  60.5396610   0.3477815  65.4917140  60.6035943  -0.6070206
  65.8863502  59.7001118   0.5418321  56.5982658  68.6500012   7.7260453
  55.8564394  68.7982647   8.3125084  56.2775402  68.9108277   6.8627203
  64.5426321  78.1915990   7.5240843  64.8513447  77.9465137   8.3963543
  65.3401803  78.3962628   7.0359713  55.2447877  74.4551767   0.7159781
  54.4079785  74.0273941   0.5343783  55.2171522  74.6484210   1.6530573
  62.0845333  64.3673697  11.4201027  62.1333488  65.2435820  11.0378797
  62.6267847  63.8251090  10.8472671  72.5700178  74.9114820  10.7002165
  71.7795722  74.8938959  10.1606664  72.3333533  75.4503114  11.4551201
  72.6898053  71.7607286   8.0134893  72.7396058  71.5957294   8.9550416
  72.5811977  70.8934545   7.6232774  69.9801816  67.7438214   9.3294200
  70.8811678  67.6044679   9.0378198  70.0549790  67.9092669  10.2692377
  64.3144621  65.1205069   8.1747386  63.4447930  65.4138635   7.9029975
  64.5504101  65.7045514   8.8954650  74.1916250  74.1804228   8.2576915
  73.9001058  74.5434208   9.0940376  73.5788381  73.4671236   8.0790247
  72.4403438  69.3036843   6.7256973  72.9157560  69.4964489   5.9175824
  71.5169004  69.3596028   6.4800356  67.0183655  61.3384686   5.6912807
  67.5365599  62.0745713   5.3659295  66.6638788  61.6448679   6.5259566
  67.2696249  57.7584969   1.2113703  67.5498003  57.0908158   1.8374130
  68.0546856  57.9514064   0.6988367  71.1405107  66.1802603   4.9585278
  72.0922530  66.2800700   4.9797502  70.9708558  65.3880871   5.4683363
  69.1619487  63.2658186   5.1444679  68.5669419  63.5463199   4.4491168
  68.8769183  63.7552087   5.9161420  73.7687674  66.1919766   4.1185861
  73.2526722  65.4078222   3.9315790  74.6527622  65.8638482   4.2832381
  71.4298401  59.9360781   0.0781674  71.2323222  59.6275869   0.9625006
  72.0398106  60.6622420   0.2079604  65.3415209  72.3222521  11.5755439
  66.2618218  72.5001120  11.7695485  65.3064792  71.3778567  11.4235138
  54.5597374  67.5161115   0.5008714  54.2400158  66.6626423   0.2083088
  54.0130802  67.7309693   1.2566681  58.3377281  70.2323556   4.2178220
  58.5563291  71.1640664   4.2366254  58.7503055  69.8731530   5.0033024
  67.1872047  59.8169688  -2.1721795  67.7403086  60.2365142  -1.5131772
  67.4242134  58.8905436  -2.1298839  63.2105146  65.8056762  13.6080969
  63.1101873  66.7551119  13.5393060  62.9926688  65.4775001  12.7357039
  54.4285634  71.1364027   2.4701835  53.7349105  70.7217979   1.9571790
  55.1758625  71.1784563   1.8735254  69.0154421  61.3275271  -0.4621810
  69.5154199  61.4391806  -1.2707492  69.6590029  61.0236324   0.1778998
  63.0736416  69.2353901  12.4246031  62.5903498  70.0354261  12.6309920
  63.1597355  69.2461846  11.4713475  56.3422376  71.0682280   0.3467850
  56.3193064  71.1669968  -0.6050267  56.6523013  71.9147431   0.6685016
  59.0009754  73.1258435   4.4614464  59.9553007  73.0942378   4.3944396
  58.8022277  72.6649059   5.2764690  59.5909136  71.6959551   7.0285262
  60.4102025  72.1903630   7.0520099  59.8645944  70.7791520   7.0002830
  54.8444050  66.0297685   7.7277459  55.4902914  65.5196639   8.2164684
  54.6361201  66.7666367   8.3020884  67.3697442  73.0978533  13.2269600
  68.2388602  73.2719185  12.8656235  66.8904194  73.9172950  13.1045329
  67.1799780  56.8880507  -2.2652708  66.4132176  56.3338993  -2.1196026
  67.5910485  56.9602375  -1.4038556  59.1841541  63.1765302  11.8252473
  60.0473003  62.8202107  12.0355798  58.6106952  62.8379197  12.5127878
  71.7423042  76.5846019  12.8182445  71.3489988  76.0312218  13.4930089
  72.5589182  76.8956597  13.2088962  69.6871030  80.3747708   9.7587108
  70.3143069  79.9924786  10.3724632  68.8298949  80.1561910  10.1242800
  74.0498901  81.1348680  13.6080969  73.9495628  82.0843036  13.5393060
  73.8320443  80.8066918  12.7357039  70.0235296  78.5057220  11.8252473
  70.8866757  78.1494025  12.0355798  69.4500706  78.1671115  12.5127878
  58.4077631  37.1288971  -1.9113850  58.9517535  37.7418929  -2.4058895
  57.8264475  37.6868549  -1.3946837  61.7306425  36.5885025  -2.5752529
  60.9401969  36.5709164  -3.1148029  61.4939780  37.1273319  -1.8203492
  56.5303689  34.7748738  -0.0485094  57.3994849  34.9489390  -0.4098459
  56.0510441  35.5943155  -0.1709364  65.4805654  47.5899643  -4.7492089
  65.4694295  47.1952442  -5.6211585  65.6426294  46.8565716  -4.1558317
  62.2012915  50.3736755  -5.8012905  61.9102781  51.2782386  -5.9166238
  62.8369900  50.4153283  -5.0868835  63.1269122  47.7513604  -9.2111545
  63.7232694  47.5269626  -9.9254582  63.1844094  47.0098349  -8.6086097
  70.6671281  37.8585625  -8.2059024  70.3354606  38.7281036  -8.4297809
  70.0716894  37.5421909  -7.5264993  64.6340810  43.9970357  -3.1830777
  63.8574144  44.5564277  -3.1927912  65.2731373  44.4827140  -2.6615906
  72.4261591  40.7797149  -9.3487800  71.7835971  41.0729683  -9.9948005
  71.9216519  40.6650070  -8.5434603  62.8887182  46.8055810  -3.6212810
  63.6301867  47.3440854  -3.8977986  62.1824168  47.4322099  -3.4641258
  68.3642522  48.9484950  -5.0240648  68.7725878  48.5067361  -5.7686016
  67.6419783  48.3737578  -4.7706455  64.7173592  43.8857557  -7.6507091
  65.5634787  44.3096971  -7.5072442  64.6572230  43.2291181  -6.9568528
  67.8673037  41.5461926  -5.9925917  67.6233969  42.3003986  -6.5291642
  68.1432968  41.9247273  -5.1578670  69.8211500  48.0900538  -7.3148652
  70.0328395  48.7332298  -7.9914271  69.7741248  47.2562854  -7.7826722
  61.6248546  43.9595458  -2.8197500  60.9947207  44.6411739  -2.5862103
  61.5184634  43.8478540  -3.7644361  64.7013932  50.5156537  -6.9865584
  64.7658364  50.9776944  -6.1507412  63.9924855  49.8853902  -6.8583274
  60.9029289  38.2616224  -0.4572248  60.5096234  37.7082422   0.2175396
  61.7195429  38.5726802  -0.0665731  63.8197250  39.6774103  -2.8651992
  64.5606963  40.2781256  -2.9447529  64.0515173  38.9351741  -3.4233949
  58.9638588  44.8630470  -4.5873762  58.8492103  43.9615728  -4.2866663
  58.1083106  45.1094167  -4.9388946  66.0430426  52.8048211  -2.9886262
  65.5994280  52.0184589  -3.3065357  66.7047639  52.9927361  -3.6542371
  68.1411664  53.0851011  -4.9604860  68.1230139  53.9059892  -5.4524591
  69.0631584  52.9605086  -4.7354719  64.5984718  50.5995140  -4.1181352
  65.1313055  49.8383428  -4.3482044  64.0698799  50.3068792  -3.3757197
  67.3729730  44.3421442  -6.3888509  67.7279117  44.5692916  -5.5294043
  68.0201861  44.6739819  -7.0111253  65.6448707  39.4597997  -5.6404695
  64.9976622  40.1587946  -5.7340219  66.4149722  39.8934140  -5.2728447
  69.0527505  49.7246849  -2.5654142  68.9013011  49.4957400  -3.4824058
  69.0432184  50.6817450  -2.5522797  65.8212841  47.2978761  -7.5807876
  66.7504901  47.4489921  -7.7538908  65.4003871  47.3862782  -8.4359229
  60.1450632  46.1078659  -6.8967919  60.0070430  45.3758897  -6.2956380
  61.0555555  46.0187559  -7.1783731  62.7732933  45.8198618  -7.4084240
  63.4832551  45.1791810  -7.4497621  62.7302241  46.0711513  -6.4858059
  70.7619711  52.7565971  -4.4877660  70.7032257  52.0725191  -5.1547077
  71.1639230  53.4984961  -4.9397034  61.4861866  42.8063836  -5.5888600
  60.9499224  42.3554574  -4.9367004  60.8978575  42.9409745  -6.3318136
  70.7637118  50.7205555  -6.2563681  69.8763897  50.3831477  -6.1337282
  71.3335670  49.9888586  -6.0194915  61.8048869  53.0288285  -6.3138708
  62.5058328  53.6624768  -6.1609314  61.3343984  53.3703017  -7.0743069
  69.6050155  45.5832893  -8.4886158  68.9521605  45.8308800  -9.1433705
  69.9830535  44.7697031  -8.8223680  65.6537728  46.3252704  -2.0020120
  64.9778365  46.2246833  -1.3317745  66.4765362  46.1691917  -1.5384123
  57.4016587  52.5624640  -9.3807605  57.9870024  51.8168328  -9.2479701
  57.2041425  52.8728597  -8.4970941  58.8477277  42.0517913  -3.5167586
  59.4749315  41.6694991  -2.9030061  57.9905195  41.8332115  -3.1511893
  69.2471385  52.4580889  -1.9113850  69.7911289  53.0710847  -2.4058895
  68.6658230  53.0160467  -1.3946837  61.9563380  39.2704766  -5.3281030
  62.4797782  39.5167062  -4.5654721  61.7375713  40.1024800  -5.7477893
  56.5982659  45.6562134  -5.5494240  55.8564395  45.8044770  -4.9629610
  56.2775404  45.9170400  -6.4127491  64.5426322  55.1978113  -5.7513850
  64.8513449  54.9527259  -4.8791151  65.3401804  55.4024751  -6.2394980
  62.0845334  41.3735819  -1.8553666  62.1333489  42.2497942  -2.2375896
  62.6267848  40.8313212  -2.4282023  72.5700179  51.9176943  -2.5752529
  71.7795723  51.9001081  -3.1148029  72.3333534  52.4565236  -1.8203492
  72.6898055  48.7669409  -5.2619800  72.7396059  48.6019416  -4.3204278
  72.5811978  47.8996668  -5.6521920  69.9801817  44.7500337  -3.9460494
  70.8811680  44.6106802  -4.2376496  70.0549791  44.9154792  -3.0062316
  64.3144622  42.1267192  -5.1007307  63.4447932  42.4200758  -5.3724719
  64.5504103  42.7107637  -4.3800044  74.1916251  51.1866351  -5.0177779
  73.9001060  51.5496331  -4.1814318  73.5788383  50.4733359  -5.1964447
  72.4403440  46.3098965  -6.5497721  72.9157561  46.5026611  -7.3578869
  71.5169005  46.3658151  -6.7954337  67.0183656  38.3446809  -7.5841887
  67.5365600  39.0807836  -7.9095398  66.6638789  38.6510802  -6.7495128
  71.1405109  43.1864725  -8.3169415  72.0922531  43.2862823  -8.2957191
  70.9708559  42.3942994  -7.8071331  69.1619488  40.2720308  -8.1310014
  68.5669420  40.5525321  -8.8263526  68.8769185  40.7614209  -7.3593273
  73.7687675  43.1981888  -9.1568832  73.2526724  42.4140345  -9.3438903
  74.6527623  42.8700605  -8.9922313  65.3415210  49.3284644  -1.6999254
  66.2618219  49.5063243  -1.5059208  65.3064793  48.3840689  -1.8519555
  58.3377282  47.2385679  -9.0576473  58.5563292  48.1702786  -9.0388440
  58.7503056  46.8793653  -8.2721669  63.2105148  42.8118884   0.3326276
  63.1101875  43.7613241   0.2638367  62.9926690  42.4837123  -0.5397654
  63.0736418  46.2416023  -0.8508663  62.5903499  47.0416383  -0.6444774
  63.1597357  46.2523968  -1.8041219  59.0009755  50.1320558  -8.8140229
  59.9553009  50.1004500  -8.8810297  58.8022279  49.6711182  -7.9990003
  59.5909137  48.7021674  -6.2469431  60.4102026  49.1965753  -6.2234594
  59.8645945  47.7853642  -6.2751864  67.3697444  50.1040655  -0.0485094
  68.2388603  50.2781308  -0.4098459  66.8904195  50.9235072  -0.1709364
  59.1841543  40.1827425  -1.4502220  60.0473004  39.8264230  -1.2398895
  58.6106953  39.8441320  -0.7626816  71.7423043  53.5908142  -0.4572248
  71.3489989  53.0374340   0.2175396  72.5589184  53.9018720  -0.0665731
  69.6871031  57.3809831  -3.5167586  70.3143070  56.9986908  -2.9030061
  68.8298950  57.1624033  -3.1511893  74.0498902  58.1410802   0.3326276
  73.9495629  59.0905159   0.2638367  73.8320444  57.8129041  -0.5397654
  70.0235297  55.5119343  -1.4502220  70.8866759  55.1556147  -1.2398895
  69.4500708  55.1733237  -0.7626816   3.1507035  77.9695081  40.3077447
   2.3970743  77.4002479  40.1521452   3.2854576  77.9357745  41.2548082
   3.5613450  78.1270691  43.0397692   4.2916838  77.8655979  43.6005395
   2.9520395  77.3899413  43.0799760   1.6428747  76.2678553  43.6372143
   0.9161910  76.1334518  43.0288634   1.2276034  76.5755382  44.4428861
   1.5677615  75.7956606  39.7648996   1.0077173  75.8649796  40.5380558
   0.9621118  75.6197591  39.0448492   2.7074901  90.1964574  39.5332159
   3.4937991  89.7783997  39.1822576   2.9713606  91.1010666  39.7013808
   8.1083329  90.1339807  40.4365138   8.8408501  89.5639024  40.6702967
   7.3522684  89.7461408  40.8771643   5.6308749  83.8461381  44.8959747
   5.2992074  84.7156792  44.6720961   5.0354362  83.5297665  45.5753777
   5.5237412  88.5656468  41.9753097   4.6154290  88.4971876  41.6811858
   5.4725008  89.0428412  42.8034922   7.3899059  86.7672906  43.7530970
   6.7473439  87.0605439  43.1070765   6.8853987  86.6525826  44.5584167
   5.0439222  90.5136079  34.4416830   5.9557078  90.7463466  34.2664527
   4.5348869  91.0973123  33.8791908   2.8310505  87.5337682  47.1092853
   2.5871437  88.2879743  46.5727129   3.1070436  87.9123030  47.9440100
   2.3875197  86.6894115  42.6906691   1.5259676  86.9875369  42.9823428
   2.4137632  86.9064514  41.7587723  13.9900789  93.2986998  40.3077447
  13.2364498  92.7294396  40.1521452  14.1248330  93.2649663  41.2548082
   2.7291881  81.6930963  44.5131060   2.3856150  82.5832604  44.4370171
   3.0970843  81.5032620  43.6500645   2.6942164  91.6839574  33.0203495
   2.1788787  92.4544178  33.2591883   2.4219472  91.0104710  33.6436557
   1.8088421  84.0635618  42.4780293   1.3053217  84.0265753  41.6648099
   2.1019028  84.9728360  42.5376950   7.6676438  94.4371928  34.9556669
   6.8905880  94.0983088  34.5111831   8.3467919  94.4424551  34.2811634
   2.4828467  89.5566666  34.8463276   2.1778602  89.8712815  35.6973420
   3.4358909  89.6348086  34.8890609   4.7173203  92.2650282  39.6627218
   5.2305085  92.8980274  40.1648928   5.3674427  91.6651478  39.2970578
   1.9789082  91.1391153  37.0388239   2.7260901  91.6512551  36.7295361
   2.2480672  90.8175206  37.8992633   4.4267919  88.1748270  39.0207029
   3.6890676  87.6625656  39.3517271   4.6794693  87.7348651  38.2090305
   4.5279546  80.9524522  39.6148798   4.8338423  80.0921885  39.3274713
   5.2532151  81.5442142  39.4147792   2.3367198  90.3297199  46.7130262
   2.6916586  90.5568672  47.5724727   2.9839329  90.6615576  46.0907517
   8.0664935  93.4515635  37.4179591   7.9282833  93.6417231  36.4900780
   7.7101154  94.2135018  37.8747642   2.3562170  86.4149164  39.9653360
   2.8530869  85.6619126  39.6454430   1.5849151  86.4513480  39.3996569
  10.2091927  92.1189529  41.6071651  10.1981803  93.0014245  41.2365584
   9.3409306  91.7661080  41.4126188   6.8264502  91.0138170  38.0741817
   7.2924954  91.8466162  38.0002120   7.2772002  90.5483152  38.7787076
   4.7981164  83.3818757  42.1132719   3.8844244  83.6122984  42.2814926
   5.2274266  83.4657201  42.9646751   4.5687623  91.5708649  44.6132613
   3.9159073  91.8184557  43.9585066   4.9468003  90.7572787  44.2795090
   1.5609222  87.0176937  35.1435968   1.7772836  87.9001575  34.8424796
   1.0803289  86.6263150  34.4141610  10.8116537  93.2689749  38.2121114
  11.2547683  92.5197074  37.8140238   9.9343047  93.2599885  37.8294846
   7.6535523  94.7545166  47.8398970   7.7033527  94.5895173  48.7814493
   7.5449446  93.8872425  47.4496851   4.9439285  90.7376094  49.1558277
   5.8449148  90.5982558  48.8642275   5.0187259  90.9030548  50.0956454
  10.3549402  94.7394987  40.6043562  11.1896293  95.1784791  40.7681122
  10.4908530  94.2633640  39.7851808   7.4040908  92.2974722  46.5521050
   7.8795029  92.4902368  45.7439901   6.4806473  92.3533908  46.3064433
   1.9821124  84.3322565  45.5176884   2.5003068  85.0683592  45.1923372
   1.6276257  84.6386559  46.3523643   2.2333718  80.7522848  41.0377780
   2.5135472  80.0846037  41.6638207   3.0184325  80.9451943  40.5252444
   6.1042577  89.1740482  44.7849355   7.0560000  89.2738579  44.8061579
   5.9346027  88.3818750  45.2947440   4.1256956  86.2596065  44.9708756
   3.5306888  86.5401078  44.2755245   3.8406653  86.7489966  45.7425497
   8.5830654  92.3946602  43.8991655   8.5506975  91.4562602  44.0851339
   9.1931278  92.4730638  43.1657480   8.7325143  89.1857645  43.9449938
   8.2164192  88.4016102  43.7579867   9.6165091  88.8576362  44.1096458
   6.3935870  82.9298661  39.9045751   6.1960691  82.6213749  40.7889083
   7.0035575  83.6560299  40.0343681  14.4007204  93.4562608  43.0397692
  15.1310593  93.1947896  43.6005395  13.7914150  92.7191330  43.0799760
  12.4822501  91.5970471  43.6372143  11.7555665  91.4626436  43.0288634
  12.0669788  91.9047300  44.4428861   2.1509516  82.8107567  37.6542282
   2.7040555  83.2303021  38.3132305   2.3879603  81.8843315  37.6965238
   5.5288324  84.9208093  37.1620946   4.9486993  85.5792897  36.7798999
   5.2624256  84.0985437  36.7508364   3.9791890  84.3213150  39.3642267
   4.4791668  84.4329685  38.5556585   4.6227498  84.0174203  40.0043075
   4.3113202  87.0808183  36.2177295   3.4239057  87.3657834  35.9997489
   4.7267191  86.9201946  35.3704571   7.6627738  87.1054704  39.9331634
   8.4388128  87.5951156  40.2056251   6.9375872  87.5312758  40.3903503
  10.1000296  87.8182323  40.9905574  10.6944787  87.5778059  40.2798883
  10.1726880  87.0989454  41.6179111   4.2854225  92.5962719  36.4327585
   4.2289427  93.0531270  35.5935217   4.8382568  91.8353403  36.2550427
   8.0959031  88.3852451  37.2577704   7.8395965  87.9849086  38.0885912
   7.4711899  89.0996245  37.1327843  12.4071369  91.1248524  39.7648996
  11.8470927  91.1941713  40.5380558  11.8014872  90.9489509  39.0448492
   2.1437250  79.8818386  37.5611369   1.3769645  79.3276872  37.7068051
   2.5547954  79.9540255  38.4225521  15.3673301  96.2816439  39.6148798
  15.6732178  95.4213803  39.3274713  16.0925906  96.8734060  39.4147792
  13.0727473  96.0814765  41.0377780  13.3529227  95.4137955  41.6638207
  13.8578080  96.2743861  40.5252444  12.9831004  95.2110303  37.5611369
  12.2163400  94.6568790  37.7068051  13.3941709  95.2832172  38.4225521
   3.1507036  54.9757203  27.0322754   2.3970744  54.4064601  26.8766758
   3.2854577  54.9419868  27.9793389   3.5613451  55.1332813  29.7642998
   4.2916839  54.8718101  30.3250702   2.9520396  54.3961535  29.8045066
   1.6428748  53.2740676  30.3617449   0.9161912  53.1396641  29.7533941
   1.2276035  53.5817504  31.1674168   1.5677616  52.8018729  26.4894302
   1.0077174  52.8711918  27.2625864   0.9621119  52.6259714  25.7693799
   3.1533634  69.4775243  29.1824258   3.7912044  69.3581990  28.4787598
   3.0354477  70.4256087  29.2412210   2.7074903  67.2026697  26.2577466
   3.4937992  66.7846120  25.9067883   2.9713607  68.1072789  26.4259114
   2.8784980  72.6399547  20.9566123   2.2430813  72.7134173  21.6687027
   2.5482387  73.2293146  20.2785202   8.1083330  67.1401930  27.1610445
   8.8408502  66.5701147  27.3948274   7.3522686  66.7523530  27.6016950
   5.6308750  60.8523504  31.6205053   5.2992075  61.7218915  31.3966268
   5.0354364  60.5359788  32.2999084   2.1240270  73.0536050  31.0200966
   1.8240993  73.9561089  30.9116773   1.7791329  72.7868233  31.8722119
   5.5237414  65.5718590  28.6998403   4.6154291  65.5033999  28.4057164
   5.4725009  66.0490535  29.5280229   7.3899060  63.7735029  30.4776277
   6.7473440  64.0667562  29.8316072   6.8853988  63.6587949  31.2829474
   5.0439224  67.5198202  21.1662136   5.9557080  67.7525588  20.9909834
   4.5348871  68.1035246  20.6037215   3.3279991  71.9422830  34.8023429
   3.7363347  71.5005240  34.0578061   2.6057253  71.3675457  35.0557622
   3.6508806  72.5024020  28.5575718   3.0217668  72.6669734  27.8551786
   3.2634468  72.9165630  29.3286682   7.5298038  73.4378458  25.9120082
   6.8449076  73.8177359  25.3617115   7.6141887  74.0473785  26.6452029
   2.8310507  64.5399805  33.8338160   2.5871439  65.2941865  33.2972435
   3.1070437  64.9185152  34.6685407   4.7848969  71.0838417  32.5115425
   4.9965865  71.7270177  31.8349806   4.7378718  70.2500734  32.0437355
   2.3875198  63.6956238  29.4151997   1.5259677  63.9937491  29.7068735
   2.4137633  63.9126637  28.4833030   5.8994797  73.9610372  30.6837782
   6.7212241  73.5590560  30.4020464   5.8957200  73.8578607  31.6353898
  13.9900790  70.3049121  27.0322754  13.2364499  69.7356519  26.8766758
  14.1248332  70.2711785  27.9793389   1.0067895  75.7986090  36.8377815
   0.5631749  75.0122468  36.5198720   1.6685108  75.9865240  36.1721706
   3.1049133  76.0788890  34.8659217   3.0867608  76.8997771  34.3739486
   4.0269053  75.9542965  35.0909358   2.7291882  58.6993085  31.2376367
   2.3856151  59.5894727  31.1615477   3.0970845  58.5094743  30.3745952
   2.6942165  68.6901696  19.7448802   2.1788788  69.4606301  19.9837189
   2.4219473  68.0166832  20.3681863   1.8088422  61.0697740  29.2025600
   1.3053218  61.0327875  28.3893405   2.1019029  61.9790483  29.2622257
   7.6676439  71.4434051  21.6801975   6.8905882  71.1045210  21.2357137
   8.3467920  71.4486674  21.0056940   2.4828468  66.5628788  21.5708583
   2.1778604  66.8774938  22.4218726   3.4358910  66.6410208  21.6135916
   5.9067746  70.9168032  28.3368583   5.2491420  71.6067294  28.4248712
   6.7108145  71.3064464  28.6802570   4.7173205  69.2712405  26.3872525
   5.2305086  69.9042397  26.8894235   5.3674428  68.6713600  26.0215885
   1.9789083  68.1453276  23.7633546   2.7260902  68.6574673  23.4540668
   2.2480673  67.8237329  24.6237939   5.4835001  74.2518406  24.5151668
   5.0297328  73.4109316  24.5716858   4.8528968  74.8879805  24.8526448
   4.4267920  65.1810392  25.7452335   3.6890677  64.6687779  26.0762578
   4.6794694  64.7410774  24.9335612   3.9267940  76.0894903  25.4501486
   4.2190914  76.6499960  24.7313852   4.4366561  76.3823464  26.2054645
   4.5279548  57.9586644  26.3394104   4.8338425  57.0984008  26.0520020
   5.2532153  58.5504265  26.1393098   2.3367199  67.3359322  33.4375568
   2.6916587  67.5630795  34.2970034   2.9839330  67.6677698  32.8152824
   8.0664936  70.4577758  24.1424897   7.9282835  70.6479353  23.2146087
   7.7101155  71.2197140  24.5992948   8.0934316  72.5254285  29.1536169
   8.5270822  72.4329574  30.0019223   8.8065896  72.5011785  28.5156185
   1.8262210  76.1256379  30.6869269   1.8799233  76.6947315  31.4546985
   0.9576992  76.2958264  30.3223307   8.9549865  72.5677985  31.6869054
   9.1485755  73.4723796  31.9328329   8.8550483  72.1085404  32.5207639
   4.0164974  72.7184728  37.2609935   3.8650480  72.4895280  36.3440019
   4.0069653  73.6755329  37.2741280   1.1343857  73.6948908  27.4043577
   0.7993690  73.6549678  28.3001227   0.6347803  73.0293624  26.9313987
   5.7257180  75.7503850  35.3386417   5.6669727  75.0663071  34.6717000
   6.1276699  76.4922840  34.8867043   5.7274588  73.7143434  33.5700396
   4.8401367  73.3769356  33.6926795   6.2973139  72.9826466  33.8069162
   2.3562171  63.4211286  26.6898667   2.8530870  62.6681249  26.3699737
   1.5849152  63.4575603  26.1241876  10.2091928  69.1251652  28.3316958
  10.1981805  70.0076367  27.9610891   9.3409308  68.7723203  28.1371495
   1.7174425  78.2731721  32.6919798   2.4302397  78.9079186  32.6195700
   1.2264453  78.3695587  31.8759800   3.4391952  72.1782973  24.2637090
   2.5048230  72.2984436  24.0941794   3.6168620  71.2755440  23.9997100
   6.8264503  68.0200293  24.7987124   7.2924955  68.8528284  24.7247427
   7.2772003  67.5545274  25.5032383   4.8940734  74.3644114  21.7973276
   5.1700578  74.2500709  22.7067150   4.0245233  73.9661599  21.7585449
   4.7981166  60.3880880  28.8378025   3.8844245  60.6185107  29.0060232
   5.2274267  60.4719324  29.6892058   4.5687624  68.5770772  31.3377919
   3.9159074  68.8246679  30.6830372   4.9468004  67.7634910  31.0040397
   1.5294798  78.6130465  25.4406090   1.7117193  77.7952121  25.9033842
   2.3527784  78.8298157  25.0030980   1.8636964  77.5398650  22.7021138
   2.3924730  77.0291105  22.0891300   2.1265183  77.2241180  23.5666671
   4.2108854  75.4518768  37.9150227   4.7548758  76.0648726  37.4205182
   3.6295699  76.0098346  38.4317240   2.4966367  78.5739486  29.0465255
   2.3717507  77.7729226  28.5376200   3.1545458  79.0685679  28.5579225
   4.5601276  76.3748506  30.6744805   3.6131611  76.2553857  30.6023131
   4.9084049  75.4871004  30.7571066   1.5647709  76.1701222  26.8749157
   1.4172671  75.2417929  27.0556727   2.3901203  76.1921313  26.3906232
   5.1681831  76.9929781  27.9614030   6.0928378  76.7872642  27.8238481
   4.9997134  76.7446182  28.8703371   1.5609223  64.0239060  21.8681274
   1.7772838  64.9063698  21.5670102   1.0803290  63.6325273  21.1386916
   4.9577147  77.5115448  23.3176121   5.1314025  76.9461871  22.5649974
   5.4506038  78.3116343  23.1355611  10.8116538  70.2751871  24.9366421
  11.2547684  69.5259196  24.5385544   9.9343049  70.2662008  24.5540153
   5.9452320  76.8282213  20.4173019   6.6403224  77.4488905  20.6360334
   6.2875470  75.9777564  20.6925397   7.8443743  74.2781918  21.9460350
   8.3695067  74.6169191  21.2209670   7.7566095  73.3428933  21.7623485
   7.5337649  74.9114822  37.2511548   6.7433192  74.8938961  36.7116048
   7.2971003  75.4503115  38.0060585   7.6535524  71.7607288  34.5644277
   7.7033529  71.5957296  35.5059800   7.5449447  70.8934547  34.1742157
   4.9439286  67.7438216  35.8803583   5.8449149  67.6044681  35.5887581
   5.0187261  67.9092671  36.8201761   9.1553721  74.1804230  34.8086298
   8.8638529  74.5434210  35.6449759   8.5425852  73.4671238  34.6299630
  10.3549403  71.7457109  27.3288868  11.1896294  72.1846914  27.4926429
  10.4908532  71.2695763  26.5097114   7.4040909  69.3036844  33.2766356
   7.8795030  69.4964491  32.4685208   6.4806474  69.3596030  33.0309740
   1.9821125  61.3384688  32.2422190   2.5003069  62.0745715  31.9168679
   1.6276258  61.6448681  33.0768949   2.2333720  57.7584970  27.7623087
   2.5135473  57.0908159  28.3883513   3.0184326  57.9514066  27.2497751
   6.1042578  66.1802604  31.5094662   7.0560001  66.2800702  31.5306886
   5.9346028  65.3880873  32.0192746   4.1256957  63.2658188  31.6954063
   3.5306889  63.5463200  31.0000551   3.8406654  63.7552089  32.4670804
   8.5830656  69.4008724  30.6236961   8.5506976  68.4624725  30.8096645
   9.1931279  69.4792761  29.8902786   8.7325144  66.1919768  30.6695245
   8.2164193  65.4078224  30.4825174   9.6165093  65.8638484  30.8341764
   6.3935871  59.9360783  26.6291057   6.1960692  59.6275871  27.5134389
   7.0035577  60.6622422  26.7588987  14.4007206  70.4624731  29.7642998
  15.1310594  70.2010019  30.3250702  13.7914151  69.7253453  29.8045066
  12.4822503  68.6032594  30.3617449  11.7555666  68.4688558  29.7533941
  12.0669790  68.9109422  31.1674168   2.1509518  59.8169690  24.3787589
   2.7040556  60.2365143  25.0377612   2.3879604  58.8905438  24.4210545
   5.5288325  61.9270215  23.8866253   4.9486994  62.5855019  23.5044305
   5.2624257  61.1047560  23.4753670   3.9791891  61.3275273  26.0887573
   4.4791669  61.4391807  25.2801892   4.6227499  61.0236326  26.7288382
   4.3113203  64.0870306  22.9422601   3.4239058  64.3719956  22.7242796
   4.7267192  63.9264069  22.0949878   7.6627739  64.1116826  26.6576940
   8.4388129  64.6013279  26.9301557   6.9375873  64.5374881  27.1148810
  10.1000298  64.8244446  27.7150881  10.6944788  64.5840182  27.0044189
  10.1726881  64.1051576  28.3424417   4.2854227  69.6024841  23.1572891
   4.2289428  70.0593393  22.3180524   4.8382569  68.8415526  22.9795734
   8.0959032  65.3914573  23.9823011   7.8395967  64.9911209  24.8131219
   7.4711900  66.1058367  23.8573150  12.4071370  68.1310647  26.4894302
  11.8470928  68.2003836  27.2625864  11.8014874  67.9551631  25.7693799
   5.3643114  74.2897509  19.0869081   6.1988718  73.8578708  18.9046556
   5.2027457  74.1179523  20.0145976   5.0189006  70.7929623  20.4525421
   4.9637810  70.6273894  19.5113865   4.3935061  71.5005656  20.6087610
   2.3334913  73.0978535  39.7778983   3.2026073  73.2719187  39.4165618
   1.8541664  73.9172951  39.6554713   2.1437251  56.8880508  24.2856676
   1.3769647  56.3338995  24.4313358   2.5547956  56.9602377  25.1470827
  13.9927389  84.8067161  29.1824258  14.6305799  84.6873908  28.4787598
  13.8748232  85.7548004  29.2412210  10.8017095  84.7594589  29.1185783
  10.4635607  84.6435653  28.2306318  11.6706863  84.3585754  29.0986789
   6.6603911  86.6130065  25.1082674   6.0968776  86.5220002  24.3398961
   6.5456306  85.7929969  25.5885166  11.2836878  85.9129440  35.0771988
  11.2725519  85.5182239  34.2052492  11.4457518  85.1795513  35.6705760
   4.2068343  88.1081257  27.9466894   4.9989635  87.7672081  27.5313193
   4.4464993  88.2176232  28.8669047   8.0044139  88.6966552  34.0251172
   7.7134005  89.6012183  33.9097839   8.6401124  88.7383080  34.7395242
   8.9300346  86.0743401  30.6152532   9.5263918  85.8499423  29.9009495
   8.9875318  85.3328146  31.2177980  13.5468657  82.5318614  26.2577466
  14.3331746  82.1138038  25.9067883  13.8107362  83.4364707  26.4259114
  13.7178735  87.9691465  20.9566123  13.0824568  88.0426091  21.6687027
  13.3876141  88.5585063  20.2785202  18.9477084  82.4693848  27.1610445
  19.6802256  81.8993064  27.3948274  18.1916440  82.0815448  27.6016950
  10.5653204  84.8921089  24.3573787  10.2011411  84.3651710  25.0686708
  11.4220320  84.5019558  24.1840272  16.4702505  76.1815422  31.6205053
  16.1385830  77.0510833  31.3966268  15.8748118  75.8651706  32.2999084
  10.2058691  79.9210989  19.3535136  10.3733093  80.7891225  19.7205607
  10.0155860  80.0838270  18.4296425  12.9634024  88.3827968  31.0200966
  12.6634747  89.2853006  30.9116773  12.6185084  88.1160151  31.8722119
   6.4146506  84.8341764  27.0537670   5.4897002  84.7017979  27.2615362
   6.6630919  85.6135984  27.5507613  16.3631168  80.9010508  28.6998403
  15.4548045  80.8325916  28.4057164  16.3118764  81.3782453  29.5280229
  10.1847912  82.3768646  20.3381802  10.0647537  82.8225697  21.1767283
   9.4900500  82.7253964  19.7795340   3.7755317  84.4775038  27.8881459
   3.9047698  84.7309517  28.8020871   3.0952768  85.0702746  27.5686114
  10.4372034  82.3200153  36.6433300   9.6605368  82.8794074  36.6336165
  11.0762597  82.8056936  37.1648171  18.2292814  79.1026946  30.4776277
  17.5867195  79.3959479  29.8316072  17.7247743  78.9879867  31.2829474
  15.8832978  82.8490119  21.1662136  16.7950834  83.0817506  20.9909834
  15.3742625  83.4327164  20.6037215   8.6918406  85.1285607  36.2051267
   9.4333090  85.6670651  35.9286091   7.9855392  85.7551896  36.3622819
  14.1673746  87.2714747  34.8023429  14.5757102  86.8297158  34.0578061
  13.4451007  86.6967375  35.0557622  10.5204816  82.2087354  32.1756986
  11.3666011  82.6326768  32.3191635  10.4603453  81.5520978  32.8695549
  14.4902560  87.8315938  28.5575718  13.8611423  87.9961652  27.8551786
  14.1028222  88.2457547  29.3286682  18.3691792  88.7670376  25.9120082
  17.6842830  89.1469277  25.3617115  18.4535642  89.3765702  26.6452029
  13.6704261  79.8691722  33.8338160  13.4265193  80.6233783  33.2972435
  13.9464192  80.2477070  34.6685407  15.6242724  86.4130335  32.5115425
  15.8359619  87.0562095  31.8349806  15.5772472  85.5792651  32.0437355
  13.2268953  79.0248155  29.4151997  12.3653432  79.3229409  29.7068735
  13.2531388  79.2418554  28.4833030  10.0430522  87.5690346  25.8225803
  10.5068868  87.8478049  25.0330425   9.7787320  86.6673791  25.6398894
   6.9354603  87.1161828  28.7605566   7.5055960  87.5449096  28.1223051
   7.5262715  86.8344412  29.4589752   8.9799408  83.6913498  22.6315368
   9.6823452  84.1434542  23.0989294   8.6480037  83.0497317  23.2595261
   7.4279770  82.2825255  37.0066577   6.7978430  82.9641536  37.2401974
   7.3215858  82.1708337  36.0619716   2.7224742  81.9497051  27.9332502
   1.9323796  82.2054580  27.4572612   3.2135990  82.7645389  28.0384542
  16.7388552  89.2902290  30.6837782  17.5605996  88.8882477  30.4020464
  16.7350955  89.1870524  31.6353898   4.6739488  82.3141630  24.8915978
   3.8770651  82.4260324  25.4099474   4.4465080  82.6528282  24.0256869
  10.5045155  88.8386333  32.8398493  10.5689588  89.3006741  33.6756665
   9.7956079  88.2083698  32.9680803   1.0062445  82.2027541  30.3647492
   1.2570484  83.0874551  30.6305068   1.5421994  82.0232143  29.5922584
  24.8294545  85.6341039  27.0322754  24.0758253  85.0648437  26.8766758
  24.9642086  85.6003703  27.9793389   6.7060513  76.5846021  39.3691829
   6.3127458  76.0312219  40.0439473   7.5226653  76.8956599  39.7598346
   9.6228474  78.0003900  36.9612085  10.3638187  78.6011053  36.8816548
   9.8546396  77.2581538  36.4030128   4.7669812  83.1860267  35.2390315
   4.6523327  82.2845524  35.5397414   3.9114329  83.4323964  34.8875131
  11.8461649  91.1278007  36.8377815  11.4025504  90.3414386  36.5198720
  12.5078863  91.3157158  36.1721706   6.6048771  92.6573809  31.3638494
   7.1556196  92.5290872  30.5915488   5.7660246  92.9568698  31.0133387
  13.9442887  91.4080807  34.8659217  13.9261363  92.2289688  34.3739486
  14.8662807  91.2834883  35.0909358  10.4015942  88.9224937  35.7082725
  10.9344278  88.1613225  35.4782033   9.8730023  88.6298589  36.4506880
  13.5685637  74.0285003  31.2376367  13.2249906  74.9186645  31.1615477
  13.9364599  73.8386660  30.3745952  13.5335919  84.0193614  19.7448802
  13.0182543  84.7898219  19.9837189  13.2613228  83.3458750  20.3681863
  11.1183030  78.8643315  24.8034040  10.2624627  78.4750165  24.6239679
  11.5309982  78.9435276  23.9433826  12.6482177  76.3989658  29.2025600
  12.1446973  76.3619793  28.3893405  12.9412784  77.3082401  29.2622257
   8.8925063  76.4828388  28.2091782   9.7578060  76.2871196  27.8497671
   8.9602572  76.2538739  29.1361139  18.5070193  86.7725969  21.6801975
  17.7299636  86.4337128  21.2357137  19.1861674  86.7778592  21.0056940
  13.3222222  81.8920706  21.5708583  13.0172358  82.2066855  22.4218726
  14.2752665  81.9702126  21.6135916  11.7668654  88.0510929  23.2201537
  11.2390016  87.3163689  22.9074775  11.2656157  88.8285606  22.9741505
  16.7461500  86.2459950  28.3368583  16.0885175  86.9359211  28.4248712
  17.5501900  86.6356382  28.6802570   6.4987382  78.7130596  25.5808149
   7.0731134  78.4905777  24.8481342   7.0858364  78.7819290  26.3336750
  15.5566959  84.6004323  26.3872525  16.0698841  85.2334314  26.8894235
  16.2068183  84.0005518  26.0215885   8.8010050  75.5871845  24.3083218
   8.1474462  75.2720862  23.6839833   8.7590524  74.9647585  25.0343041
  12.0347790  82.0753778  28.6330866  11.1170351  82.2968725  28.4752554
  12.4507934  82.1500089  27.7742573  12.8182838  83.4745194  23.7633546
  13.5654657  83.9866591  23.4540668  13.0874427  83.1529246  24.6237939
  16.3228755  89.5810324  24.5151668  15.8691082  88.7401234  24.5716858
  15.6922722  90.2171722  24.8526448  15.2661675  80.5102310  25.7452335
  14.5284432  79.9979696  26.0762578  15.5188448  80.0702692  24.9335612
  14.7661695  91.4186821  25.4501486  15.0584669  91.9791878  24.7313852
  15.2760315  91.7115382  26.2054645  15.3673302  73.2878562  26.3394104
  15.6732179  72.4275925  26.0520020  16.0925907  73.8796182  26.1393098
   9.6394382  83.5832355  26.8470296   9.6942992  82.6306191  26.7712772
   8.8285584  83.7391794  27.3311594   7.5786742  82.2009415  24.6060674
   6.7654607  82.5003585  25.0125867   8.0745736  81.8065104  25.3235157
   9.7295320  92.1967172  26.5394939   9.6871499  92.4228018  25.6103471
  10.6458019  91.9630546  26.6880740  13.1760954  82.6651239  33.4375568
  13.5310341  82.8922712  34.2970034  13.8233085  82.9969616  32.8152824
  18.9058690  85.7869675  24.1424897  18.7676589  85.9771271  23.2146087
  18.5494909  86.5489058  24.5992948   7.0700817  79.7727770  30.2221909
   7.7100196  79.6316529  29.5244873   6.2378347  79.4862284  29.8460511
  18.9328070  87.8546202  29.1536169  19.3664577  87.7621491  30.0019223
  19.6459651  87.8303703  28.5156185   7.8461121  89.0730201  26.3356902
   8.6401719  88.5780521  26.1339477   7.1352813  88.5448064  25.9724607
  12.6655965  91.4548296  30.6869269  12.7192987  92.0239233  31.4546985
  11.7970746  91.6250181  30.3223307   4.0729433  79.7428095  24.9994896
   4.3336250  80.6573429  24.8904057   4.8946605  79.2752538  25.1491509
   5.5454358  81.1565853  32.1693721   6.2177412  80.9483215  31.5206370
   4.7184145  80.9587939  31.7298953  19.7943620  87.8969903  31.6869054
  19.9879510  88.8015713  31.9328329  19.6944238  87.4377322  32.5207639
  11.4479930  77.7827793  34.1859382  10.8007845  78.4817743  34.0923858
  12.2180946  78.2163937  34.5535630  14.8558728  88.0476646  37.2609935
  14.7044235  87.8187197  36.3440019  14.8463408  89.0047247  37.2741280
  11.6244065  85.6208558  32.2456201  12.5536125  85.7719718  32.0725169
  11.2035095  85.7092579  31.3904848  10.4232397  89.6459223  30.0154739
  10.2843482  89.2778007  30.8880677   9.6346993  90.1606862  29.8438697
  11.9737612  89.0240825  27.4043577  11.6387444  88.9841595  28.3001227
  11.4741557  88.3585541  26.9313987   5.9481856  84.4308455  32.9296158
   5.8101654  83.6988694  33.5307697   6.8586779  84.3417356  32.6480346
   8.5764156  84.1428415  32.4179837   9.2863775  83.5021607  32.3766456
   8.5333464  84.3941310  33.3406018  16.5650935  91.0795768  35.3386417
  16.5063481  90.3954988  34.6717000  16.9670453  91.8214758  34.8867043
   7.2893090  81.1293633  34.2375477   6.7530447  80.6784371  34.8897073
   6.7009799  81.2639542  33.4945941  16.5668342  89.0435352  33.5700396
  15.6795121  88.7061274  33.6926795  17.1366893  88.3118383  33.8069162
   3.0232211  80.2649640  31.3228471   2.9390400  79.6575310  30.5878881
   2.2014918  80.7558659  31.3237968  10.0969496  93.7036804  30.5361640
  10.0239667  94.5091776  31.0480944   9.6546889  93.9028770  29.7109661
  13.1955925  78.7503204  26.6898667  13.6924625  77.9973166  26.3699737
  12.4242907  78.7867521  26.1241876  21.0485683  84.4543569  28.3316958
  21.0375559  85.3368285  27.9610891  20.1803062  84.1015120  28.1371495
  12.5568179  93.6023638  32.6919798  13.2696151  94.2371103  32.6195700
  12.0658208  93.6987504  31.8759800  14.2785706  87.5074891  24.2637090
  13.3441985  87.6276354  24.0941794  14.4562375  86.6047358  23.9997100
   9.7790894  80.8920587  26.4170351   9.4088682  80.3391627  27.1051257
  10.2749987  80.2878720  25.8645351  17.6658257  83.3492210  24.7987124
  18.1318710  84.1820202  24.7247427  18.1165758  82.8837192  25.5032383
   7.6080093  91.3518082  33.5125369   8.3089552  91.9854565  33.6654763
   7.1375208  91.6932813  32.7521008  15.7334489  89.6936032  21.7973276
  16.0094332  89.5792626  22.7067150  14.8638987  89.2953517  21.7585449
  15.6374920  75.7172797  28.8378025  14.7238000  75.9477024  29.0060232
  16.0668022  75.8011241  29.6892058  15.4081379  83.9062689  31.3377919
  14.7552829  84.1538597  30.6830372  15.7861759  83.0926828  31.0040397
  12.3688553  93.9422383  25.4406090  12.5510947  93.1244038  25.9033842
  13.1921539  94.1590075  25.0030980  12.7030718  92.8690568  22.7021138
  13.2318484  92.3583022  22.0891300  12.9658938  92.5533098  23.5666671
  11.4568952  84.6482500  37.8243957  10.7809589  84.5476630  38.4946332
  12.2796586  84.4921714  38.2879954   3.2047811  90.8854437  30.4456472
   3.7901248  90.1398125  30.5784376   3.0072649  91.1958394  31.3293136
   5.1756228  78.3024578  32.6623457   5.2397554  79.1639409  32.2500855
   5.1123348  77.6898579  31.9295816   4.6508500  80.3747710  36.3096491
   5.2780539  79.9924788  36.9234016   3.7936419  80.1561912  36.6752184
  15.0502609  90.7810685  37.9150227  15.5942513  91.3940644  37.4205182
  14.4689454  91.3390264  38.4317240  13.3360122  93.9031403  29.0465255
  13.2111261  93.1021143  28.5376200  13.9939213  94.3977597  28.5579225
   4.9568290  80.2580136  28.2242395   4.2354876  80.8716104  28.0849868
   5.7461546  80.7937901  28.1459041  15.3995030  91.7040424  30.6744805
  14.4525366  91.5845775  30.6023131  15.7477803  90.8162922  30.7571066
   7.7594604  77.5934562  34.4983047   8.2829005  77.8396859  35.2609356
   7.5406937  78.4254597  34.0786184  12.4041464  91.4993140  26.8749157
  12.2566426  90.5709847  27.0556727  13.2294957  91.5213230  26.3906232
   6.2703708  80.1511207  22.7329649   6.6099780  80.6797128  22.0108257
   6.7175828  80.4891613  23.5088216  16.0075585  92.3221698  27.9614030
  16.9322133  92.1164560  27.8238481  15.8390889  92.0738100  28.8703371
   8.9647149  78.5348258  32.1832717   8.6243969  77.7356071  32.5853397
   8.2586155  78.8349968  31.6109550   9.6163620  75.6197570  30.6360040
  10.4389690  75.1458048  30.5138931   9.8601684  76.3988054  31.1358726
   8.2571855  78.6485828  20.9322942   8.9780217  79.0267081  20.4286659
   7.6337159  79.3674705  21.0357920  12.4002978  79.3530977  21.8681274
  12.6166592  80.2355615  21.5670102  11.9197045  78.9617191  21.1386916
   7.1402199  82.3116691  28.4452019   6.9946780  82.6256994  29.3376300
   6.6627403  82.9301591  27.8922917   8.9998582  79.3019239  28.4932908
   8.9860151  78.4060332  28.1565206   9.7171010  79.3089902  29.1271194
  10.8524713  79.7356579  30.5386036  10.5942491  80.6573649  30.5370366
  10.3209753  79.3387013  31.2286500  15.7970902  92.8407366  23.3176121
  15.9707779  92.2753788  22.5649974  16.2899793  93.6408261  23.1355611
   1.6147861  84.8522035  31.3839680   1.0701329  85.6281843  31.5159954
   2.4927211  85.1992839  31.2258801   8.4035478  78.1833619  23.7620478
   8.5251389  77.2550265  23.9611366   8.1137520  78.1972305  22.8498794
  11.2726668  75.8688529  26.8987198  11.2948365  75.9327862  25.9439178
  11.6894727  75.0293038  27.0927704  21.6510293  85.6043789  24.9366421
  22.0941439  84.8551114  24.5385544  20.7736803  85.5953925  24.5540153
  16.7846074  92.1574130  20.4173019  17.4796979  92.7780823  20.6360334
  17.1269224  91.3069482  20.6925397   2.4013883  83.9791931  34.2769837
   1.6595619  84.1274567  34.8634467   2.0806628  84.2400197  33.4136586
  18.6837497  89.6073836  21.9460350  19.2088821  89.9461109  21.2209670
  18.5959850  88.6720851  21.7623485  10.3457546  93.5207909  34.0750227
  10.6544672  93.2757056  34.9472926  11.1433028  93.7254548  33.5869097
  10.3678158  95.6745819  26.3055603   9.9283148  95.1822198  26.9988460
  11.1186275  95.1318787  26.0647679   7.8152030  91.2183828  28.3777905
   7.1932039  90.5554533  28.0780133   8.4856897  91.2444960  27.6951553
   7.8876558  79.6965616  37.9710411   7.9364713  80.5727739  37.5888181
   8.4299072  79.1543009  37.3982054  18.3731403  90.2406739  37.2511548
  17.5826947  90.2230878  36.7116048  18.1364758  90.7795033  38.0060585
  18.4929278  87.0899206  34.5644277  18.5427283  86.9249213  35.5059800
  18.3843202  86.2226465  34.1742157  15.7833041  83.0730134  35.8803583
  16.6842903  82.9336599  35.5887581  15.8581015  83.2384589  36.8201761
  10.1175846  80.4496989  34.7256770   9.2479155  80.7430555  34.4539358
  10.3535326  81.0337434  35.4464033  19.9947475  89.5096147  34.8086298
  19.7032283  89.8726128  35.6449759  19.3819606  88.7963156  34.6299630
  21.1943157  87.0749027  27.3288868  22.0290049  87.5138831  27.4926429
  21.3302286  86.5987680  26.5097114  18.2434663  84.6328762  33.2766356
  18.7188785  84.8256408  32.4685208  17.3200229  84.6887948  33.0309740
  12.8214880  76.6676606  32.2422190  13.3396824  77.4037632  31.9168679
  12.4670013  76.9740599  33.0768949  13.0727474  73.0876888  27.7623087
  13.3529228  72.4200077  28.3883513  13.8578081  73.2805984  27.2497751
  16.9436332  81.5094522  31.5094662  17.8953755  81.6092620  31.5306886
  16.7739783  80.7172791  32.0192746  14.9650712  78.5950105  31.6954063
  14.3700644  78.8755118  31.0000551  14.6800409  79.0844006  32.4670804
  19.4224410  84.7300642  30.6236961  19.3900730  83.7916642  30.8096645
  20.0325034  84.8084678  29.8902786  19.5718899  81.5211685  30.6695245
  19.0557947  80.7370142  30.4825174  20.4558847  81.1930402  30.8341764
  17.2329626  75.2652701  26.6291057  17.0354447  74.9567789  27.5134389
  17.8429331  75.9914340  26.7588987  25.2400960  85.7916649  29.7642998
  25.9704348  85.5301937  30.3250702  24.6307905  85.0545371  29.8045066
  23.3216257  83.9324511  30.3617449  22.5949421  83.7980476  29.7533941
  22.9063544  84.2401340  31.1674168  11.1446434  87.6514441  38.1264823
  12.0649443  87.8293040  38.3204869  11.1096017  86.7070486  37.9744522
   4.1408506  85.5615476  30.7687604   4.3594516  86.4932583  30.7875637
   4.5534280  85.2023450  31.5542408  11.0612724  76.0683561  22.7563292
  10.2513452  75.7230646  23.1318538  11.7497141  75.7591105  23.3450904
  12.9903272  75.1461608  24.3787589  13.5434311  75.5657061  25.0377612
  13.2273359  74.2197356  24.4210545   9.0136371  81.1348681  40.1590353
   8.9133098  82.0843038  40.0902444   8.7957913  80.8066920  39.2866423
  16.3682079  77.2562133  23.8866253  15.7880748  77.9146937  23.5044305
  16.1018012  76.4339477  23.4753670  14.8185646  76.6567191  26.0887573
  15.3185424  76.7683725  25.2801892  15.4621254  76.3528243  26.7288382
   8.8767641  84.5645820  38.9755414   8.3934723  85.3646180  39.1819303
   8.9628581  84.5753765  38.0222858   4.8040979  88.4550355  31.0123848
   5.7584232  88.4234297  30.9453780   4.6053503  87.9940979  31.8274074
   5.3940361  87.0251471  33.5794646   6.2133250  87.5195550  33.6029483
   5.6677169  86.1083439  33.5512213  15.1506957  79.4162223  22.9422601
  14.2632812  79.7011874  22.7242796  15.5660946  79.2555987  22.0949878
  18.5021493  79.4408744  26.6576940  19.2781884  79.9305197  26.9301557
  17.7769628  79.8666798  27.1148810  20.9394052  80.1536363  27.7150881
  21.5338543  79.9132099  27.0044189  21.0120636  79.4343494  28.3424417
  15.1247981  84.9316759  23.1572891  15.0683182  85.3885311  22.3180524
  15.6776323  84.1707444  22.9795734  18.9352787  80.7206491  23.9823011
  18.6789721  80.3203127  24.8131219  18.3105655  81.4350285  23.8573150
  23.2465125  83.4602564  26.4894302  22.6864683  83.5295754  27.2625864
  22.6408628  83.2843549  25.7693799  16.2036868  89.6189427  19.0869081
  17.0382472  89.1870626  18.9046556  16.0421211  89.4471441  20.0145976
  15.8582760  86.1221540  20.4525421  15.8031564  85.9565812  19.5113865
  15.2328816  86.8297573  20.6087610  13.1728668  88.4270452  39.7778983
  14.0419827  88.6011105  39.4165618  12.6935419  89.2464869  39.6554713
   9.1678886  75.6229649  20.0310739   9.1557556  76.5671489  20.1879010
  10.0602308  75.4399795  19.7370200   9.0968450  94.2998540  28.1178496
   8.1464081  94.3000401  28.0042868   9.4000936  93.5531274  27.6014530
  12.9831005  72.2172426  24.2856676  12.2163401  71.6630913  24.4313358
  13.3941710  72.2894295  25.1470827   4.9872766  78.5057222  38.3761857
   5.8504228  78.1494027  38.5865182   4.4138177  78.1671117  39.0637261
  24.3862412  97.8610532  26.2577466  25.1725501  97.4429955  25.9067883
  24.6501116  98.7656624  26.4259114  29.7870839  97.7985765  27.1610445
  30.5196011  97.2284982  27.3948274  29.0310195  97.4107366  27.6016950
  27.3096259  91.5107339  31.6205053  26.9779584  92.3802750  31.3966268
  26.7141873  91.1943623  32.2999084  21.0452446  95.2502906  19.3535136
  21.2126848  96.1183143  19.7205607  20.8549615  95.4130188  18.4296425
  27.2024923  96.2302426  28.6998403  26.2941800  96.1617834  28.4057164
  27.1512518  96.7074370  29.5280229  21.0241666  97.7060564  20.3381802
  20.9041292  98.1517615  21.1767283  20.3294255  98.0545882  19.7795340
  21.2765788  97.6492071  36.6433300  20.4999122  98.2085991  36.6336165
  21.9156351  98.1348854  37.1648171  29.0686569  94.4318864  30.4776277
  28.4260949  94.7251397  29.8316072  28.5641497  94.3171784  31.2829474
  26.7226733  98.1782037  21.1662136  27.6344589  98.4109424  20.9909834
  26.2136380  98.7619081  20.6037215  21.3598570  97.5379272  32.1756986
  22.2059766  97.9618685  32.3191635  21.2997208  96.8812896  32.8695549
  24.5098016  95.1983640  33.8338160  24.2658948  95.9525701  33.2972435
  24.7857946  95.5768988  34.6685407  24.0662707  94.3540073  29.4151997
  23.2047186  94.6521327  29.7068735  24.0925142  94.5710472  28.4833030
  19.8193163  99.0205416  22.6315368  20.5217206  99.4726460  23.0989294
  19.4873791  98.3789235  23.2595261  18.2673524  97.6117173  37.0066577
  17.6372185  98.2933453  37.2401974  18.1609612  97.5000254  36.0619716
  35.6688299 100.9632956  27.0322754  34.9152008 100.3940354  26.8766758
  35.8035841 100.9295621  27.9793389  17.5454267  91.9137938  39.3691829
  17.1521213  91.3604137  40.0439473  18.3620407  92.2248517  39.7598346
  20.4622228  93.3295818  36.9612085  21.2031941  93.9302971  36.8816548
  20.6940151  92.5873455  36.4030128  24.4079391  89.3576921  31.2376367
  24.0643660  90.2478562  31.1615477  24.7758354  89.1678578  30.3745952
  24.3729674  99.3485532  19.7448802  23.8576297 100.1190136  19.9837189
  24.1006982  98.6750668  20.3681863  21.9576785  94.1935232  24.8034040
  21.1018381  93.8042083  24.6239679  22.3703737  94.2727193  23.9433826
  23.4875931  91.7281576  29.2025600  22.9840727  91.6911711  28.3893405
  23.7806538  92.6374318  29.2622257  19.7318817  91.8120305  28.2091782
  20.5971814  91.6163114  27.8497671  19.7996326  91.5830657  29.1361139
  29.3463948 102.1017886  21.6801975  28.5693391 101.7629046  21.2357137
  30.0255429 102.1070509  21.0056940  24.1615977  97.2212624  21.5708583
  23.8566112  97.5358773  22.4218726  25.1146419  97.2994044  21.6135916
  17.3381136  94.0422513  25.5808149  17.9124888  93.8197695  24.8481342
  17.9252119  94.1111208  26.3336750  26.3960714  99.9296240  26.3872525
  26.9092595 100.5626232  26.8894235  27.0461937  99.3297436  26.0215885
  19.6403804  90.9163762  24.3083218  18.9868216  90.6012779  23.6839833
  19.5984278  90.2939503  25.0343041  22.8741544  97.4045696  28.6330866
  21.9564106  97.6260643  28.4752554  23.2901688  97.4792006  27.7742573
  23.6576592  98.8037111  23.7633546  24.4048411  99.3158509  23.4540668
  23.9268182  98.4821164  24.6237939  26.1055429  95.8394228  25.7452335
  25.3678186  95.3271614  26.0762578  26.3582203  95.3994609  24.9335612
  26.2067057  88.6170480  26.3394104  26.5125933  87.7567843  26.0520020
  26.9319661  89.2088100  26.1393098  20.4788136  98.9124273  26.8470296
  20.5336746  97.9598109  26.7712772  19.6679338  99.0683712  27.3311594
  18.4180496  97.5301333  24.6060674  17.6048362  97.8295503  25.0125867
  18.9139491  97.1357021  25.3235157  24.0154708  97.9943157  33.4375568
  24.3704096  98.2214630  34.2970034  24.6626839  98.3261534  32.8152824
  29.7452445 101.1161593  24.1424897  29.6070344 101.3063189  23.2146087
  29.3888664 101.8780976  24.5992948  17.9094571  95.1019688  30.2221909
  18.5493950  94.9608447  29.5244873  17.0772102  94.8154201  29.8460511
  14.9123188  95.0720013  24.9994896  15.1730005  95.9865346  24.8904057
  15.7340360  94.6044456  25.1491509  16.3848113  96.4857770  32.1693721
  17.0571166  96.2775132  31.5206370  15.5577899  96.2879856  31.7298953
  22.2873685  93.1119711  34.1859382  21.6401600  93.8109661  34.0923858
  23.0574700  93.5455855  34.5535630  18.1286845  96.4585550  34.2375477
  17.5924202  96.0076289  34.8897073  17.5403553  96.5931459  33.4945941
  13.8625966  95.5941558  31.3228471  13.7784155  94.9867228  30.5878881
  13.0408672  96.0850576  31.3237968  24.0349680  94.0795122  26.6898667
  24.5318379  93.3265084  26.3699737  23.2636661  94.1159438  26.1241876
  31.8879437  99.7835487  28.3316958  31.8769314 100.6660203  27.9610891
  31.0196817  99.4307038  28.1371495  20.6184649  96.2212505  26.4170351
  20.2482436  95.6683545  27.1051257  21.1143741  95.6170638  25.8645351
  28.5052012  98.6784128  24.7987124  28.9712464  99.5112120  24.7247427
  28.9559512  98.2129110  25.5032383  26.4768675  91.0464715  28.8378025
  25.5631754  91.2768942  29.0060232  26.9061776  91.1303159  29.6892058
  26.2475133  99.2354607  31.3377919  25.5946583  99.4830515  30.6830372
  26.6255513  98.4218745  31.0040397  22.2962706  99.9774418  37.8243957
  21.6203343  99.8768547  38.4946332  23.1190340  99.8213632  38.2879954
  16.0149982  93.6316495  32.6623457  16.0791309  94.4931326  32.2500855
  15.9517103  93.0190497  31.9295816  15.4902255  95.7039628  36.3096491
  16.1174294  95.3216705  36.9234016  14.6330174  95.4853830  36.6752184
  15.7962045  95.5872054  28.2242395  15.0748630  96.2008021  28.0849868
  16.5855300  96.1229818  28.1459041  18.5988358  92.9226480  34.4983047
  19.1222760  93.1688777  35.2609356  18.3800691  93.7546515  34.0786184
  17.1097462  95.4803124  22.7329649  17.4493535  96.0089046  22.0108257
  17.5569583  95.8183531  23.5088216  19.8040903  93.8640175  32.1832717
  19.4637723  93.0647988  32.5853397  19.0979909  94.1641886  31.6109550
  20.4557375  90.9489488  30.6360040  21.2783444  90.4749966  30.5138931
  20.6995438  91.7279971  31.1358726  19.0965609  93.9777746  20.9322942
  19.8173972  94.3558999  20.4286659  18.4730914  94.6966623  21.0357920
  23.2396732  94.6822895  21.8681274  23.4560347  95.5647533  21.5670102
  22.7590799  94.2909108  21.1386916  17.9795954  97.6408608  28.4452019
  17.8340534  97.9548911  29.3376300  17.5021157  98.2593509  27.8922917
  19.8392337  94.6311156  28.4932908  19.8253905  93.7352250  28.1565206
  20.5564765  94.6381820  29.1271194  21.6918467  95.0648496  30.5386036
  21.4336245  95.9865567  30.5370366  21.1603508  94.6678931  31.2286500
  19.2429233  93.5125537  23.7620478  19.3645144  92.5842183  23.9611366
  18.9531275  93.5264222  22.8498794  22.1120423  91.1980447  26.8987198
  22.1342120  91.2619780  25.9439178  22.5288482  90.3584956  27.0927704
  32.4904047 100.9335707  24.9366421  32.9335193 100.1843032  24.5385544
  31.6130558 100.9245843  24.5540153  18.7270312  95.0257534  37.9710411
  18.7758468  95.9019657  37.5888181  19.2692826  94.4834927  37.3982054
  29.3323033 102.4191124  34.5644277  29.3821038 102.2541131  35.5059800
  29.2236956 101.5518383  34.1742157  26.6226795  98.4022052  35.8803583
  27.5236658  98.2628516  35.5887581  26.6974770  98.5676506  36.8201761
  20.9569600  95.7788906  34.7256770  20.0872910  96.0722472  34.4539358
  21.1929081  96.3629351  35.4464033  32.0336912 102.4040945  27.3288868
  32.8683803 102.8430749  27.4926429  32.1696041 101.9279598  26.5097114
  29.0828418  99.9620680  33.2766356  29.5582539 100.1548326  32.4685208
  28.1593983 100.0179865  33.0309740  23.6608634  91.9968523  32.2422190
  24.1790578  92.7329550  31.9168679  23.3063767  92.3032517  33.0768949
  23.9121228  88.4168806  27.7623087  24.1922982  87.7491995  28.3883513
  24.6971835  88.6097901  27.2497751  27.7830087  96.8386440  31.5094662
  28.7347510  96.9384537  31.5306886  27.6133537  96.0464708  32.0192746
  25.8044466  93.9242023  31.6954063  25.2094398  94.2047036  31.0000551
  25.5194163  94.4135924  32.4670804  30.2618165 100.0592559  30.6236961
  30.2294485  99.1208560  30.8096645  30.8718788 100.1376596  29.8902786
  30.4112653  96.8503603  30.6695245  29.8951702  96.0662060  30.4825174
  31.2952602  96.5222319  30.8341764  28.0723380  90.5944618  26.6291057
  27.8748201  90.2859707  27.5134389  28.6823086  91.3206257  26.7588987
  36.0794714 101.1208566  29.7642998  36.8098103 100.8593854  30.3250702
  35.4701660 100.3837288  29.8045066  34.1610012  99.2616429  30.3617449
  33.4343175  99.1272394  29.7533941  33.7457298  99.5693257  31.1674168
  21.9006478  91.3975479  22.7563292  21.0907207  91.0522563  23.1318538
  22.5890895  91.0883022  23.3450904  23.8297027  90.4753525  24.3787589
  24.3828065  90.8948979  25.0377612  24.0667113  89.5489273  24.4210545
  19.8530126  96.4640599  40.1590353  19.7526853  97.4134956  40.0902444
  19.6351668  96.1358838  39.2866423  27.2075834  92.5854050  23.8866253
  26.6274503  93.2438855  23.5044305  26.9411766  91.7631395  23.4753670
  25.6579400  91.9859108  26.0887573  26.1579178  92.0975643  25.2801892
  26.3015008  91.6820161  26.7288382  25.9900712  94.7454141  22.9422601
  25.1026567  95.0303791  22.7242796  26.4054701  94.5847904  22.0949878
  29.3415248  94.7700662  26.6576940  30.1175638  95.2597114  26.9301557
  28.6163382  95.1958716  27.1148810  31.7787807  95.4828281  27.7150881
  32.3732297  95.2424017  27.0044189  31.8514390  94.7635412  28.3424417
  25.9641736 100.2608677  23.1572891  25.9076937 100.7177228  22.3180524
  26.5170078  99.4999361  22.9795734  29.7746541  96.0498409  23.9823011
  29.5183476  95.6495044  24.8131219  29.1499409  96.7642203  23.8573150
  34.0858879  98.7894482  26.4894302  33.5258437  98.8587671  27.2625864
  33.4802383  98.6135467  25.7693799  20.0072640  90.9521567  20.0310739
  19.9951310  91.8963407  20.1879010  20.8996062  90.7691712  19.7370200
  23.8224760  87.5464344  24.2856676  23.0557156  86.9922830  24.4313358
  24.2335465  87.6186212  25.1470827  15.8266521  93.8349139  38.3761857
  16.6897982  93.4785944  38.5865182  15.2531931  93.4963034  39.0637261
  37.0460811 103.9462397  26.3394104  37.3519688 103.0859761  26.0520020
  37.7713416 104.5380018  26.1393098  34.7514983 103.7460723  27.7623087
  35.0316737 103.0783913  28.3883513  35.5365590 103.9389819  27.2497751
  34.6618514 102.8756261  24.2856676  33.8950910 102.3214748  24.4313358
  35.0729219 102.9478130  25.1470827   3.1533636  46.4837365  15.9069565
   3.7912045  46.3644113  15.2032905   3.0354478  47.4318209  15.9657517
   8.1083331  44.1464052  13.8855751   8.8408503  43.5763269  14.1193581
   7.3522687  43.7585653  14.3262257   5.6308751  37.8585627  18.3450360
   5.2992076  38.7281038  18.1211575   5.0354365  37.5421911  19.0244390
   2.1240271  50.0598173  17.7446273   1.8240994  50.9623211  17.6362080
   1.7791331  49.7930356  18.5967425   7.3899061  40.7797151  17.2021584
   6.7473441  41.0729684  16.5561378   6.8853990  40.6650071  18.0074780
   3.3279993  48.9484952  21.5268736   3.7363349  48.5067363  20.7823368
   2.6057254  48.3737580  21.7802929   3.6508807  49.5086143  15.2821024
   3.0217670  49.6731857  14.5797092   3.2634469  49.9227752  16.0531989
   7.5298039  50.4440581  12.6365388   6.8449077  50.8239482  12.0862422
   7.6141888  51.0535907  13.3697336   2.8310508  41.5461927  20.5583466
   2.5871440  42.3003988  20.0217742   3.1070438  41.9247275  21.3930713
   4.7848971  48.0900540  19.2360732   4.9965866  48.7332300  18.5595113
   4.7378719  47.2562856  18.7682662   5.8994799  50.9672495  17.4083089
   6.7212242  50.5652682  17.1265771   5.8957201  50.8640729  18.3599205
  13.9900792  47.3111244  13.7568061  13.2364500  46.7418642  13.6012065
  14.1248333  47.2773908  14.7038695   1.0067896  52.8048212  23.5623122
   0.5631750  52.0184591  23.2444027   1.6685110  52.9927363  22.8967013
   3.1049134  53.0851012  21.5904523   3.0867610  53.9059893  21.0984792
   4.0269054  52.9605088  21.8154664   5.9067747  47.9230155  15.0613890
   5.2491421  48.6129416  15.1494019   6.7108146  48.3126587  15.4047876
   5.4835002  51.2580529  11.2396974   5.0297329  50.4171439  11.2962165
   4.8528969  51.8941927  11.5771755   3.9267941  53.0957026  12.1746793
   4.2190916  53.6562083  11.4559158   4.4366562  53.3885587  12.9299952
   2.3367200  44.3421444  20.1620875   2.6916588  44.5692917  21.0215341
   2.9839332  44.6739821  19.5398130   8.0934317  49.5316407  15.8781475
   8.5270824  49.4391696  16.7264529   8.8065898  49.5073908  15.2401491
   1.8262212  53.1318501  17.4114576   1.8799234  53.7009438  18.1792292
   0.9576993  53.3020386  17.0468613   8.9549866  49.5740108  18.4114361
   9.1485756  50.4785918  18.6573636   8.8550485  49.1147527  19.2452946
   4.0164975  49.7246851  23.9855241   3.8650481  49.4957402  23.0685325
   4.0069655  50.6817452  23.9986586   1.1343858  50.7011030  14.1288883
   0.7993691  50.6611800  15.0246533   0.6347804  50.0355746  13.6559294
   5.7257182  52.7565973  22.0631723   5.6669728  52.0725193  21.3962306
   6.1276700  53.4984963  21.6112349   5.7274589  50.7205557  20.2945703
   4.8401368  50.3831479  20.4172102   6.2973140  49.9888588  20.5314468
  10.2091930  46.1313774  15.0562265  10.1981806  47.0138490  14.6856198
   9.3409309  45.7785325  14.8616802   1.7174426  55.2793843  19.4165105
   2.4302398  55.9141308  19.3441006   1.2264455  55.3757709  18.6005107
   4.5687625  45.5832894  18.0623226   3.9159076  45.8308802  17.4075679
   4.9468005  44.7697032  17.7285703   1.5294799  55.6192587  12.1651396
   1.7117194  54.8014243  12.6279149   2.3527785  55.8360280  11.7276286
   4.2108856  52.4580890  24.6395534   4.7548760  53.0710849  24.1450488
   3.6295700  53.0160469  25.1562547   2.4966369  55.5801608  15.7710561
   2.3717508  54.7791348  15.2621507   3.1545460  56.0747802  15.2824531
   4.5601277  53.3810628  17.3990111   3.6131613  53.2615980  17.3268438
   4.9084050  52.4933126  17.4816373   1.5647710  53.1763345  13.5994464
   1.4172673  52.2480052  13.7802034   2.3901204  53.1983435  13.1151539
   5.1681832  53.9991903  14.6859336   6.0928380  53.7934765  14.5483787
   4.9997135  53.7508305  15.5948678   4.9577148  54.5177571  10.0421428
   5.1314026  53.9523993   9.2895280   5.4506040  55.3178466   9.8600918
  10.8116540  47.2813994  11.6611728  11.2547686  46.5321319  11.2630851
   9.9343050  47.2724130  11.2785460   7.5337650  51.9176944  23.9756855
   6.7433194  51.9001083  23.4361354   7.2971005  52.4565238  24.7305891
   7.6535525  48.7669411  21.2889583   7.7033530  48.6019418  22.2305106
   7.5449448  47.8996670  20.8987464   4.9439287  44.7500339  22.6048890
   5.8449150  44.6106804  22.3132888   5.0187262  44.9154794  23.5447067
   9.1553722  51.1866352  21.5331605   8.8638530  51.5496333  22.3695066
   8.5425853  50.4733361  21.3544937  10.3549404  48.7519232  14.0534175
  11.1896296  49.1909036  14.2171735  10.4908533  48.2757885  13.2342421
   7.4040910  46.3098967  20.0011663   7.8795032  46.5026613  19.1930514
   6.4806476  46.3658153  19.7555047   1.9821127  38.3446810  18.9667497
   2.5003070  39.0807837  18.6413985   1.6276259  38.6510804  19.8014256
   6.1042579  43.1864727  18.2339968   7.0560002  43.2862825  18.2552193
   5.9346030  42.3942996  18.7438053   4.1256959  40.2720310  18.4199369
   3.5306891  40.5525323  17.7245858   3.8406655  40.7614211  19.1916111
   8.5830657  46.4070847  17.3482268   8.5506977  45.4686847  17.5341952
   9.1931281  46.4854883  16.6148093   8.7325145  43.1981890  17.3940551
   8.2164194  42.4140347  17.2070480   9.6165094  42.8700607  17.5587071
  14.4007207  47.4686854  16.4888305  15.1310595  47.2072142  17.0496008
  13.7914152  46.7315575  16.5290373  12.4822504  45.6094716  17.0862756
  11.7555667  45.4750681  16.4779248  12.0669791  45.9171545  17.8919474
  10.1000299  41.8306568  14.4396188  10.6944790  41.5902304  13.7289496
  10.1726883  41.1113699  15.0669724  12.4071372  45.1372769  13.2139609
  11.8470930  45.2065958  13.9871171  11.8014875  44.9613754  12.4939105
   2.3334914  50.1040657  26.5024290   3.2026074  50.2781309  26.1410925
   1.8541666  50.9235074  26.3800019  13.9927390  61.8129283  15.9069565
  14.6305800  61.6936030  15.2032905  13.8748233  62.7610127  15.9657517
  10.8017096  61.7656711  15.8431089  10.4635608  61.6497776  14.9551624
  11.6706864  61.3647876  15.8232095   6.6603912  63.6192188  11.8327980
   6.0968777  63.5282125  11.0644268   6.5456307  62.7992092  12.3130473
  11.2836879  62.9191563  21.8017295  11.2725520  62.5244361  20.9297799
  11.4457519  62.1857636  22.3951066   4.2068344  65.1143379  14.6712201
   4.9989636  64.7734204  14.2558500   4.4464994  65.2238354  15.5914354
   8.0044140  65.7028675  20.7496479   7.7134006  66.6074306  20.6343145
   8.6401125  65.7445202  21.4640548   8.9300347  63.0805523  17.3397838
   9.5263920  62.8561546  16.6254801   8.9875319  62.3390269  17.9423286
  13.5468658  59.5380737  12.9822773  14.3331748  59.1200160  12.6313190
  13.8107363  60.4426829  13.1504421  13.7178736  64.9753587   7.6811429
  13.0824569  65.0488214   8.3932334  13.3876142  65.5647186   7.0030509
  18.9477086  59.4755970  13.8855751  19.6802258  58.9055187  14.1193581
  18.1916441  59.0877571  14.3262257  10.5653205  61.8983212  11.0819094
  10.2011413  61.3713833  11.7932015  11.4220321  61.5081681  10.9085579
  16.4702506  53.1877544  18.3450360  16.1385831  54.0572955  18.1211575
  15.8748119  52.8713828  19.0244390  10.2058692  56.9273111   6.0780442
  10.3733095  57.7953348   6.4450913  10.0155861  57.0900393   5.1541731
  12.9634026  65.3890090  17.7446273  12.6634749  66.2915129  17.6362080
  12.6185085  65.1222273  18.5967425   6.4146507  61.8403887  13.7782977
   5.4897003  61.7080101  13.9860669   6.6630920  62.6198106  14.2752919
  16.3631169  57.9072630  15.4243710  15.4548047  57.8388039  15.1302471
  16.3118765  58.3844575  16.2525535  10.1847913  59.3830769   7.0627109
  10.0647538  59.8287820   7.9012589   9.4900502  59.7316087   6.5040647
   3.7755318  61.4837161  14.6126766   3.9047699  61.7371640  15.5266178
   3.0952769  62.0764869  14.2931421  10.4372035  59.3262276  23.3678607
   9.6605369  59.8856196  23.3581472  11.0762598  59.8119059  23.8893477
  18.2292816  56.1089069  17.2021584  17.5867196  56.4021602  16.5561378
  17.7247744  55.9941989  18.0074780  15.8832979  59.8552242   7.8907443
  16.7950835  60.0879629   7.7155141  15.3742626  60.4389286   7.3282522
   8.6918407  62.1347729  22.9296574   9.4333092  62.6732773  22.6531398
   7.9855393  62.7614018  23.0868126  14.1673747  64.2776870  21.5268736
  14.5757103  63.8359280  20.7823368  13.4451009  63.7029497  21.7802929
  10.5204817  59.2149477  18.9002293  11.3666012  59.6388890  19.0436942
  10.4603455  58.5583101  19.5940856  14.4902562  64.8378060  15.2821024
  13.8611424  65.0023775  14.5797092  14.1028224  65.2519670  16.0531989
  18.3691794  65.7732498  12.6365388  17.6842832  66.1531400  12.0862422
  18.4535643  66.3827825  13.3697336  13.6704262  56.8753845  20.5583466
  13.4265194  57.6295906  20.0217742  13.9464193  57.2539193  21.3930713
  15.6242725  63.4192457  19.2360732  15.8359620  64.0624217  18.5595113
  15.5772473  62.5854774  18.7682662  13.2268954  56.0310278  16.1397304
  12.3653433  56.3291532  16.4314042  13.2531389  56.2480677  15.2078337
  10.0430524  64.5752469  12.5471110  10.5068869  64.8540172  11.7575732
   9.7787322  63.6735913  12.3644200   6.9354605  64.1223950  15.4850873
   7.5055962  64.5511218  14.8468357   7.5262716  63.8406535  16.1835059
   8.9799410  60.6975621   9.3560675   9.6823453  61.1496665   9.8234601
   8.6480038  60.0559440   9.9840568   7.4279771  59.2887378  23.7311884
   6.7978432  59.9703658  23.9647281   7.3215859  59.1770459  22.7865022
   2.7224744  58.9559174  14.6577808   1.9323798  59.2116702  14.1817919
   3.2135991  59.7707511  14.7629849  16.7388553  66.2964413  17.4083089
  17.5605997  65.8944600  17.1265771  16.7350956  66.1932647  18.3599205
   4.6739489  59.3203753  11.6161285   3.8770652  59.4322447  12.1344781
   4.4465081  59.6590405  10.7502176  10.5045157  65.8448456  19.5643800
  10.5689589  66.3068863  20.4001971   9.7956080  65.2145821  19.6926109
   1.0062447  59.2089664  17.0892799   1.2570485  60.0936674  17.3550375
   1.5421995  59.0294266  16.3167891  24.8294546  62.6403161  13.7568061
  24.0758255  62.0710559  13.6012065  24.9642087  62.6065826  14.7038695
   6.7060514  53.5908143  26.0937135   6.3127459  53.0374342  26.7684779
   7.5226654  53.9018722  26.4843653   9.6228475  55.0066022  23.6857392
  10.3638188  55.6073176  23.6061854   9.8546398  54.2643660  23.1275434
   4.7669813  60.1922390  21.9635621   4.6523328  59.2907647  22.2642720
   3.9114331  60.4386087  21.6120438  11.8461651  68.1340130  23.5623122
  11.4025505  67.3476509  23.2444027  12.5078864  68.3219281  22.8967013
   6.6048772  69.6635932  18.0883801   7.1556197  69.5352995  17.3160794
   5.7660248  69.9630821  17.7378693  13.9442889  68.4142930  21.5904523
  13.9261364  69.2351811  21.0984792  14.8662809  68.2897005  21.8154664
  10.4015943  65.9287059  22.4328032  10.9344280  65.1675348  22.2027340
   9.8730024  65.6360711  23.1752186  13.5685638  51.0347125  17.9621673
  13.2249907  51.9248767  17.8860784  13.9364600  50.8448783  17.0991258
  13.5335921  61.0255737   6.4694109  13.0182544  61.7960341   6.7082496
  13.2613229  60.3520873   7.0927170  11.1183032  55.8705437  11.5279347
  10.2624628  55.4812288  11.3484986  11.5309983  55.9497398  10.6679132
  12.6482178  53.4051781  15.9270907  12.1446974  53.3681916  15.1138712
  12.9412785  54.3144523  15.9867563   8.8925064  53.4890510  14.9337088
   9.7578061  53.2933319  14.5742978   8.9602573  53.2600862  15.8606445
  18.5070195  63.7788091   8.4047282  17.7299637  63.4399251   7.9602444
  19.1861676  63.7840714   7.7302247  13.3222224  58.8982829   8.2953890
  13.0172359  59.2128978   9.1464033  14.2752666  58.9764249   8.3381223
  11.7668656  65.0573052   9.9446844  11.2390017  64.3225812   9.6320081
  11.2656158  65.8347728   9.6986812  16.7461502  63.2522072  15.0613890
  16.0885176  63.9421334  15.1494019  17.5501901  63.6418504  15.4047876
   6.4987383  55.7192718  12.3053455   7.0731135  55.4967900  11.5726648
   7.0858366  55.7881413  13.0582057  15.5566960  61.6066445  13.1117832
  16.0698842  62.2396437  13.6139541  16.2068184  61.0067641  12.7461192
   8.8010051  52.5933967  11.0328525   8.1474463  52.2782984  10.4085139
   8.7590525  51.9709708  11.7588348  12.0347791  59.0815901  15.3576172
  11.1170353  59.3030848  15.1997860  12.4507935  59.1562211  14.4987880
  12.8182839  60.4807316  10.4878853  13.5654658  60.9928714  10.1785975
  13.0874429  60.1591369  11.3483246  16.3228757  66.5872447  11.2396974
  15.8691084  65.7463356  11.2962165  15.6922723  67.2233845  11.5771755
  15.2661676  57.5164433  12.4697642  14.5284433  57.0041819  12.8007884
  15.5188450  57.0764814  11.6580919  14.7661696  68.4248943  12.1746793
  15.0584670  68.9854000  11.4559158  15.2760316  68.7177504  12.9299952
  15.3673303  50.2940685  13.0639411  15.6732180  49.4338048  12.7765326
  16.0925908  50.8858305  12.8638405   9.6394383  60.5894478  13.5715602
   9.6942993  59.6368314  13.4958079   8.8285585  60.7453917  14.0556901
   7.5786743  59.2071537  11.3305981   6.7654609  59.5065708  11.7371173
   8.0745737  58.8127226  12.0480463   9.7295321  69.2029294  13.2640246
   9.6871500  69.4290141  12.3348778  10.6458020  68.9692669  13.4126047
  13.1760955  59.6713362  20.1620875  13.5310343  59.8984835  21.0215341
  13.8233086  60.0031739  19.5398130  18.9058692  62.7931798  10.8670204
  18.7676590  62.9833394   9.9391393  18.5494911  63.5551181  11.3238255
   7.0700818  56.7789893  16.9467216   7.7100197  56.6378652  16.2490179
   6.2378348  56.4924406  16.5705818  18.9328071  64.8608325  15.8781475
  19.3664578  64.7683614  16.7264529  19.6459652  64.8365825  15.2401491
   7.8461122  66.0792323  13.0602208   8.6401720  65.5842644  12.8584783
   7.1352814  65.5510187  12.6969914  12.6655966  68.4610419  17.4114576
  12.7192989  69.0301355  18.1792292  11.7970748  68.6312304  17.0468613
   4.0729434  56.7490218  11.7240203   4.3336252  57.6635551  11.6149363
   4.8946607  56.2814661  11.8736816   5.5454360  58.1627975  18.8939027
   6.2177413  57.9545337  18.2451676   4.7184146  57.9650061  18.4544260
  19.7943621  64.9032025  18.4114361  19.9879511  65.8077836  18.6573636
  19.6944239  64.4439445  19.2452946  11.4479932  54.7889916  20.9104688
  10.8007847  55.4879866  20.8169165  12.2180947  55.2226060  21.2780936
  14.8558730  65.0538768  23.9855241  14.7044236  64.8249320  23.0685325
  14.8463409  66.0109370  23.9986586  11.6244066  62.6270681  18.9701508
  12.5536126  62.7781841  18.7970475  11.2035096  62.7154702  18.1150154
  10.4232398  66.6521345  16.7400046  10.2843483  66.2840130  17.6125984
   9.6346994  67.1668985  16.5684003  11.9737613  66.0302948  14.1288883
  11.6387446  65.9903718  15.0246533  11.4741559  65.3647664  13.6559294
   5.9481857  61.4370578  19.6541464   5.8101655  60.7050817  20.2553004
   6.8586780  61.3479478  19.3725652   8.5764158  61.1490537  19.1425144
   9.2863776  60.5083730  19.1011763   8.5333466  61.4003432  20.0651325
  16.5650936  68.0857891  22.0631723  16.5063482  67.4017111  21.3962306
  16.9670455  68.8276881  21.6112349   7.2893092  58.1355755  20.9620784
   6.7530449  57.6846494  21.6142380   6.7009800  58.2701664  20.2191248
  16.5668343  66.0497475  20.2945703  15.6795122  65.7123396  20.4172102
  17.1366895  65.3180506  20.5314468   3.0232213  57.2711763  18.0473778
   2.9390401  56.6637433  17.3124188   2.2014919  57.7620781  18.0483274
  10.0969497  70.7098927  17.2606946  10.0239668  71.5153899  17.7726251
   9.6546890  70.9090893  16.4354968  13.1955927  55.7565327  13.4143973
  13.6924626  55.0035289  13.0945043  12.4242908  55.7929643  12.8487182
  21.0485684  61.4605692  15.0562265  21.0375560  62.3430407  14.6856198
  20.1803063  61.1077243  14.8616802  12.5568180  70.6085761  19.4165105
  13.2696153  71.2433226  19.3441006  12.0658209  70.7049627  18.6005107
  14.2785707  64.5137014  10.9882397  13.3441986  64.6338476  10.8187101
  14.4562376  63.6109481  10.7242406   9.7790895  57.8982710  13.1415658
   9.4088683  57.3453750  13.8296563  10.2749988  57.2940843  12.5890658
  17.6658259  60.3554333  11.5232431  18.1318711  61.1882325  11.4492733
  18.1165759  59.8899315  12.2277689   7.6080094  68.3580205  20.2370676
   8.3089553  68.9916687  20.3900070   7.1375209  68.6994936  19.4766315
  15.7334490  66.6998154   8.5218583  16.0094334  66.5854749   9.4312457
  14.8638989  66.3015639   8.4830756  15.6374921  52.7234920  15.5623332
  14.7238001  52.9539147  15.7305539  16.0668023  52.8073364  16.4137364
  15.4081380  60.9124812  18.0623226  14.7552830  61.1600719  17.4075679
  15.7861760  60.0988950  17.7285703  12.3688554  70.9484505  12.1651396
  12.5510948  70.1306161  12.6279149  13.1921540  71.1652197  11.7276286
  12.7030719  69.8752690   9.4266445  13.2318486  69.3645145   8.8136607
  12.9658939  69.5595220  10.2911978  11.4568953  61.6544623  24.5489263
  10.7809590  61.5538752  25.2191638  12.2796587  61.4983837  25.0125260
   3.2047812  67.8916560  17.1701778   3.7901249  67.1460247  17.3029683
   3.0072650  68.2020516  18.0538442  10.1991736  72.9611550  18.7846879
  10.7510044  73.1243172  19.5495964  10.5397929  73.5515988  18.1126904
   5.1756229  55.3086700  19.3868764   5.2397556  56.1701531  18.9746162
   5.1123349  54.6960702  18.6541122   4.6508502  57.3809833  23.0341798
   5.2780540  56.9986910  23.6479322   3.7936420  57.1624035  23.3997491
  15.0502610  67.7872808  24.6395534  15.5942514  68.4002766  24.1450488
  14.4689455  68.3452386  25.1562547  13.3360123  70.9093526  15.7710561
  13.2111263  70.1083266  15.2621507  13.9939214  71.4039719  15.2824531
   4.9568291  57.2642259  14.9487702   4.2354877  57.8778226  14.8095175
   5.7461547  57.8000023  14.8704347  15.3995031  68.7102546  17.3990111
  14.4525367  68.5907897  17.3268438  15.7477805  67.8225044  17.4816373
   7.7594605  54.5996685  21.2228353   8.2829007  54.8458982  21.9854663
   7.5406938  55.4316720  20.8031491  12.4041465  68.5055262  13.5994464
  12.2566427  67.5771970  13.7802034  13.2294958  68.5275353  13.1151539
   6.2703709  57.1573329   9.4574956   6.6099782  57.6859251   8.7353564
   6.7175830  57.4953736  10.2333522  16.0075587  69.3283821  14.6859336
  16.9322134  69.1226682  14.5483787  15.8390890  69.0800222  15.5948678
   8.9647150  55.5410380  18.9078024   8.6243970  54.7418193  19.3098704
   8.2586156  55.8412091  18.3354857   9.6163622  52.6259693  17.3605347
  10.4389691  52.1520171  17.2384237   9.8601685  53.4050176  17.8604033
   8.2571856  55.6547951   7.6568249   8.9780219  56.0329204   7.1531965
   7.6337160  56.3736828   7.7603226  12.4002979  56.3593100   8.5926581
  12.6166593  57.2417738   8.2915409  11.9197046  55.9679313   7.8632223
   7.1402200  59.3178813  15.1697325   6.9946781  59.6319116  16.0621607
   6.6627404  59.9363714  14.6168224   8.9998583  56.3081361  15.2178215
   8.9860152  55.4122454  14.8810513   9.7171011  56.3152025  15.8516501
  10.8524714  56.7418701  17.2631342  10.5942492  57.6635772  17.2615673
  10.3209754  56.3449136  17.9531807  15.7970903  69.8469488  10.0421428
  15.9707780  69.2815911   9.2895280  16.2899794  70.6470383   9.8600918
   1.6147863  61.8584158  18.1084987   1.0701331  62.6343966  18.2405261
   2.4927212  62.2054962  17.9504108   8.4035479  55.1895741  10.4865785
   8.5251390  54.2612388  10.6856673   8.1137522  55.2034427   9.5744101
  11.2726670  52.8750652  13.6232505  11.2948366  52.9389985  12.6684485
  11.6894729  52.0355161  13.8173011  21.6510294  62.6105911  11.6611728
  22.0941440  61.8613237  11.2630851  20.7736804  62.6016048  11.2785460
  16.7846075  69.1636253   7.1418326  17.4796980  69.7842946   7.3605641
  17.1269225  68.3131604   7.4170704   2.4013884  60.9854054  21.0015143
   1.6595621  61.1336689  21.5879774   2.0806629  61.2462319  20.1381893
  18.6837498  66.6135958   8.6705657  19.2088823  66.9523231   7.9454977
  18.5959851  65.6782974   8.4868791  10.3457547  70.5270032  20.7995533
  10.6544674  70.2819179  21.6718233  11.1433029  70.7316671  20.3114404
  10.3678159  72.6807942  13.0300910   9.9283149  72.1884320  13.7233767
  11.1186276  72.1380909  12.7892985   7.8152031  68.2245951  15.1023212
   7.1932041  67.5616656  14.8025440   8.4856898  68.2507083  14.4196859
   7.8876559  56.7027739  24.6955718   7.9364714  57.5789862  24.3133487
   8.4299073  56.1605132  24.1227361  18.3731405  67.2468862  23.9756855
  17.5826948  67.2293001  23.4361354  18.1364759  67.7857156  24.7305891
  18.4929280  64.0961328  21.2889583  18.5427284  63.9311336  22.2305106
  18.3843203  63.2288587  20.8987464  15.7833042  60.0792256  22.6048890
  16.6842905  59.9398721  22.3132888  15.8581016  60.2446711  23.5447067
  10.1175847  57.4559111  21.4502076   9.2479157  57.7492677  21.1784665
  10.3535328  58.0399556  22.1709340  19.9947476  66.5158270  21.5331605
  19.7032285  66.8788251  22.3695066  19.3819608  65.8025278  21.3544937
  21.1943159  64.0811150  14.0534175  22.0290050  64.5200954  14.2171735
  21.3302287  63.6049803  13.2342421  18.2434665  61.6390885  20.0011663
  18.7188786  61.8318531  19.1930514  17.3200230  61.6950070  19.7555047
  12.8214881  53.6738728  18.9667497  13.3396825  54.4099755  18.6413985
  12.4670014  53.9802721  19.8014256  13.0727475  50.0939011  14.4868393
  13.3529229  49.4262200  15.1128820  13.8578082  50.2868106  13.9743057
  16.9436334  58.5156645  18.2339968  17.8953757  58.6154742  18.2552193
  16.7739784  57.7234913  18.7438053  14.9650713  55.6012228  18.4199369
  14.3700645  55.8817241  17.7245858  14.6800410  56.0906129  19.1916111
  19.4224411  61.7362764  17.3482268  19.3900732  60.7978765  17.5341952
  20.0325035  61.8146801  16.6148093  19.5718900  58.5273808  17.3940551
  19.0557949  57.7432264  17.2070480  20.4558848  58.1992524  17.5587071
  17.2329627  52.2714823  13.3536364  17.0354448  51.9629912  14.2379696
  17.8429332  52.9976462  13.4834294  25.2400961  62.7978771  16.4888305
  25.9704350  62.5364059  17.0496008  24.6307907  62.0607493  16.5290373
  23.3216258  60.9386634  17.0862756  22.5949422  60.8042599  16.4779248
  22.9063545  61.2463462  17.8919474  11.1446435  64.6576563  24.8510129
  12.0649444  64.8355162  25.0450176  11.1096018  63.7132609  24.6989828
   4.1408507  62.5677598  17.4932910   4.3594517  63.4994706  17.5120944
   4.5534281  62.2085573  18.2787714  11.0612725  53.0745683   9.4808599
  10.2513453  52.7292768   9.8563845  11.7497142  52.7653227  10.0696210
  12.9903273  52.1523730  11.1032895  13.5434312  52.5719184  11.7622918
  13.2273360  51.2259478  11.1455851   9.0136373  58.1410804  26.8835659
   8.9133100  59.0905161  26.8147750   8.7957915  57.8129043  26.0111729
  16.3682081  54.2624255  10.6111560  15.7880750  54.9209059  10.2289612
  16.1018013  53.4401600  10.1998977  14.8185647  53.6629313  12.8132880
  15.3185425  53.7745848  12.0047199  15.4621255  53.3590366  13.4533688
   8.8767643  61.5707943  25.7000721   8.3934724  62.3708303  25.9064610
   8.9628582  61.5815888  24.7468165   4.8040980  65.4612477  17.7369155
   5.7584234  65.4296420  17.6699086   4.6053504  65.0003101  18.5519381
   5.3940362  64.0313593  20.3039952   6.2133251  64.5257672  20.3274790
   5.6677170  63.1145562  20.2757520  15.1506959  56.4224346   9.6667908
  14.2632814  56.7073996   9.4488103  15.5660948  56.2618109   8.8195185
  18.5021495  56.4470867  13.3822247  19.2781885  56.9367319  13.6546864
  17.7769629  56.8728921  13.8394117  20.9394053  57.1598486  14.4396188
  21.5338544  56.9194222  13.7289496  21.0120637  56.4405617  15.0669724
  15.1247982  61.9378882   9.8818198  15.0683184  62.3947433   9.0425830
  15.6776325  61.1769566   9.7041041  18.9352788  57.7268614  10.7068318
  18.6789722  57.3265249  11.5376525  18.3105656  58.4412408  10.5818457
  23.2465126  60.4664687  13.2139609  22.6864684  60.5357876  13.9871171
  22.6408629  60.2905671  12.4939105  16.2036869  66.6251550   5.8114388
  17.0382473  66.1932748   5.6291863  16.0421212  66.4533563   6.7391282
  15.8582762  63.1283663   7.1770727  15.8031565  62.9627934   6.2359171
  15.2328817  63.8359696   7.3332917  13.1728669  65.4332575  26.5024290
  14.0419828  65.6073227  26.1410925  12.6935420  66.2526992  26.3800019
   7.3414849  72.5529676  18.1813724   8.2442096  72.5853286  18.4980219
   7.1152219  71.6230127  18.1960059   9.0968451  71.3060662  14.8423802
   8.1464082  71.3062524  14.7288175   9.4000937  70.5593397  14.3259837
  12.9831007  49.2234549  11.0101982  12.2163402  48.6693035  11.1558665
  13.3941711  49.2956417  11.8716134   4.9872768  55.5119344  25.1007164
   5.8504229  55.1556149  25.3110488   4.4138178  55.1733239  25.7882568
  24.8321144  77.1421201  15.9069565  25.4699554  77.0227948  15.2032905
  24.7141987  78.0902045  15.9657517  21.6410851  77.0948629  15.8431089
  21.3029362  76.9789694  14.9551624  22.5100619  76.6939794  15.8232095
  17.4997666  78.9484105  11.8327980  16.9362532  78.8574042  11.0644268
  17.3850062  78.1284010  12.3130473  22.1230634  78.2483481  21.8017295
  22.1119275  77.8536279  20.9297799  22.2851273  77.5149553  22.3951066
  15.0462098  80.4435297  14.6712201  15.8383390  80.1026122  14.2558500
  15.2858749  80.5530272  15.5914354  18.8437895  81.0320592  20.7496479
  18.5527761  81.9366223  20.6343145  19.4794879  81.0737120  21.4640548
  19.7694102  78.4097441  17.3397838  20.3657674  78.1853463  16.6254801
  19.8269073  77.6682186  17.9423286  24.3862413  74.8672655  12.9822773
  25.1725502  74.4492078  12.6313190  24.6501117  75.7718747  13.1504421
  24.5572490  80.3045505   7.6811429  23.9218323  80.3780131   8.3932334
  24.2269897  80.8939104   7.0030509  29.7870840  74.8047888  13.8855751
  30.5196012  74.2347105  14.1193581  29.0310196  74.4169488  14.3262257
  21.4046960  77.2275129  11.0819094  21.0405167  76.7005750  11.7932015
  22.2614076  76.8373598  10.9085579  27.3096260  68.5169462  18.3450360
  26.9779585  69.3864873  18.1211575  26.7141874  68.2005746  19.0244390
  21.0452447  72.2565029   6.0780442  21.2126849  73.1245265   6.4450913
  20.8549616  72.4192311   5.1541731  23.8027780  80.7182008  17.7446273
  23.5028503  81.6207047  17.6362080  23.4578840  80.4514191  18.5967425
  17.2540261  77.1695805  13.7782977  16.3290758  77.0372019  13.9860669
  17.5024675  77.9490024  14.2752919  27.2024924  73.2364548  15.4243710
  26.2941801  73.1679957  15.1302471  27.1512520  73.7136493  16.2525535
  21.0241668  74.7122687   7.0627109  20.9041293  75.1579737   7.9012589
  20.3294256  75.0608004   6.5040647  14.6149073  76.8129078  14.6126766
  14.7441454  77.0663557  15.5266178  13.9346524  77.4056786  14.2931421
  21.2765790  74.6554194  23.3678607  20.4999124  75.2148114  23.3581472
  21.9156353  75.1410977  23.8893477  29.0686570  71.4380987  17.2021584
  28.4260950  71.7313520  16.5561378  28.5641499  71.3233907  18.0074780
  26.7226734  75.1844160   7.8907443  27.6344590  75.4171546   7.7155141
  26.2136381  75.7681204   7.3282522  19.5312162  77.4639647  22.9296574
  20.2726846  78.0024691  22.6531398  18.8249147  78.0905936  23.0868126
  25.0067502  79.6068788  21.5268736  25.4150858  79.1651198  20.7823368
  24.2844763  79.0321415  21.7802929  21.3598572  74.5441394  18.9002293
  22.2059767  74.9680808  19.0436942  21.2997209  73.8875019  19.5940856
  25.3296316  80.1669978  15.2821024  24.7005179  80.3315692  14.5797092
  24.9421978  80.5811588  16.0531989  29.2085548  81.1024416  12.6365388
  28.5236586  81.4823317  12.0862422  29.2929397  81.7119743  13.3697336
  24.5098017  72.2045763  20.5583466  24.2658949  72.9587823  20.0217742
  24.7857947  72.5831110  21.3930713  26.4636480  78.7484375  19.2360732
  26.6753375  79.3916135  18.5595113  26.4166228  77.9146692  18.7682662
  24.0662709  71.3602196  16.1397304  23.2047188  71.6583449  16.4314042
  24.0925143  71.5772595  15.2078337  20.8824278  79.9044386  12.5471110
  21.3462624  80.1832089  11.7575732  20.6181076  79.0027831  12.3644200
  17.7748359  79.4515868  15.4850873  18.3449716  79.8803136  14.8468357
  18.3656471  79.1698452  16.1835059  19.8193164  76.0267539   9.3560675
  20.5217207  76.4788582   9.8234601  19.4873793  75.3851357   9.9840568
  18.2673526  74.6179295  23.7311884  17.6372186  75.2995576  23.9647281
  18.1609614  74.5062377  22.7865022  13.5618498  74.2851091  14.6577808
  12.7717552  74.5408620  14.1817919  14.0529745  75.0999429  14.7629849
  27.5782308  81.6256330  17.4083089  28.3999751  81.2236518  17.1265771
  27.5744710  81.5224565  18.3599205  15.5133243  74.6495671  11.6161285
  14.7164407  74.7614365  12.1344781  15.2858836  74.9882323  10.7502176
  21.3438911  81.1740374  19.5643800  21.4083344  81.6360781  20.4001971
  20.6349835  80.5437739  19.6926109  11.8456201  74.5381582  17.0892799
  12.0964239  75.4228592  17.3550375  12.3815749  74.3586183  16.3167891
  35.6688301  77.9695079  13.7568061  34.9152009  77.4002477  13.6012065
  35.8035842  77.9357743  14.7038695  17.5454268  68.9200061  26.0937135
  17.1521214  68.3666260  26.7684779  18.3620409  69.2310640  26.4843653
  20.4622229  70.3357940  23.6857392  21.2031943  70.9365093  23.6061854
  20.6940152  69.5935578  23.1275434  15.6063567  75.5214307  21.9635621
  15.4917082  74.6199565  22.2642720  14.7508085  75.7678004  21.6120438
  22.6855405  83.4632048  23.5623122  22.2419259  82.6768426  23.2444027
  23.3472619  83.6511198  22.8967013  17.4442526  84.9927849  18.0883801
  17.9949951  84.8644913  17.3160794  16.6054002  85.2922738  17.7378693
  24.7836643  83.7434848  21.5904523  24.7655119  84.5643729  21.0984792
  25.7056563  83.6188923  21.8154664  21.2409697  81.2578977  22.4328032
  21.7738034  80.4967265  22.2027340  20.7123778  80.9652629  23.1752186
  24.4079392  66.3639043  17.9621673  24.0643662  67.2540685  17.8860784
  24.7758355  66.1740701  17.0991258  24.3729675  76.3547654   6.4694109
  23.8576298  77.1252259   6.7082496  24.1006983  75.6812790   7.0927170
  21.9576786  71.1997355  11.5279347  21.1018382  70.8104205  11.3484986
  22.3703738  71.2789316  10.6679132  23.4875933  68.7343698  15.9270907
  22.9840728  68.6973833  15.1138712  23.7806540  69.6436441  15.9867563
  19.7318819  68.8182428  14.9337088  20.5971815  68.6225237  14.5742978
  19.7996327  68.5892780  15.8606445  29.3463949  79.1080009   8.4047282
  28.5693392  78.7691168   7.9602444  30.0255430  79.1132632   7.7302247
  24.1615978  74.2274746   8.2953890  23.8566114  74.5420895   9.1464033
  25.1146420  74.3056166   8.3381223  22.6062410  80.3864970   9.9446844
  22.0783772  79.6517729   9.6320081  22.1049913  81.1639646   9.6986812
  27.5855256  78.5813990  15.0613890  26.9278930  79.2713252  15.1494019
  28.3895655  78.9710422  15.4047876  17.3381138  71.0484636  12.3053455
  17.9124890  70.8259817  11.5726648  17.9252120  71.1173330  13.0582057
  26.3960715  76.9358363  13.1117832  26.9092597  77.5688355  13.6139541
  27.0461939  76.3359558  12.7461192  19.6403805  67.9225885  11.0328525
  18.9868218  67.6074902  10.4085139  19.5984279  67.3001625  11.7588348
  22.8741546  74.4107818  15.3576172  21.9564107  74.6322765  15.1997860
  23.2901689  74.4854129  14.4987880  23.6576593  75.8099234  10.4878853
  24.4048412  76.3220631  10.1785975  23.9268183  75.4883287  11.3483246
  27.1622511  81.9164364  11.2396974  26.7084838  81.0755274  11.2962165
  26.5316478  82.5525763  11.5771755  26.1055431  72.8456350  12.4697642
  25.3678187  72.3333736  12.8007884  26.3582204  72.4056732  11.6580919
  25.6055450  83.7540861  12.1746793  25.8978425  84.3145918  11.4559158
  26.1154071  84.0469422  12.9299952  26.2067058  65.6232602  13.0639411
  26.5125935  64.7629966  12.7765326  26.9319663  66.2150222  12.8638405
  20.4788138  75.9186395  13.5715602  20.5336747  74.9660232  13.4958079
  19.6679340  76.0745834  14.0556901  18.4180498  74.5363455  11.3305981
  17.6048363  74.8357626  11.7371173  18.9139492  74.1419144  12.0480463
  20.5689075  84.5321212  13.2640246  20.5265254  84.7582058  12.3348778
  21.4851774  84.2984587  13.4126047  24.0154709  75.0005280  20.1620875
  24.3704097  75.2276753  21.0215341  24.6626841  75.3323656  19.5398130
  29.7452446  78.1223715  10.8670204  29.6070345  78.3125311   9.9391393
  29.3888665  78.8843098  11.3238255  17.9094572  72.1081811  16.9467216
  18.5493952  71.9670570  16.2490179  17.0772103  71.8216324  16.5705818
  29.7721826  80.1900242  15.8781475  30.2058332  80.0975532  16.7264529
  30.4853407  80.1657743  15.2401491  18.6854876  81.4084241  13.0602208
  19.4795475  80.9134561  12.8584783  17.9746569  80.8802104  12.6969914
  23.5049721  83.7902337  17.4114576  23.5586743  84.3593273  18.1792292
  22.6364502  83.9604222  17.0468613  14.9123189  72.0782136  11.7240203
  15.1730006  72.9927469  11.6149363  15.7340361  71.6106578  11.8736816
  16.3848114  73.4919893  18.8939027  17.0571168  73.2837255  18.2451676
  15.5577901  73.2941979  18.4544260  30.6337375  80.2323943  18.4114361
  30.8273265  81.1369754  18.6573636  30.5337994  79.7731362  19.2452946
  22.2873686  70.1181834  20.9104688  21.6401601  70.8171783  20.8169165
  23.0574702  70.5517978  21.2780936  25.6952484  80.3830686  23.9855241
  25.5437990  80.1541238  23.0685325  25.6857164  81.3401287  23.9986586
  22.4637820  77.9562599  18.9701508  23.3929880  78.1073758  18.7970475
  22.0428850  78.0446619  18.1150154  21.2626152  81.9813263  16.7400046
  21.1237238  81.6132047  17.6125984  20.4740748  82.4960902  16.5684003
  22.8131367  81.3594866  14.1288883  22.4781200  81.3195636  15.0246533
  22.3135313  80.6939582  13.6559294  16.7875611  76.7662496  19.6541464
  16.6495409  76.0342735  20.2553004  17.6980535  76.6771396  19.3725652
  19.4157912  76.4782455  19.1425144  20.1257531  75.8375647  19.1011763
  19.3727220  76.7295350  20.0651325  27.4044691  83.4149808  22.0631723
  27.3457237  82.7309029  21.3962306  27.8064209  84.1568798  21.6112349
  18.1286846  73.4647673  20.9620784  17.5924203  73.0138411  21.6142380
  17.5403554  73.5993582  20.2191248  27.4062098  81.3789392  20.2945703
  26.5188877  81.0415314  20.4172102  27.9760649  80.6472424  20.5314468
  13.8625967  72.6003681  18.0473778  13.7784156  71.9929350  17.3124188
  13.0408674  73.0912699  18.0483274  20.9363251  86.0390845  17.2606946
  20.8633423  86.8445816  17.7726251  20.4940644  86.2382811  16.4354968
  24.0349681  71.0857244  13.4143973  24.5318381  70.3327207  13.0945043
  23.2636663  71.1221561  12.8487182  31.8879439  76.7897610  15.0562265
  31.8769315  77.6722325  14.6856198  31.0196818  76.4369161  14.8616802
  23.3961935  85.9377679  19.4165105  24.1089907  86.5725144  19.3441006
  22.9051964  86.0341545  18.6005107  25.1179462  79.8428931  10.9882397
  24.1835741  79.9630394  10.8187101  25.2956130  78.9401398  10.7242406
  20.6184650  73.2274627  13.1415658  20.2482437  72.6745668  13.8296563
  21.1143742  72.6232761  12.5890658  28.5052013  75.6846251  11.5232431
  28.9712465  76.5174242  11.4492733  28.9559514  75.2191232  12.2277689
  18.4473848  83.6872122  20.2370676  19.1483308  84.3208605  20.3900070
  17.9768963  84.0286854  19.4766315  26.5728244  82.0290072   8.5218583
  26.8488088  81.9146667   9.4312457  25.7032743  81.6307557   8.4830756
  26.4768676  68.0526838  15.5623332  25.5631756  68.2831065  15.7305539
  26.9061777  68.1365282  16.4137364  26.2475134  76.2416730  18.0623226
  25.5946585  76.4892637  17.4075679  26.6255514  75.4280868  17.7285703
  23.2082308  86.2776423  12.1651396  23.3904703  85.4598079  12.6279149
  24.0315294  86.4944115  11.7276286  23.5424474  85.2044608   9.4266445
  24.0712240  84.6937063   8.8136607  23.8052693  84.8887138  10.2911978
  22.2962707  76.9836541  24.5489263  21.6203344  76.8830670  25.2191638
  23.1190341  76.8275754  25.0125260  14.0441566  83.2208477  17.1701778
  14.6295003  82.4752165  17.3029683  13.8466405  83.5312434  18.0538442
  21.0385490  88.2903468  18.7846879  21.5903798  88.4535090  19.5495964
  21.3791684  88.8807906  18.1126904  16.0149984  70.6378618  19.3868764
  16.0791310  71.4993449  18.9746162  15.9517104  70.0252620  18.6541122
  15.4902256  72.7101751  23.0341798  16.1174295  72.3278828  23.6479322
  14.6330175  72.4915952  23.3997491  25.8896365  83.1164726  24.6395534
  26.4336269  83.7294684  24.1450488  25.3083209  83.6744304  25.1562547
  24.1753878  86.2385444  15.7710561  24.0505017  85.4375184  15.2621507
  24.8332969  86.7331637  15.2824531  15.7962046  72.5934176  14.9487702
  15.0748632  73.2070144  14.8095175  16.5855302  73.1291941  14.8704347
  26.2388786  84.0394464  17.3990111  25.2919121  83.9199815  17.3268438
  26.5871559  83.1516962  17.4816373  18.5988359  69.9288603  21.2228353
  19.1222761  70.1750899  21.9854663  18.3800693  70.7608638  20.8031491
  23.2435219  83.8347180  13.5994464  23.0960182  82.9063887  13.7802034
  24.0688713  83.8567271  13.1151539  17.1097464  72.4865247   9.4574956
  17.4493536  73.0151168   8.7353564  17.5569584  72.8245653  10.2333522
  26.8469341  84.6575739  14.6859336  27.7715889  84.4518600  14.5483787
  26.6784644  84.4092140  15.5948678  19.8040904  70.8702298  18.9078024
  19.4637725  70.0710111  19.3098704  19.0979911  71.1704009  18.3354857
  20.4557376  67.9551610  17.3605347  21.2783446  67.4812088  17.2384237
  20.6995440  68.7342094  17.8604033  19.0965611  70.9839869   7.6568249
  19.8173973  71.3621121   7.1531965  18.4730915  71.7028745   7.7603226
  23.2396734  71.6885018   8.5926581  23.4560348  72.5709656   8.2915409
  22.7590801  71.2971231   7.8632223  17.9795955  74.6470731  15.1697325
  17.8340536  74.9611034  16.0621607  17.5021159  75.2655631  14.6168224
  19.8392338  71.6373279  15.2178215  19.8253907  70.7414372  14.8810513
  20.5564766  71.6443943  15.8516501  21.6918469  72.0710619  17.2631342
  21.4336246  72.9927690  17.2615673  21.1603509  71.6741054  17.9531807
  26.6364657  85.1761406  10.0421428  26.8101535  84.6107829   9.2895280
  27.1293549  85.9762301   9.8600918  12.4541617  77.1876075  18.1084987
  11.9095085  77.9635883  18.2405261  13.3320967  77.5346880  17.9504108
  19.2429234  70.5187659  10.4865785  19.3645145  69.5904305  10.6856673
  18.9531276  70.5326345   9.5744101  22.1120424  68.2042570  13.6232505
  22.1342121  68.2681903  12.6684485  22.5288483  67.3647078  13.8173011
  32.4904048  77.9397829  11.6611728  32.9335195  77.1905154  11.2630851
  31.6130559  77.9307965  11.2785460  27.6239830  84.4928171   7.1418326
  28.3190734  85.1134863   7.3605641  27.9662980  83.6423522   7.4170704
  13.2407639  76.3145972  21.0015143  12.4989375  76.4628607  21.5879774
  12.9200383  76.5754237  20.1381893  29.5231253  81.9427876   8.6705657
  30.0482577  82.2815149   7.9454977  29.4353605  81.0074891   8.4868791
  21.1851302  85.8561950  20.7995533  21.4938428  85.6111097  21.6718233
  21.9826784  86.0608588  20.3114404  21.2071914  88.0099859  13.0300910
  20.7676904  87.5176238  13.7233767  21.9580031  87.4672827  12.7892985
  18.6545786  83.5537868  15.1023212  18.0325795  82.8908573  14.8025440
  19.3250653  83.5799000  14.4196859  18.7270313  72.0319656  24.6955718
  18.7758469  72.9081779  24.3133487  19.2692828  71.4897050  24.1227361
  29.2125159  82.5760780  23.9756855  28.4220703  82.5584919  23.4361354
  28.9758514  83.1149073  24.7305891  29.3323034  79.4253246  21.2889583
  29.3821039  79.2603254  22.2305106  29.2236957  78.5580505  20.8987464
  26.6226796  75.4084174  22.6048890  27.5236659  75.2690639  22.3132888
  26.6974771  75.5738629  23.5447067  20.9569602  72.7851029  21.4502076
  20.0872911  73.0784595  21.1784665  21.1929082  73.3691474  22.1709340
  30.8341231  81.8450188  21.5331605  30.5426039  82.2080168  22.3695066
  30.2213362  81.1317196  21.3544937  32.0336913  79.4103067  14.0534175
  32.8683805  79.8492871  14.2171735  32.1696042  78.9341721  13.2342421
  29.0828419  76.9682802  20.0011663  29.5582541  77.1610449  19.1930514
  28.1593984  77.0241988  19.7555047  23.6608636  69.0030646  18.9667497
  24.1790579  69.7391673  18.6413985  23.3063768  69.3094639  19.8014256
  23.9121230  65.4230928  14.4868393  24.1922984  64.7554117  15.1128820
  24.6971837  65.6160024  13.9743057  27.7830088  73.8448562  18.2339968
  28.7347511  73.9446660  18.2552193  27.6133539  73.0526831  18.7438053
  25.8044468  70.9304146  18.4199369  25.2094400  71.2109158  17.7245858
  25.5194164  71.4198046  19.1916111  30.2618166  77.0654682  17.3482268
  30.2294486  76.1270683  17.5341952  30.8718790  77.1438719  16.6148093
  30.4112654  73.8565725  17.3940551  29.8951703  73.0724182  17.2070480
  31.2952603  73.5284442  17.5587071  28.0723381  67.6006741  13.3536364
  27.8748202  67.2921829  14.2379696  28.6823087  68.3268380  13.4834294
  36.0794716  78.1270689  16.4888305  36.8098104  77.8655977  17.0496008
  35.4701661  77.3899411  16.5290373  34.1610013  76.2678551  17.0862756
  33.4343176  76.1334516  16.4779248  33.7457300  76.5755380  17.8919474
  21.9840189  79.9868481  24.8510129  22.9043199  80.1647080  25.0450176
  21.9489772  79.0424526  24.6989828  11.2022354  75.1807075  13.7763404
  10.8825139  74.3272383  13.4837778  10.6555782  75.3955653  14.5321371
  14.9802262  77.8969516  17.4932910  15.1988272  78.8286624  17.5120944
  15.3928036  77.5377490  18.2787714  21.9006480  68.4037601   9.4808599
  21.0907208  68.0584686   9.8563845  22.5890897  68.0945145  10.0696210
  23.8297028  67.4815648  11.1032895  24.3828067  67.9011101  11.7622918
  24.0667114  66.5551396  11.1455851  19.8530127  73.4702722  26.8835659
  19.7526854  74.4197079  26.8147750  19.6351669  73.1420960  26.0111729
  27.2075835  69.5916173  10.6111560  26.6274504  70.2500977  10.2289612
  26.9411768  68.7693518  10.1998977  25.6579401  68.9921231  12.8132880
  26.1579180  69.1037765  12.0047199  26.3015009  68.6882284  13.4533688
  19.7161397  76.8999860  25.7000721  19.2328479  77.7000221  25.9064610
  19.8022336  76.9107805  24.7468165  15.6434735  80.7904395  17.7369155
  16.5977988  80.7588337  17.6699086  15.4447258  80.3295019  18.5519381
  16.2334117  79.3605511  20.3039952  17.0527006  79.8549590  20.3274790
  16.5070925  78.4437479  20.2757520  25.9900713  71.7516263   9.6667908
  25.1026568  72.0365914   9.4488103  26.4054702  71.5910027   8.8195185
  29.3415249  71.7762784  13.3822247  30.1175639  72.2659237  13.6546864
  28.6163383  72.2020839  13.8394117  31.7787808  72.4890404  14.4396188
  32.3732299  72.2486140  13.7289496  31.8514391  71.7697534  15.0669724
  25.9641737  77.2670799   9.8818198  25.9076938  77.7239351   9.0425830
  26.5170079  76.5061484   9.7041041  29.7746543  73.0560531  10.7068318
  29.5183477  72.6557167  11.5376525  29.1499411  73.7704325  10.5818457
  34.0858881  75.7956605  13.2139609  33.5258439  75.8649794  13.9871171
  33.4802384  75.6197589  12.4939105  27.0430624  81.9543467   5.8114388
  27.8776228  81.5224666   5.6291863  26.8814967  81.7825481   6.7391282
  26.6976516  78.4575581   7.1770727  26.6425320  78.2919852   6.2359171
  26.0722571  79.1651614   7.3332917  11.4869031  73.6943645  21.0032149
  12.1327895  73.1842599  21.4919375  11.2786182  74.4312327  21.5775575
  24.0122423  80.7624493  26.5024290  24.8813583  80.9365145  26.1410925
  23.5329175  81.5818909  26.3800019  20.0072642  67.9583690   6.7556046
  19.9951311  68.9025530   6.9124316  20.8996063  67.7753835   6.4615507
  18.1808603  87.8821594  18.1813724  19.0835850  87.9145204  18.4980219
  17.9545974  86.9522044  18.1960059  19.9362206  86.6352580  14.8423802
  18.9857837  86.6354442  14.7288175  20.2394692  85.8885315  14.3259837
  23.8224761  64.5526466  11.0101982  23.0557157  63.9984953  11.1558665
  24.2335466  64.6248335  11.8716134  15.8266522  70.8411262  25.1007164
  16.6897984  70.4848067  25.3110488  15.2531933  70.5025157  25.7882568
  35.6714899  92.4713118  15.9069565  36.3093309  92.3519866  15.2032905
  35.5535742  93.4193962  15.9657517  32.4804605  92.4240547  15.8431089
  32.1423117  92.3081611  14.9551624  33.3494373  92.0231712  15.8232095
  28.3391421  94.2776023  11.8327980  27.7756286  94.1865960  11.0644268
  28.2243816  93.4575927  12.3130473  32.9624388  93.5775398  21.8017295
  32.9513029  93.1828197  20.9297799  33.1245028  92.8441471  22.3951066
  25.8855853  95.7727215  14.6712201  26.6777145  95.4318039  14.2558500
  26.1252503  95.8822190  15.5914354  29.6831649  96.3612510  20.7496479
  29.3921515  97.2658141  20.6343145  30.3188634  96.4029038  21.4640548
  30.6087856  93.7389359  17.3397838  31.2051429  93.5145381  16.6254801
  30.6662828  92.9974104  17.9423286  35.2256167  90.1964572  12.9822773
  36.0119257  89.7783995  12.6313190  35.4894872  91.1010664  13.1504421
  35.3966245  95.6337423   7.6811429  34.7612078  95.7072049   8.3932334
  35.0663651  96.2231021   7.0030509  40.6264595  90.1339805  13.8855751
  41.3589767  89.5639022  14.1193581  39.8703950  89.7461406  14.3262257
  32.2440714  92.5567047  11.0819094  31.8798922  92.0297668  11.7932015
  33.1007830  92.1665516  10.9085579  38.1490015  83.8461380  18.3450360
  37.8173340  84.7156791  18.1211575  37.5535628  83.5297664  19.0244390
  31.8846201  87.5856947   6.0780442  32.0520604  88.4537183   6.4450913
  31.6943370  87.7484228   5.1541731  34.6421534  96.0473926  17.7446273
  34.3422258  96.9498964  17.6362080  34.2972594  95.7806109  18.5967425
  28.0934016  92.4987722  13.7782977  27.1684512  92.3663937  13.9860669
  28.3418429  93.2781942  14.2752919  38.0418678  88.5656466  15.4243710
  37.1335556  88.4971874  15.1302471  37.9906274  89.0428411  16.2525535
  31.8635422  90.0414604   7.0627109  31.7435047  90.4871655   7.9012589
  31.1688011  90.3899922   6.5040647  25.4542827  92.1420996  14.6126766
  25.5835208  92.3955475  15.5266178  24.7740278  92.7348704  14.2931421
  32.1159544  89.9846111  23.3678607  31.3392878  90.5440032  23.3581472
  32.7550107  90.4702894  23.8893477  39.9080325  86.7672904  17.2021584
  39.2654705  87.0605437  16.5561378  39.4035253  86.6525825  18.0074780
  37.5620488  90.5136077   7.8907443  38.4738344  90.7463464   7.7155141
  37.0530135  91.0973122   7.3282522  30.3705916  92.7931565  22.9296574
  31.1120601  93.3316609  22.6531398  29.6642902  93.4197853  23.0868126
  35.8461256  94.9360705  21.5268736  36.2544612  94.4943116  20.7823368
  35.1238518  94.3613333  21.7802929  32.1992326  89.8733312  18.9002293
  33.0453521  90.2972726  19.0436942  32.1390964  89.2166936  19.5940856
  36.1690071  95.4961896  15.2821024  35.5398933  95.6607610  14.5797092
  35.7815733  95.9103505  16.0531989  40.0479303  96.4316334  12.6365388
  39.3630341  96.8115235  12.0862422  40.1323152  97.0411660  13.3697336
  35.3491771  87.5337680  20.5583466  35.1052703  88.2879741  20.0217742
  35.6251702  87.9123028  21.3930713  37.3030234  94.0776293  19.2360732
  37.5147129  94.7208053  18.5595113  37.2559982  93.2438609  18.7682662
  34.9056463  86.6894113  16.1397304  34.0440942  86.9875367  16.4314042
  34.9318898  86.9064512  15.2078337  31.7218033  95.2336304  12.5471110
  32.1856378  95.5124007  11.7575732  31.4574831  94.3319748  12.3644200
  28.6142114  94.7807785  15.4850873  29.1843471  95.2095054  14.8468357
  29.2050225  94.4990370  16.1835059  30.6586919  91.3559456   9.3560675
  31.3610962  91.8080500   9.8234601  30.3267547  90.7143275   9.9840568
  29.1067280  89.9471213  23.7311884  28.4765941  90.6287494  23.9647281
  29.0003368  89.8354295  22.7865022  24.4012253  89.6143009  14.6577808
  23.6111307  89.8700537  14.1817919  24.8923500  90.4291347  14.7629849
  38.4176062  96.9548248  17.4083089  39.2393506  96.5528435  17.1265771
  38.4138465  96.8516482  18.3599205  26.3526998  89.9787588  11.6161285
  25.5558161  90.0906282  12.1344781  26.1252590  90.3174240  10.7502176
  32.1832666  96.5032291  19.5643800  32.2477098  96.9652699  20.4001971
  31.4743589  95.8729656  19.6926109  22.6849956  89.8673499  17.0892799
  22.9357994  90.7520509  17.3550375  23.2209504  89.6878101  16.3167891
  46.5082055  93.2986997  13.7568061  45.7545764  92.7294395  13.6012065
  46.6429596  93.2649661  14.7038695  28.3848023  84.2491979  26.0937135
  27.9914968  83.6958177  26.7684779  29.2014163  84.5602557  26.4843653
  31.3015984  85.6649858  23.6857392  32.0425697  86.2657011  23.6061854
  31.5333907  84.9227496  23.1275434  26.4457322  90.8506225  21.9635621
  26.3310837  89.9491482  22.2642720  25.5901840  91.0969922  21.6120438
  33.5249160  98.7923965  23.5623122  33.0813014  98.0060344  23.2444027
  34.1866373  98.9803116  22.8967013  28.2836281 100.3219767  18.0883801
  28.8343706 100.1936830  17.3160794  27.4447757 100.6214656  17.7378693
  35.6230398  99.0726765  21.5904523  35.6048873  99.8935646  21.0984792
  36.5450318  98.9480841  21.8154664  32.0803452  96.5870895  22.4328032
  32.6131789  95.8259183  22.2027340  31.5517533  96.2944547  23.1752186
  35.2473147  81.6930961  17.9621673  34.9037416  82.5832602  17.8860784
  35.6152109  81.5032618  17.0991258  35.2123429  91.6839572   6.4694109
  34.6970053  92.4544177   6.7082496  34.9400738  91.0104708   7.0927170
  32.7970541  86.5289273  11.5279347  31.9412137  86.1396123  11.3484986
  33.2097492  86.6081233  10.6679132  34.3269687  84.0635616  15.9270907
  33.8234483  84.0265751  15.1138712  34.6200294  84.9728359  15.9867563
  30.5712573  84.1474346  14.9337088  31.4365570  83.9517154  14.5742978
  30.6390082  83.9184697  15.8606445  40.1857704  94.4371927   8.4047282
  39.4087146  94.0983086   7.9602444  40.8649185  94.4424550   7.7302247
  35.0009733  89.5566664   8.2953890  34.6959868  89.8712813   9.1464033
  35.9540175  89.6348084   8.3381223  33.4456165  95.7156887   9.9446844
  32.9177526  94.9809647   9.6320081  32.9443667  96.4931564   9.6986812
  38.4249011  93.9105908  15.0613890  37.7672685  94.6005169  15.1494019
  39.2289410  94.3002340  15.4047876  28.1774892  86.3776554  12.3053455
  28.7518644  86.1551735  11.5726648  28.7645875  86.4465248  13.0582057
  37.2354469  92.2650280  13.1117832  37.7486351  92.8980272  13.6139541
  37.8855693  91.6651476  12.7461192  30.4797560  83.2517802  11.0328525
  29.8261972  82.9366820  10.4085139  30.4378034  82.6293543  11.7588348
  33.7135300  89.7399736  15.3576172  32.7957862  89.9614683  15.1997860
  34.1295444  89.8146047  14.4987880  34.4970348  91.1391152  10.4878853
  35.2442167  91.6512549  10.1785975  34.7661938  90.8175204  11.3483246
  38.0016266  97.2456282  11.2396974  37.5478593  96.4047192  11.2962165
  37.3710232  97.8817680  11.5771755  36.9449185  88.1748268  12.4697642
  36.2071942  87.6625654  12.8007884  37.1975959  87.7348650  11.6580919
  36.4449205  99.0832779  12.1746793  36.7372179  99.6437836  11.4559158
  36.9547825  99.3761340  12.9299952  37.0460812  80.9524520  13.0639411
  37.3519689  80.0921883  12.7765326  37.7713417  81.5442140  12.8638405
  31.3181892  91.2478313  13.5715602  31.3730502  90.2952149  13.4958079
  30.5073094  91.4037752  14.0556901  29.2574252  89.8655373  11.3305981
  28.4442118  90.1649543  11.7371173  29.7533246  89.4711062  12.0480463
  31.4082830  99.8613130  13.2640246  31.3659009 100.0873976  12.3348778
  32.3245529  99.6276504  13.4126047  34.8548464  90.3297197  20.1620875
  35.2097851  90.5568670  21.0215341  35.5020595  90.6615574  19.5398130
  40.5846201  93.4515633  10.8670204  40.4464099  93.6417229   9.9391393
  40.2282420  94.2135016  11.3238255  28.7488327  87.4373728  16.9467216
  29.3887706  87.2962487  16.2490179  27.9165857  87.1508242  16.5705818
  40.6115580  95.5192160  15.8781475  41.0452087  95.4267449  16.7264529
  41.3247161  95.4949661  15.2401491  29.5248631  96.7376159  13.0602208
  30.3189229  96.2426479  12.8584783  28.8140323  96.2094022  12.6969914
  34.3443475  99.1194254  17.4114576  34.3980498  99.6885191  18.1792292
  33.4758257  99.2896139  17.0468613  25.7516943  87.4074053  11.7240203
  26.0123761  88.3219387  11.6149363  26.5734116  86.9398496  11.8736816
  27.2241869  88.8211810  18.8939027  27.8964922  88.6129173  18.2451676
  26.3971655  88.6233896  18.4544260  41.4731130  95.5615861  18.4114361
  41.6667020  96.4661671  18.6573636  41.3731748  95.1023280  19.2452946
  33.1267441  85.4473751  20.9104688  32.4795356  86.1463701  20.8169165
  33.8968456  85.8809895  21.2780936  36.5346239  95.7122604  23.9855241
  36.3831745  95.4833155  23.0685325  36.5250918  96.6693205  23.9986586
  33.3031575  93.2854516  18.9701508  34.2323635  93.4365676  18.7970475
  32.8822605  93.3738537  18.1150154  32.1019907  97.3105181  16.7400046
  31.9630992  96.9423965  17.6125984  31.3134503  97.8252820  16.5684003
  33.6525122  96.6886783  14.1288883  33.3174955  96.6487553  15.0246533
  33.1529068  96.0231499  13.6559294  27.6269366  92.0954413  19.6541464
  27.4889164  91.3634652  20.2553004  28.5374289  92.0063314  19.3725652
  30.2551667  91.8074373  19.1425144  30.9651285  91.1667565  19.1011763
  30.2120975  92.0587268  20.0651325  38.2438445  98.7441726  22.0631723
  38.1850991  98.0600946  21.3962306  38.6457964  99.4860716  21.6112349
  28.9680601  88.7939591  20.9620784  28.4317958  88.3430329  21.6142380
  28.3797309  88.9285499  20.2191248  38.2455852  96.7081310  20.2945703
  37.3582631  96.3707232  20.4172102  38.8154404  95.9764341  20.5314468
  24.7019722  87.9295598  18.0473778  24.6177910  87.3221268  17.3124188
  23.8802428  88.4204617  18.0483274  31.7757006 101.3682762  17.2606946
  31.7027177 102.1737734  17.7726251  31.3334399 101.5674728  16.4354968
  34.8743436  86.4149162  13.4143973  35.3712135  85.6619124  13.0945043
  34.1030417  86.4513479  12.8487182  42.7273193  92.1189527  15.0562265
  42.7163069  93.0014243  14.6856198  41.8590572  91.7661078  14.8616802
  34.2355689 101.2669596  19.4165105  34.9483662 101.9017061  19.3441006
  33.7445718 101.3633462  18.6005107  35.9573216  95.1720849  10.9882397
  35.0229495  95.2922312  10.8187101  36.1349885  94.2693316  10.7242406
  31.4578404  88.5566545  13.1415658  31.0876192  88.0037585  13.8296563
  31.9537497  87.9524678  12.5890658  39.3445768  91.0138168  11.5232431
  39.8106220  91.8466160  11.4492733  39.7953268  90.5483150  12.2277689
  29.2867603  99.0164040  20.2370676  29.9877062  99.6500523  20.3900070
  28.8162718  99.3578771  19.4766315  37.4121999  97.3581990   8.5218583
  37.6881843  97.2438584   9.4312457  36.5426497  96.9599475   8.4830756
  37.3162430  83.3818755  15.5623332  36.4025510  83.6122982  15.7305539
  37.7455532  83.4657199  16.4137364  37.0868889  91.5708647  18.0623226
  36.4340339  91.8184555  17.4075679  37.4649269  90.7572786  17.7285703
  34.0476063 101.6068341  12.1651396  34.2298457 100.7889996  12.6279149
  34.8709049 101.8236033  11.7276286  34.3818228 100.5336526   9.4266445
  34.9105995 100.0228980   8.8136607  34.6446448 100.2179056  10.2911978
  33.1356462  92.3128458  24.5489263  32.4597099  92.2122588  25.2191638
  33.9584096  92.1567672  25.0125260  24.8835321  98.5500395  17.1701778
  25.4688758  97.8044083  17.3029683  24.6860159  98.8604352  18.0538442
  26.8543738  85.9670536  19.3868764  26.9185065  86.8285367  18.9746162
  26.7910858  85.3544537  18.6541122  26.3296011  88.0393668  23.0341798
  26.9568049  87.6570746  23.6479322  25.4723929  87.8207870  23.3997491
  36.7290119  98.4456643  24.6395534  37.2730023  99.0586602  24.1450488
  36.1476964  99.0036222  25.1562547  35.0147632 101.5677361  15.7710561
  34.8898772 100.7667101  15.2621507  35.6726723 102.0623555  15.2824531
  26.6355800  87.9226094  14.9487702  25.9142386  88.5362062  14.8095175
  27.4249056  88.4583859  14.8704347  37.0782540  99.3686381  17.3990111
  36.1312876  99.2491733  17.3268438  37.4265314  98.4808879  17.4816373
  29.4382114  85.2580520  21.2228353  29.9616516  85.5042817  21.9854663
  29.2194447  86.0900555  20.8031491  34.0828974  99.1639098  13.5994464
  33.9353936  98.2355805  13.7802034  34.9082467  99.1859188  13.1151539
  27.9491218  87.8157165   9.4574956  28.2887291  88.3443086   8.7353564
  28.3963339  88.1537571  10.2333522  37.6863096  99.9867656  14.6859336
  38.6109643  99.7810518  14.5483787  37.5178399  99.7384058  15.5948678
  30.6434659  86.1994215  18.9078024  30.3031479  85.4002029  19.3098704
  29.9373665  86.4995926  18.3354857  31.2951131  83.2843528  17.3605347
  32.1177200  82.8104006  17.2384237  31.5389194  84.0634012  17.8604033
  29.9359365  86.3131786   7.6568249  30.6567728  86.6913039   7.1531965
  29.3124669  87.0320663   7.7603226  34.0790488  87.0176935   8.5926581
  34.2954102  87.9001573   8.2915409  33.5984555  86.6263149   7.8632223
  28.8189709  89.9762649  15.1697325  28.6734290  90.2902952  16.0621607
  28.3414913  90.5947549  14.6168224  30.6786092  86.9665197  15.2178215
  30.6647661  86.0706290  14.8810513  31.3958520  86.9735860  15.8516501
  32.5312223  87.4002537  17.2631342  32.2730001  88.3219607  17.2615673
  31.9997263  87.0032971  17.9531807  37.4758412 100.5053324  10.0421428
  37.6495289  99.9399746   9.2895280  37.9687303 101.3054219   9.8600918
  23.2935372  92.5167993  18.1084987  22.7488840  93.2927801  18.2405261
  24.1714721  92.8638797  17.9504108  30.0822988  85.8479577  10.4865785
  30.2038899  84.9196223  10.6856673  29.7925031  85.8618263   9.5744101
  32.9514179  83.5334487  13.6232505  32.9735875  83.5973820  12.6684485
  33.3682238  82.6938996  13.8173011  43.3297803  93.2689747  11.6611728
  43.7728949  92.5197072  11.2630851  42.4524313  93.2599883  11.2785460
  24.0801393  91.6437889  21.0015143  23.3383130  91.7920525  21.5879774
  23.7594138  91.9046155  20.1381893  40.3625007  97.2719794   8.6705657
  40.8876332  97.6107067   7.9454977  40.2747360  96.3366809   8.4868791
  32.0245056 101.1853867  20.7995533  32.3332183 100.9403014  21.6718233
  32.8220538 101.3900506  20.3114404  32.0465668 103.3391777  13.0300910
  31.6070658 102.8468156  13.7233767  32.7973785 102.7964745  12.7892985
  29.4939540  98.8829786  15.1023212  28.8719550  98.2200491  14.8025440
  30.1644407  98.9090918  14.4196859  29.5664068  87.3611574  24.6955718
  29.6152223  88.2373697  24.3133487  30.1086582  86.8188967  24.1227361
  40.0518913  97.9052697  23.9756855  39.2614457  97.8876836  23.4361354
  39.8152268  98.4440991  24.7305891  40.1716789  94.7545164  21.2889583
  40.2214793  94.5895171  22.2305106  40.0630712  93.8872423  20.8987464
  37.4620551  90.7376092  22.6048890  38.3630414  90.5982557  22.3132888
  37.5368525  90.9030547  23.5447067  31.7963356  88.1142947  21.4502076
  30.9266666  88.4076513  21.1784665  32.0322837  88.6983392  22.1709340
  41.6734985  97.1742105  21.5331605  41.3819794  97.5372086  22.3695066
  41.0607117  96.4609114  21.3544937  42.8730668  94.7394985  14.0534175
  43.7077559  95.1784789  14.2171735  43.0089796  94.2633638  13.2342421
  39.9222174  92.2974720  20.0011663  40.3976295  92.4902366  19.1930514
  38.9987739  92.3533906  19.7555047  34.5002390  84.3322564  18.9667497
  35.0184334  85.0683590  18.6413985  34.1457523  84.6386557  19.8014256
  34.7514984  80.7522846  14.4868393  35.0316738  80.0846035  15.1128820
  35.5365591  80.9451942  13.9743057  38.6223843  89.1740480  18.2339968
  39.5741265  89.2738578  18.2552193  38.4527293  88.3818749  18.7438053
  36.6438222  86.2596063  18.4199369  36.0488154  86.5401076  17.7245858
  36.3587919  86.7489964  19.1916111  41.1011920  92.3946600  17.3482268
  41.0688240  91.4562600  17.5341952  41.7112544  92.4730636  16.6148093
  41.2506409  89.1857643  17.3940551  40.7345458  88.4016100  17.2070480
  42.1346357  88.8576360  17.5587071  38.9117136  82.9298659  13.3536364
  38.7141957  82.6213747  14.2379696  39.5216841  83.6560298  13.4834294
  46.9188470  93.4562607  16.4888305  47.6491859  93.1947895  17.0496008
  46.3095416  92.7191329  16.5290373  45.0003767  91.5970469  17.0862756
  44.2736931  91.4626434  16.4779248  44.5851054  91.9047298  17.8919474
  32.8233944  95.3160399  24.8510129  33.7436953  95.4938998  25.0450176
  32.7883527  94.3716444  24.6989828  22.0416109  90.5098992  13.7763404
  21.7218893  89.6564301  13.4837778  21.4949537  90.7247571  14.5321371
  25.8196016  93.2261433  17.4932910  26.0382026  94.1578541  17.5120944
  26.2321790  92.8669408  18.2787714  32.7400234  83.7329519   9.4808599
  31.9300962  83.3876604   9.8563845  33.4284651  83.4237063  10.0696210
  34.6690782  82.8107566  11.1032895  35.2221821  83.2303019  11.7622918
  34.9060869  81.8843314  11.1455851  30.6923882  88.7994639  26.8835659
  30.5920609  89.7488996  26.8147750  30.4745424  88.4712878  26.0111729
  38.0469589  84.9208091  10.6111560  37.4668259  85.5792895  10.2289612
  37.7805522  84.0985435  10.1998977  36.4973156  84.3213148  12.8132880
  36.9972934  84.4329683  12.0047199  37.1408764  84.0174201  13.4533688
  30.5555152  92.2291778  25.7000721  30.0722233  93.0292138  25.9064610
  30.6416091  92.2399723  24.7468165  26.4828489  96.1196313  17.7369155
  27.4371743  96.0880255  17.6699086  26.2841013  95.6586937  18.5519381
  27.0727871  94.6897429  20.3039952  27.8920760  95.1841508  20.3274790
  27.3464679  93.7729397  20.2757520  36.8294468  87.0808181   9.6667908
  35.9420323  87.3657832   9.4488103  37.2448457  86.9201945   8.8195185
  40.1809004  87.1054702  13.3822247  40.9569394  87.5951155  13.6546864
  39.4557138  87.5312756  13.8394117  42.6181562  87.8182321  14.4396188
  43.2126053  87.5778057  13.7289496  42.6908146  87.0989452  15.0669724
  36.8035491  92.5962717   9.8818198  36.7470693  93.0531269   9.0425830
  37.3563834  91.8353402   9.7041041  40.6140297  88.3852449  10.7068318
  40.3577231  87.9849085  11.5376525  39.9893165  89.0996243  10.5818457
  44.9252635  91.1248522  13.2139609  44.3652193  91.1941712  13.9871171
  44.3196138  90.9489507  12.4939105  37.5370271  93.7867498   7.1770727
  37.4819074  93.6211770   6.2359171  36.9116326  94.4943531   7.3332917
  22.3262786  89.0235563  21.0032149  22.9721649  88.5134517  21.4919375
  22.1179937  89.7604244  21.5775575  34.8516178  96.0916410  26.5024290
  35.7207337  96.2657062  26.1410925  34.3722929  96.9110827  26.3800019
  30.8466396  83.2875607   6.7556046  30.8345066  84.2317447   6.9124316
  31.7389818  83.1045753   6.4615507  30.7755960 101.9644498  14.8423802
  29.8251591 101.9646359  14.7288175  31.0788446 101.2177232  14.3259837
  34.6618515  79.8818384  11.0101982  33.8950911  79.3276871  11.1558665
  35.0729220  79.9540253  11.8716134  26.6660277  86.1703180  25.1007164
  27.5291738  85.8139985  25.3110488  26.0925687  85.8317075  25.7882568
  48.9883769  99.1753297  18.3450360  48.6567094 100.0448708  18.1211575
  48.3929383  98.8589581  19.0244390  48.8812433 103.8948383  15.4243710
  47.9729310 103.8263792  15.1302471  48.8300029 104.3720328  16.2525535
  42.9553299 105.3138029  23.3678607  42.1786633 105.8731949  23.3581472
  43.5943862 105.7994812  23.8893477  50.7474079 102.0964822  17.2021584
  50.1048459 102.3897355  16.5561378  50.2429008 101.9817742  18.0074780
  43.0386081 105.2025230  18.9002293  43.8847276 105.6264643  19.0436942
  42.9784718 104.5458854  19.5940856  46.1885526 102.8629598  20.5583466
  45.9446458 103.6171659  20.0217742  46.4645456 103.2414946  21.3930713
  45.7450218 102.0186031  16.1397304  44.8834697 102.3167285  16.4314042
  45.7712652 102.2356430  15.2078337  39.9461035 105.2763131  23.7311884
  39.3159695 105.9579411  23.9647281  39.8397122 105.1646212  22.7865022
  39.2241777  99.5783896  26.0937135  38.8308723  99.0250095  26.7684779
  40.0407918  99.8894475  26.4843653  42.1409738 100.9941776  23.6857392
  42.8819452 101.5948929  23.6061854  42.3727661 100.2519413  23.1275434
  46.0866901  97.0222878  17.9621673  45.7431171  97.9124520  17.8860784
  46.4545864  96.8324536  17.0991258  45.1663442  99.3927534  15.9270907
  44.6628237  99.3557669  15.1138712  45.4594049 100.3020276  15.9867563
  41.4106328  99.4766263  14.9337088  42.2759324  99.2809072  14.5742978
  41.4783836  99.2476615  15.8606445  39.0168647 101.7068471  12.3053455
  39.5912399 101.4843653  11.5726648  39.6039629 101.7757166  13.0582057
  41.3191314  98.5809720  11.0328525  40.6655727  98.2658737  10.4085139
  41.2771788  97.9585461  11.7588348  44.5529055 105.0691654  15.3576172
  43.6351616 105.2906601  15.1997860  44.9689198 105.1437964  14.4987880
  47.8854567  96.2816438  13.0639411  48.1913444  95.4213801  12.7765326
  48.6107172  96.8734058  12.8638405  42.1575647 106.5770231  13.5715602
  42.2124256 105.6244067  13.4958079  41.3466849 106.7329670  14.0556901
  45.6942218 105.6589115  20.1620875  46.0491606 105.8860588  21.0215341
  46.3414349 105.9907492  19.5398130  39.5882081 102.7665646  16.9467216
  40.2281461 102.6254405  16.2490179  38.7559612 102.4800159  16.5705818
  36.5910698 102.7365971  11.7240203  36.8517515 103.6511304  11.6149363
  37.4127870 102.2690414  11.8736816  38.0635623 104.1503728  18.8939027
  38.7358677 103.9421090  18.2451676  37.2365410 103.9525814  18.4544260
  43.9661195 100.7765669  20.9104688  43.3189110 101.4755619  20.8169165
  44.7362211 101.2101813  21.2780936  39.8074355 104.1231508  20.9620784
  39.2711712 103.6722247  21.6142380  39.2191063 104.2577417  20.2191248
  35.5413476 103.2587516  18.0473778  35.4571665 102.6513186  17.3124188
  34.7196183 103.7496534  18.0483274  45.7137190 101.7441080  13.4143973
  46.2105890 100.9911042  13.0945043  44.9424172 101.7805396  12.8487182
  42.2972159 103.8858463  13.1415658  41.9269946 103.3329503  13.8296563
  42.7931251 103.2816596  12.5890658  48.1556185  98.7110673  15.5623332
  47.2419265  98.9414900  15.7305539  48.5849286  98.7949117  16.4137364
  47.9262643 106.9000565  18.0623226  47.2734094 107.1476472  17.4075679
  48.3043023 106.0864703  17.7285703  43.9750216 107.6420376  24.5489263
  43.2990853 107.5414505  25.2191638  44.7977850 107.4859590  25.0125260
  37.6937493 101.2962453  19.3868764  37.7578819 102.1577284  18.9746162
  37.6304613 100.6836455  18.6541122  37.1689765 103.3685586  23.0341798
  37.7961804 102.9862663  23.6479322  36.3117684 103.1499788  23.3997491
  37.4749555 103.2518012  14.9487702  36.7536141 103.8653979  14.8095175
  38.2642811 103.7875776  14.8704347  40.2775868 100.5872438  21.2228353
  40.8010270 100.8334735  21.9854663  40.0588202 101.4192473  20.8031491
  41.4828413 101.5286133  18.9078024  41.1425234 100.7293946  19.3098704
  40.7767420 101.8287844  18.3354857  42.1344885  98.6135446  17.3605347
  42.9570954  98.1395924  17.2384237  42.3782949  99.3925929  17.8604033
  39.6583464 105.3054566  15.1697325  39.5128045 105.6194869  16.0621607
  39.1808668 105.9239467  14.6168224  41.5179847 102.2957114  15.2178215
  41.5041416 101.3998208  14.8810513  42.2352275 102.3027778  15.8516501
  43.3705978 102.7294454  17.2631342  43.1123755 103.6511525  17.2615673
  42.8391018 102.3324889  17.9531807  43.7907933  98.8626405  13.6232505
  43.8129630  98.9265738  12.6684485  44.2075992  98.0230914  13.8173011
  40.4057822 102.6903492  24.6955718  40.4545978 103.5665615  24.3133487
  40.9480336 102.1480885  24.1227361  51.0110543 110.0837081  21.2889583
  51.0608548 109.9187089  22.2305106  50.9024466 109.2164340  20.8987464
  48.3014305 106.0668009  22.6048890  49.2024168 105.9274474  22.3132888
  48.3762280 106.2322464  23.5447067  42.6357111 103.4434864  21.4502076
  41.7660420 103.7368430  21.1784665  42.8716591 104.0275309  22.1709340
  50.7615928 107.6266638  20.0011663  51.2370050 107.8194284  19.1930514
  49.8381493 107.6825823  19.7555047  45.3396145  99.6614481  18.9667497
  45.8578088 100.3975508  18.6413985  44.9851277  99.9678474  19.8014256
  45.5908739  96.0814764  14.4868393  45.8710493  95.4137953  15.1128820
  46.3759346  96.2743859  13.9743057  49.4617597 104.5032398  18.2339968
  50.4135020 104.6030495  18.2552193  49.2921048 103.7110666  18.7438053
  47.4831977 101.5887981  18.4199369  46.8881909 101.8692994  17.7245858
  47.1981673 102.0781882  19.1916111  52.0900163 104.5149561  17.3940551
  51.5739212 103.7308017  17.2070480  52.9740112 104.1868277  17.5587071
  49.7510890  98.2590576  13.3536364  49.5535711  97.9505665  14.2379696
  50.3610596  98.9852215  13.4834294  45.5084537  98.1399483  11.1032895
  46.0615576  98.5594937  11.7622918  45.7454623  97.2135231  11.1455851
  41.5317636 104.1286557  26.8835659  41.4314363 105.0780914  26.8147750
  41.3139178 103.8004796  26.0111729  47.3366910  99.6505066  12.8132880
  47.8366689  99.7621601  12.0047199  47.9802518  99.3466119  13.4533688
  45.5012270  95.2110302  11.0101982  44.7344666  94.6568788  11.1558665
  45.9122975  95.2832170  11.8716134  37.5054031 101.4995097  25.1007164
  38.3685493 101.1431902  25.3110488  36.9319442 101.1608992  25.7882568
  15.0502611  44.7934931  11.3640840  15.5942515  45.4064889  10.8695795
  14.4689456  45.3514509  11.8807853  18.3731406  44.2530985  10.7002161
  17.5826949  44.2355124  10.1606661  18.1364760  44.7919278  11.4551198
  13.1728670  42.4394697  13.2269597  14.0419830  42.6135350  12.8656232
  12.6935422  43.2589114  13.1045326  24.8321146  54.1483323   2.6314871
  25.4699556  54.0290071   1.9278211  24.7141989  55.0964167   2.6902823
  22.1230635  55.2545603   8.5262601  22.1119276  54.8598401   7.6543105
  22.2851275  54.5211676   9.1196373  18.8437896  58.0382715   7.4741785
  18.5527762  58.9428346   7.3588452  19.4794881  58.0799243   8.1885855
  19.7694103  55.4159564   4.0643145  20.3657675  55.1915586   3.3500108
  19.8269075  54.6744309   4.6668593  29.7870841  51.8110010   0.6101058
  30.5196013  51.2409227   0.8438887  29.0310197  51.4231611   1.0507563
  27.3096262  45.5231585   5.0695666  26.9779587  46.3926995   4.8456881
  26.7141875  45.2067869   5.7489697  23.8027781  57.7244131   4.4691579
  23.5028504  58.6269169   4.3607386  23.4578841  57.4576314   5.3212732
  21.2765791  51.6616316  10.0923914  20.4999125  52.2210236  10.0826778
  21.9156354  52.1473099  10.6138784  29.0686571  48.4443109   3.9266890
  28.4260952  48.7375642   3.2806685  28.5641500  48.3296029   4.7320087
  19.5312163  54.4701770   9.6541881  20.2726848  55.0086814   9.3776704
  18.8249149  55.0968058   9.8113433  25.0067503  56.6130910   8.2514042
  25.4150859  56.1713321   7.5068675  24.2844764  56.0383538   8.5048235
  21.3598573  51.5503517   5.6247599  22.2059768  51.9742930   5.7682248
  21.2997210  50.8937141   6.3186162  25.3296317  57.1732101   2.0066331
  24.7005180  57.3377815   1.3042399  24.9421980  57.5873710   2.7777295
  29.2085549  58.1086539  -0.6389305  28.5236587  58.4885440  -1.1892272
  29.2929399  58.7181865   0.0942643  24.5098018  49.2107885   7.2828773
  24.2658950  49.9649946   6.7463049  24.7857949  49.5893233   8.1176020
  26.4636481  55.7546498   5.9606038  26.6753376  56.3978258   5.2840419
  26.4166229  54.9208814   5.4927968  17.7748360  56.4577990   2.2096179
  18.3449717  56.8865259   1.5713664  18.3656472  56.1760575   2.9080365
  18.2673527  51.6241418  10.4557191  17.6372187  52.3057699  10.6892588
  18.1609615  51.5124499   9.5110329  27.5782309  58.6318453   4.1328396
  28.3999753  58.2298640   3.8511077  27.5744712  58.5286687   5.0844512
  21.3438912  58.1802496   6.2889106  21.4083345  58.6422904   7.1247278
  20.6349836  57.5499861   6.4171416  35.6688302  54.9757202   0.4813367
  34.9152010  54.4064600   0.3257372  35.8035843  54.9419866   1.4284002
  17.5454270  45.9262184  12.8182442  17.1521215  45.3728382  13.4930086
  18.3620410  46.2372762  13.2088959  20.4622231  47.3420063  10.4102698
  21.2031944  47.9427216  10.3307161  20.6940153  46.5997701   9.8520741
  15.6063569  52.5276430   8.6880928  15.4917084  51.6261687   8.9888027
  14.7508086  52.7740127   8.3365745  22.6855406  60.4694170  10.2868429
  22.2419261  59.6830549   9.9689333  23.3472620  60.6573321   9.6212319
  17.4442528  61.9989972   4.8129107  17.9949953  61.8707035   4.0406101
  16.6054003  62.2984861   4.4624000  24.7836644  60.7496970   8.3149830
  24.7655120  61.5705851   7.8230099  25.7056564  60.6251045   8.5399971
  21.2409699  58.2641100   9.1573338  21.7738035  57.5029388   8.9272646
  20.7123780  57.9714752   9.8997493  27.5855257  55.5876113   1.7859197
  26.9278932  56.2775374   1.8739325  28.3895657  55.9772545   2.1293183
  27.1622512  58.9226487  -2.0357719  26.7084839  58.0817397  -1.9792529
  26.5316479  59.5587885  -1.6982939  25.6055452  60.7602984  -1.1007901
  25.8978426  61.3208041  -1.8195535  26.1154072  61.0531545  -0.3454742
  20.5689077  61.5383335  -0.0114448  20.5265256  61.7644181  -0.9405916
  21.4851776  61.3046709   0.1371354  24.0154711  52.0067402   6.8866182
  24.3704098  52.2338875   7.7460647  24.6626842  52.3385779   6.2643437
  29.7721827  57.1962365   2.6026782  30.2058334  57.1037654   3.4509836
  30.4853408  57.1719866   1.9646798  23.5049722  60.7964459   4.1359883
  23.5586744  61.3655395   4.9037599  22.6364503  60.9666344   3.7713920
  30.6337377  57.2386066   5.1359668  30.8273267  58.1431876   5.3818942
  30.5337995  56.7793485   5.9698253  22.2873687  47.1243956   7.6349995
  21.6401602  47.8233906   7.5414471  23.0574703  47.5580100   8.0026243
  25.6952485  57.3892808  10.7100548  25.5437992  57.1603360   9.7930632
  25.6857165  58.3463410  10.7231893  22.4637822  54.9624721   5.6946815
  23.3929882  55.1135881   5.5215782  22.0428852  55.0508742   4.8395461
  21.2626154  58.9875386   3.4645352  21.1237239  58.6194170   4.3371290
  20.4740750  59.5023025   3.2929310  22.8131369  58.3656988   0.8534190
  22.4781201  58.3257758   1.7491840  22.3135314  57.7001704   0.3804600
  16.7875613  53.7724618   6.3786771  16.6495411  53.0404857   6.9798310
  17.6980536  53.6833518   6.0970959  19.4157913  53.4844578   5.8670451
  20.1257532  52.8437770   5.8257069  19.3727221  53.7357473   6.7896632
  27.4044692  60.4211931   8.7877030  27.3457238  59.7371151   8.1207613
  27.8064210  61.1630921   8.3357656  18.1286847  50.4709796   7.6866090
  17.5924204  50.0200534   8.3387687  17.5403556  50.6055704   6.9436555
  27.4062099  58.3851515   7.0191010  26.5188878  58.0477437   7.1417409
  27.9760650  57.6534546   7.2559775  20.9363253  63.0452967   3.9852253
  20.8633424  63.8507939   4.4971557  20.4940646  63.2444933   3.1600274
  31.8879440  53.7959732   1.7807571  31.8769316  54.6784448   1.4101504
  31.0196819  53.4431283   1.5862108  23.3961936  62.9439801   6.1410412
  24.1089908  63.5787266   6.0686313  22.9051965  63.0403667   5.3250413
  18.4473850  60.6934245   6.9615982  19.1483309  61.3270728   7.1145377
  17.9768965  61.0348976   6.2011622  26.2475136  53.2478852   4.7868533
  25.5946586  53.4954760   4.1320985  26.6255516  52.4342990   4.4531010
  23.2082310  63.2838545  -1.1103297  23.3904704  62.4660201  -0.6475545
  24.0315296  63.5006238  -1.5478407  22.2962709  53.9898663  11.2734570
  21.6203346  53.8892793  11.9436945  23.1190343  53.8337877  11.7370567
  14.0441568  60.2270600   3.8947085  14.6295005  59.4814288   4.0274989
  13.8466406  60.5374557   4.7783749  21.0385492  65.2965591   5.5092186
  21.5903800  65.4597212   6.2741271  21.3791685  65.8870029   4.8372211
  15.4902257  49.7163873   9.7587105  16.1174296  49.3340950  10.3724629
  14.6330176  49.4978075  10.1242797  25.8896366  60.1226848  11.3640840
  26.4336270  60.7356807  10.8695795  25.3083211  60.6806427  11.8807853
  24.1753879  63.2447566   2.4955868  24.0505018  62.4437306   1.9866813
  24.8332970  63.7393760   2.0069838  26.2388787  61.0456586   4.1235418
  25.2919123  60.9261938   4.0513745  26.5871560  60.1579084   4.2061679
  18.5988361  46.9350725   7.9473660  19.1222762  47.1813022   8.7099969
  18.3800694  47.7670760   7.5276797  23.2435221  60.8409303   0.3239770
  23.0960183  59.9126010   0.5047340  24.0688714  60.8629393  -0.1603155
  26.8469342  61.6637861   1.4104643  27.7715890  61.4580723   1.2729094
  26.6784646  61.4154262   2.3193984  26.6364659  62.1823529  -3.2333266
  26.8101536  61.6169951  -3.9859413  27.1293550  62.9824424  -3.4153776
  32.4904050  54.9459952  -1.6142966  32.9335196  54.1967277  -2.0123843
  31.6130560  54.9370088  -1.9969234  13.2407640  53.3208094   7.7260450
  12.4989376  53.4690729   8.3125081  12.9200385  53.5816360   6.8627200
  21.1851303  62.8624072   7.5240840  21.4938429  62.6173219   8.3963540
  21.9826785  63.0670711   7.0359710  21.2071915  65.0161982  -0.2453783
  20.7676905  64.5238361   0.4479073  21.9580032  64.4734950  -0.4861708
  18.6545787  60.5599991   1.8268518  18.0325796  59.8970696   1.5270746
  19.3250654  60.5861123   1.1442166  18.7270315  49.0381779  11.4201024
  18.7758470  49.9143902  11.0378794  19.2692829  48.4959172  10.8472668
  29.2125160  59.5822902  10.7002161  28.4220704  59.5647041  10.1606661
  28.9758515  60.1211196  11.4551198  29.3323035  56.4315369   8.0134890
  29.3821040  56.2665376   8.9550413  29.2236959  55.5642628   7.6232771
  26.6226798  52.4146297   9.3294197  27.5236660  52.2752762   9.0378194
  26.6974772  52.5800752  10.2692374  20.9569603  49.7913151   8.1747383
  20.0872912  50.0846718   7.9029972  21.1929083  50.3753596   8.8954647
  30.8341232  58.8512310   8.2576912  30.5426040  59.2142291   9.0940372
  30.2213363  58.1379319   8.0790244  32.0336914  56.4165190   0.7779482
  32.8683806  56.8554994   0.9417042  32.1696043  55.9403843  -0.0412272
  29.0828420  53.9744925   6.7256970  29.5582542  54.1672571   5.9175821
  28.1593986  54.0304111   6.4800353  23.6608637  46.0092768   5.6912803
  24.1790581  46.7453795   5.3659292  23.3063770  46.3156762   6.5259563
  27.7830089  50.8510685   4.9585275  28.7347512  50.9508783   4.9797499
  27.6133540  50.0588953   5.4683359  25.8044469  47.9366268   5.1444676
  25.2094401  48.2171281   4.4491165  25.5194166  48.4260169   5.9161417
  30.2618167  54.0716805   4.0727575  30.2294487  53.1332805   4.2587259
  30.8718791  54.1500841   3.3393400  30.4112656  50.8627848   4.1185858
  29.8951704  50.0786305   3.9315787  31.2952604  50.5346565   4.2832377
  36.0794717  55.1332811   3.2133612  36.8098105  54.8718100   3.7741315
  35.4701662  54.3961533   3.2535680  34.1610014  53.2740674   3.8108063
  33.4343178  53.1396639   3.2024554  33.7457301  53.5817503   4.6164781
  21.9840191  56.9930604  11.5755436  22.9043200  57.1709203  11.7695482
  21.9489774  56.0486649  11.4235135  14.9802263  54.9031638   4.2178217
  15.1988273  55.8348746   4.2366251  15.3928037  54.5439613   5.0033021
  19.8530128  50.4764844  13.6080966  19.7526855  51.4259201  13.5393057
  19.6351670  50.1483083  12.7357036  19.7161398  53.9061983  12.4246028
  19.2328480  54.7062343  12.6309917  19.8022338  53.9169928  11.4713472
  15.6434736  57.7966518   4.4614461  16.5977990  57.7650460   4.3944393
  15.4447260  57.3357141   5.2764687  16.2334118  56.3667634   7.0285259
  17.0527007  56.8611712   7.0520096  16.5070926  55.4499602   7.0002826
  31.7787809  49.4952526   1.1641494  32.3732300  49.2548262   0.4534803
  31.8514393  48.7759657   1.7915031  34.0858882  52.8018727  -0.0615084
  33.5258440  52.8711916   0.7116478  33.4802385  52.6259712  -0.7815588
  24.0122425  57.7686615  13.2269597  24.8813584  57.9427267  12.8656232
  23.5329176  58.5881032  13.1045326  18.1808605  64.8883716   4.9059030
  19.0835851  64.9207326   5.2225525  17.9545975  63.9584167   4.9205366
  19.9362207  63.6414703   1.5669109  18.9857838  63.6416564   1.4533481
  20.2394693  62.8947437   1.0505144  15.8266523  47.8473385  11.8252470
  16.6897985  47.4910190  12.0355795  15.2531934  47.5087280  12.5127875
  35.6714900  69.4775241   2.6314871  36.3093310  69.3581988   1.9278211
  35.5535743  70.4256085   2.6902823  32.4804607  69.4302669   2.5676396
  32.1423118  69.3143734   1.6796931  33.3494375  69.0293834   2.5477402
  28.3391422  71.2838146  -1.4426713  27.7756287  71.1928083  -2.2110425
  28.2243817  70.4638050  -0.9624221  32.9624390  70.5837521   8.5262601
  32.9513030  70.1890319   7.6543105  33.1245029  69.8503593   9.1196373
  25.8855854  72.7789337   1.3957507  26.6777146  72.4380162   0.9803807
  26.1252504  72.8884312   2.3159661  29.6831651  73.3674633   7.4741785
  29.3921517  74.2720264   7.3588452  30.3188635  73.4091160   8.1885855
  30.6087858  70.7451481   4.0643145  31.2051430  70.5207504   3.3500108
  30.6662829  70.0036227   4.6668593  35.2256169  67.2026695  -0.2931921
  36.0119258  66.7846118  -0.6441504  35.4894873  68.1072787  -0.1250272
  35.3966246  72.6399545  -5.5943264  34.7612079  72.7134172  -4.8822359
  35.0663653  73.2293144  -6.2724185  40.6264596  67.1401928   0.6101058
  41.3589768  66.5701145   0.8438887  39.8703952  66.7523529   1.0507563
  32.2440716  69.5629170  -2.1935600  31.8798923  69.0359791  -1.4822678
  33.1007832  69.1727639  -2.3669114  38.1490016  60.8523502   5.0695666
  37.8173341  61.7218913   4.8456881  37.5535630  60.5359786   5.7489697
  31.8846203  64.5919069  -7.1974251  32.0520605  65.4599306  -6.8303780
  31.6943372  64.7546351  -8.1212962  34.6421536  73.0536048   4.4691579
  34.3422259  73.9561087   4.3607386  34.2972595  72.7868231   5.3212732
  28.0934017  69.5049845   0.5028284  27.1684514  69.3726059   0.7105975
  28.3418430  70.2844064   0.9998226  38.0418680  65.5718588   2.1489016
  37.1335557  65.5033997   1.8547777  37.9906275  66.0490533   2.9770842
  31.8635423  67.0476727  -6.2127584  31.7435049  67.4933778  -5.3742104
  31.1688012  67.3962044  -6.7714046  25.4542828  69.1483119   1.3372073
  25.5835209  69.4017598   2.2511484  24.7740280  69.7410827   1.0176728
  32.1159545  66.9908234  10.0923914  31.3392879  67.5502154  10.0826778
  32.7550108  67.4765017  10.6138784  39.9080326  63.7735027   3.9266890
  39.2654706  64.0667560   3.2806685  39.4035254  63.6587947   4.7320087
  37.5620490  67.5198200  -5.3847250  38.4738346  67.7525587  -5.5599553
  37.0530137  68.1035244  -5.9472172  30.3705918  69.7993687   9.6541881
  31.1120602  70.3378731   9.3776704  29.6642903  70.4259976   9.8113433
  35.8461257  71.9422828   8.2514042  36.2544613  71.5005238   7.5068675
  35.1238519  71.3675455   8.5048235  32.1992327  66.8795435   5.6247599
  33.0453523  67.3034848   5.7682248  32.1390965  66.2229059   6.3186162
  36.1690072  72.5024018   2.0066331  35.5398934  72.6669733   1.3042399
  35.7815734  72.9165628   2.7777295  40.0479304  73.4378456  -0.6389305
  39.3630342  73.8177358  -1.1892272  40.1323153  74.0473783   0.0942643
  35.3491773  64.5399803   7.2828773  35.1052705  65.2941863   6.7463049
  35.6251703  64.9185151   8.1176020  37.3030235  71.0838415   5.9606038
  37.5147131  71.7270175   5.2840419  37.2559984  70.2500732   5.4927968
  34.9056464  63.6956236   2.8642611  34.0440943  63.9937490   3.1559348
  34.9318899  63.9126635   1.9323643  31.7218034  72.2398427  -0.7283584
  32.1856379  72.5186129  -1.5178961  31.4574832  71.3381871  -0.9110493
  28.6142115  71.7869908   2.2096179  29.1843472  72.2157176   1.5713664
  29.2050227  71.5052493   2.9080365  30.6586920  68.3621579  -3.9194019
  31.3610963  68.8142623  -3.4520092  30.3267548  67.7205398  -3.2914126
  29.1067281  66.9533336  10.4557191  28.4765942  67.6349616  10.6892588
  29.0003369  66.8416417   9.5110329  24.4012254  66.6205132   1.3823115
  23.6111308  66.8762660   0.9063226  24.8923501  67.4353469   1.4875155
  38.4176063  73.9610371   4.1328396  39.2393507  73.5590558   3.8511077
  38.4138466  73.8578605   5.0844512  26.3526999  66.9849711  -1.6593408
  25.5558162  67.0968405  -1.1409913  26.1252591  67.3236363  -2.5252518
  32.1832667  73.5094414   6.2889106  32.2477099  73.9714821   7.1247278
  31.4743591  72.8791779   6.4171416  22.6849957  66.8735622   3.8138106
  22.9357995  67.7582632   4.0795682  23.2209505  66.6940224   3.0413198
  46.5082056  70.3049119   0.4813367  45.7545765  69.7356517   0.3257372
  46.6429598  70.2711784   1.4284002  28.3848024  61.2554101  12.8182442
  27.9914970  60.7020300  13.4930086  29.2014164  61.5664680  13.2088959
  31.3015985  62.6711980  10.4102698  32.0425698  63.2719134  10.3307161
  31.5333908  61.9289618   9.8520741  26.4457323  67.8568348   8.6880928
  26.3310838  66.9553605   8.9888027  25.5901841  68.1032044   8.3365745
  33.5249161  75.7986088  10.2868429  33.0813015  75.0122467   9.9689333
  34.1866374  75.9865239   9.6212319  28.2836282  77.3281890   4.8129107
  28.8343707  77.1998953   4.0406101  27.4447758  77.6276779   4.4624000
  35.6230399  76.0788888   8.3149830  35.6048874  76.8997769   7.8230099
  36.5450319  75.9542963   8.5399971  32.0803453  73.5933017   9.1573338
  32.6131790  72.8321306   8.9272646  31.5517534  73.3006669   9.8997493
  35.2473148  58.6993083   4.6866980  34.9037417  59.5894725   4.6106091
  35.6152111  58.5094741   3.8236565  35.2123431  68.6901694  -6.8060585
  34.6970054  69.4606299  -6.5672197  34.9400739  68.0166831  -6.1827523
  32.7970542  63.5351395  -1.7475346  31.9412138  63.1458246  -1.9269708
  33.2097494  63.6143356  -2.6075561  34.3269688  61.0697739   2.6516213
  33.8234484  61.0327874   1.8384019  34.6200295  61.9790481   2.7112870
  30.5712574  61.1536468   1.6582395  31.4365571  60.9579277   1.2988285
  30.6390083  60.9246820   2.5851752  40.1857705  71.4434049  -4.8707411
  39.4087148  71.1045209  -5.3152249  40.8649186  71.4486672  -5.5452446
  35.0009734  66.5628787  -4.9800804  34.6959869  66.8774936  -4.1290660
  35.9540176  66.6410206  -4.9373471  33.4456166  72.7219010  -3.3307850
  32.9177527  71.9871769  -3.6434612  32.9443668  73.4993686  -3.5767881
  38.4249012  70.9168030   1.7859197  37.7672686  71.6067292   1.8739325
  39.2289411  71.3064462   2.1293183  28.1774893  63.3838676  -0.9701238
  28.7518645  63.1613858  -1.7028045  28.7645876  63.4527371  -0.2172637
  37.2354471  69.2712403  -0.1636862  37.7486352  69.9042395   0.3384848
  37.8855694  68.6713599  -0.5293502  30.4797561  60.2579925  -2.2426169
  29.8261973  59.9428942  -2.8669554  30.4378035  59.6355666  -1.5166346
  33.7135301  66.7461859   2.0821479  32.7957863  66.9676806   1.9243167
  34.1295445  66.8208169   1.2233186  34.4970349  68.1453274  -2.7875841
  35.2442168  68.6574672  -3.0968719  34.7661939  67.8237327  -1.9271447
  38.0016267  74.2518405  -2.0357719  37.5478594  73.4109314  -1.9792529
  37.3710234  74.8879803  -1.6982939  36.9449186  65.1810391  -0.8057052
  36.2071943  64.6687777  -0.4746809  37.1975960  64.7410772  -1.6173775
  36.4449206  76.0894901  -1.1007901  36.7372180  76.6499958  -1.8195535
  36.9547827  76.3823462  -0.3454742  37.0460814  57.9586643  -0.2115282
  37.3519690  57.0984006  -0.4989367  37.7713419  58.5504263  -0.4116288
  31.3181893  68.2540436   0.2960909  31.3730503  67.3014272   0.2203385
  30.5073095  68.4099875   0.7802207  29.2574253  66.8717495  -1.9448712
  28.4442119  67.1711666  -1.5383520  29.7533248  66.4773184  -1.2274230
  31.4082831  76.8675252  -0.0114448  31.3659010  77.0936099  -0.9405916
  32.3245530  76.6338627   0.1371354  34.8548465  67.3359320   6.8866182
  35.2097853  67.5630793   7.7460647  35.5020596  67.6677697   6.2643437
  40.5846202  70.4577756  -2.4084489  40.4464101  70.6479352  -3.3363300
  40.2282421  71.2197139  -1.9516438  28.7488328  64.4435851   3.6712523
  29.3887707  64.3024610   2.9735486  27.9165859  64.1570364   3.2951125
  40.6115582  72.5254283   2.6026782  41.0452088  72.4329572   3.4509836
  41.3247162  72.5011783   1.9646798  29.5248632  73.7438281  -0.2152485
  30.3189231  73.2488601  -0.4169910  28.8140324  73.2156144  -0.5784779
  34.3443476  76.1256377   4.1359883  34.3980499  76.6947313   4.9037599
  33.4758258  76.2958262   3.7713920  25.7516945  64.4136176  -1.5514491
  26.0123762  65.3281509  -1.6605330  26.5734117  63.9460618  -1.4017878
  27.2241870  65.8273933   5.6184334  27.8964923  65.6191295   4.9696983
  26.3971656  65.6296019   5.1789566  41.4731131  72.5677983   5.1359668
  41.6667021  73.4723794   5.3818942  41.3731749  72.1085402   5.9698253
  33.1267442  62.4535874   7.6349995  32.4795357  63.1525824   7.5414471
  33.8968457  62.8872018   8.0026243  36.5346240  72.7184726  10.7100548
  36.3831746  72.4895278   9.7930632  36.5250919  73.6755328  10.7231893
  33.3031576  70.2916639   5.6946815  34.2323636  70.4427799   5.5215782
  32.8822606  70.3800660   4.8395461  32.1019908  74.3167303   3.4645352
  31.9630994  73.9486088   4.3371290  31.3134504  74.8314943   3.2929310
  33.6525123  73.6948906   0.8534190  33.3174956  73.6549676   1.7491840
  33.1529069  73.0293622   0.3804600  27.6269367  69.1016536   6.3786771
  27.4889165  68.3696775   6.9798310  28.5374291  69.0125436   6.0970959
  30.2551668  68.8136495   5.8670451  30.9651286  68.1729688   5.8257069
  30.2120976  69.0649390   6.7896632  38.2438446  75.7503849   8.7877030
  38.1850993  75.0663069   8.1207613  38.6457965  76.4922839   8.3357656
  28.9680602  65.8001713   7.6866090  28.4317959  65.3492452   8.3387687
  28.3797310  65.9347622   6.9436555  38.2455854  73.7143433   7.0191010
  37.3582632  73.3769354   7.1417409  38.8154405  72.9826464   7.2559775
  24.7019723  64.9357721   4.7719085  24.6177912  64.3283390   4.0369495
  23.8802429  65.4266739   4.7728581  31.7757007  78.3744885   3.9852253
  31.7027179  79.1799856   4.4971557  31.3334400  78.5736851   3.1600274
  34.8743437  63.4211284   0.1389280  35.3712136  62.6681247  -0.1809650
  34.1030418  63.4575601  -0.4267511  42.7273194  69.1251650   1.7807571
  42.7163071  70.0076365   1.4101504  41.8590574  68.7723201   1.5862108
  34.2355691  78.2731719   6.1410412  34.9483663  78.9079184   6.0686313
  33.7445719  78.3695585   5.3250413  35.9573218  72.1782972  -2.2872297
  35.0229496  72.2984434  -2.4567592  36.1349886  71.2755438  -2.5512287
  31.4578406  65.5628667  -0.1339036  31.0876193  65.0099708   0.5541870
  31.9537498  64.9586801  -0.6864036  39.3445769  68.0200291  -1.7522263
  39.8106221  68.8528283  -1.8261960  39.7953269  67.5545273  -1.0477004
  29.2867604  76.0226162   6.9615982  29.9877064  76.6562645   7.1145377
  28.8162719  76.3640894   6.2011622  37.4122000  74.3644112  -4.7536111
  37.6881844  74.2500707  -3.8442237  36.5426499  73.9661597  -4.7923938
  37.3162432  60.3880878   2.2868639  36.4025511  60.6185105   2.4550846
  37.7455533  60.4719322   3.1382671  37.0868890  68.5770770   4.7868533
  36.4340340  68.8246677   4.1320985  37.4649270  67.7634908   4.4531010
  34.0476064  78.6130463  -1.1103297  34.2298459  77.7952119  -0.6475545
  34.8709050  78.8298155  -1.5478407  34.3818230  77.5398648  -3.8488249
  34.9105996  77.0291103  -4.4618086  34.6446449  77.2241178  -2.9842716
  33.1356463  69.3190581  11.2734570  32.4597100  69.2184710  11.9436945
  33.9584097  69.1629795  11.7370567  24.8835322  75.5562518   3.8947085
  25.4688759  74.8106205   4.0274989  24.6860161  75.8666474   4.7783749
  31.8779246  80.6257508   5.5092186  32.4297554  80.7889130   6.2741271
  32.2185440  81.2161946   4.8372211  26.8543739  62.9732658   6.1114070
  26.9185066  63.8347489   5.6991468  26.7910860  62.3606660   5.3786429
  26.3296012  65.0455791   9.7587105  26.9568051  64.6632868  10.3724629
  25.4723931  64.8269993  10.1242797  36.7290120  75.4518766  11.3640840
  37.2730024  76.0648724  10.8695795  36.1476965  76.0098344  11.8807853
  35.0147633  78.5739484   2.4955868  34.8898773  77.7729224   1.9866813
  35.6726724  79.0685677   2.0069838  26.6355802  64.9288216   1.6733008
  25.9142387  65.5424184   1.5340481  27.4249057  65.4645981   1.5949654
  37.0782542  76.3748504   4.1235418  36.1312877  76.2553855   4.0513745
  37.4265315  75.4871002   4.2061679  29.4382115  62.2642643   7.9473660
  29.9616517  62.5104940   8.7099969  29.2194448  63.0962678   7.5276797
  34.0828975  76.1701220   0.3239770  33.9353937  75.2417928   0.5047340
  34.9082469  76.1921311  -0.1603155  27.9491219  64.8219287  -3.8179738
  28.2887292  65.3505209  -4.5401129  28.3963340  65.1599693  -3.0421171
  37.6863097  76.9929779   1.4104643  38.6109644  76.7872640   1.2729094
  37.5178400  76.7446180   2.3193984  30.6434660  63.2056338   5.6323330
  30.3031480  62.4064151   6.0344010  29.9373666  63.5058049   5.0600164
  31.2951132  60.2905650   4.0850653  32.1177201  59.8166129   3.9629544
  31.5389195  61.0696134   4.5849340  29.9359366  63.3193909  -5.6186445
  30.6567729  63.6975162  -6.1222728  29.3124671  64.0382786  -5.5151467
  34.0790489  64.0239058  -4.6828113  34.2954104  64.9063696  -4.9839284
  33.5984556  63.6325271  -5.4122471  28.8189711  66.9824771   1.8942632
  28.6734291  67.2965074   2.7866914  28.3414914  67.6009671   1.3413531
  30.6786094  63.9727319   1.9423522  30.6647662  63.0768412   1.6055820
  31.3958522  63.9797983   2.5761808  32.5312224  64.4064659   3.9876649
  32.2730002  65.3281730   3.9860979  31.9997265  64.0095094   4.6777113
  37.4758413  77.5115446  -3.2333266  37.6495291  76.9461869  -3.9859413
  37.9687304  78.3116341  -3.4153776  23.2935373  69.5230116   4.8330293
  22.7488841  70.2989923   4.9650568  24.1714723  69.8700920   4.6749415
  30.0822990  62.8541699  -2.7888908  30.2038901  61.9258346  -2.5898021
  29.7925032  62.8680385  -3.7010593  32.9514180  60.5396610   0.3477812
  32.9735877  60.6035943  -0.6070209  33.3682239  59.7001118   0.5418318
  43.3297804  70.2751869  -1.6142966  43.7728950  69.5259195  -2.0123843
  42.4524315  70.2662006  -1.9969234  24.0801395  68.6500012   7.7260450
  23.3383131  68.7982647   8.3125081  23.7594139  68.9108277   6.8627200
  40.3625009  74.2781916  -4.6049037  40.8876333  74.6169189  -5.3299716
  40.2747361  73.3428932  -4.7885902  32.0245057  78.1915990   7.5240840
  32.3332184  77.9465137   8.3963540  32.8220539  78.3962628   7.0359710
  32.0465669  80.3453900  -0.2453783  31.6070660  79.8530278   0.4479073
  32.7973786  79.8026867  -0.4861708  29.4939542  75.8891909   1.8268518
  28.8719551  75.2262614   1.5270746  30.1644408  75.9153041   1.1442166
  29.5664069  64.3673697  11.4201024  29.6152225  65.2435820  11.0378794
  30.1086583  63.8251090  10.8472668  40.0518915  74.9114820  10.7002161
  39.2614458  74.8938959  10.1606661  39.8152269  75.4503114  11.4551198
  40.1716790  71.7607286   8.0134890  40.2214795  71.5957294   8.9550413
  40.0630713  70.8934545   7.6232771  37.4620552  67.7438214   9.3294197
  38.3630415  67.6044679   9.0378194  37.5368527  67.9092669  10.2692374
  31.7963357  65.1205069   8.1747383  30.9266667  65.4138635   7.9029972
  32.0322838  65.7045514   8.8954647  41.6734987  74.1804228   8.2576912
  41.3819795  74.5434208   9.0940372  41.0607118  73.4671236   8.0790244
  42.8730669  71.7457108   0.7779482  43.7077560  72.1846912   0.9417042
  43.0089798  71.2695761  -0.0412272  39.9222175  69.3036843   6.7256970
  40.3976296  69.4964489   5.9175821  38.9987740  69.3596028   6.4800353
  34.5002391  61.3384686   5.6912803  35.0184335  62.0745713   5.3659292
  34.1457524  61.6448679   6.5259563  34.7514985  57.7584969   1.2113700
  35.0316739  57.0908158   1.8374127  35.5365592  57.9514064   0.6988364
  38.6223844  66.1802603   4.9585275  39.5741267  66.2800700   4.9797499
  38.4527294  65.3880871   5.4683359  36.6438223  63.2658186   5.1444676
  36.0488155  63.5463199   4.4491165  36.3587920  63.7552087   5.9161417
  41.1011922  69.4008722   4.0727575  41.0688242  68.4624723   4.2587259
  41.7112545  69.4792759   3.3393400  41.2506410  66.1919766   4.1185858
  40.7345459  65.4078222   3.9315787  42.1346359  65.8638482   4.2832377
  38.9117137  59.9360781   0.0781671  38.7141958  59.6275869   0.9625003
  39.5216843  60.6622420   0.2079600  46.9188471  70.4624729   3.2133612
  47.6491860  70.2010017   3.7741315  46.3095417  69.7253451   3.2535680
  45.0003769  68.6032592   3.8108063  44.2736932  68.4688557   3.2024554
  44.5851055  68.9109420   4.6164781  32.8233945  72.3222521  11.5755436
  33.7436954  72.5001120  11.7695482  32.7883528  71.3778567  11.4235135
  22.0416110  67.5161115   0.5008710  21.7218894  66.6626423   0.2083084
  21.4949538  67.7309693   1.2566678  25.8196018  70.2323556   4.2178217
  26.0382027  71.1640664   4.2366251  26.2321791  69.8731530   5.0033021
  32.7400235  60.7391641  -3.7946095  31.9300964  60.3938726  -3.4190849
  33.4284652  60.4299185  -3.2058483  34.6690784  59.8169688  -2.1721798
  35.2221822  60.2365142  -1.5131775  34.9060870  58.8905436  -2.1298842
  30.6923883  65.8056762  13.6080966  30.5920610  66.7551119  13.5393057
  30.4745425  65.4775001  12.7357036  38.0469591  61.9270213  -2.6643134
  37.4668260  62.5855017  -3.0465081  37.7805523  61.1047558  -3.0755716
  36.4973157  61.3275271  -0.4621813  36.9972935  61.4391806  -1.2707495
  37.1408765  61.0236324   0.1778995  30.5555153  69.2353901  12.4246028
  30.0722235  70.0354261  12.6309917  30.6416092  69.2461846  11.4713472
  26.4828490  73.1258435   4.4614461  27.4371744  73.0942378   4.3944393
  26.2841014  72.6649059   5.2764687  27.0727873  71.6959551   7.0285259
  27.8920762  72.1903630   7.0520096  27.3464680  70.7791520   7.0002826
  36.8294469  64.0870304  -3.6086785  35.9420324  64.3719954  -3.8266591
  37.2448458  63.9264067  -4.4559509  40.1809005  64.1116825   0.1067554
  40.9569395  64.6013277   0.3792171  39.4557139  64.5374879   0.5639423
  42.6181564  64.8244444   1.1641494  43.2126054  64.5840180   0.4534803
  42.6908147  64.1051575   1.7915031  36.8035493  69.6024840  -3.3936495
  36.7470694  70.0593391  -4.2328863  37.3563835  68.8415524  -3.5713653
  40.6140298  65.3914572  -2.5686376  40.3577233  64.9911207  -1.7378168
  39.9893166  66.1058365  -2.6936237  44.9252636  68.1310645  -0.0615084
  44.3652194  68.2003834   0.7116478  44.3196140  67.9551629  -0.7815588
  37.5370272  70.7929621  -6.0983966  37.4819076  70.6273892  -7.0395522
  36.9116327  71.5005654  -5.9421776  22.3262787  66.0297685   7.7277456
  22.9721650  65.5196639   8.2164681  22.1179938  66.7666367   8.3020881
  34.8516179  73.0978533  13.2269597  35.7207339  73.2719185  12.8656232
  34.3722930  73.9172950  13.1045326  29.0202359  80.2175634   4.9059030
  29.9229606  80.2499244   5.2225525  28.7939729  79.2876085   4.9205366
  30.7755961  78.9706620   1.5669109  29.8251592  78.9708482   1.4533481
  31.0788447  78.2239355   1.0505144  34.6618517  56.8880507  -2.2652711
  33.8950913  56.3338993  -2.1196029  35.0729222  56.9602375  -1.4038559
  26.6660278  63.1765302  11.8252470  27.5291739  62.8202107  12.0355795
  26.0925688  62.8379197  12.5127875  43.3198361  84.7594587   2.5676396
  42.9816873  84.6435652   1.6796931  44.1888129  84.3585752   2.5477402
  43.8018144  85.9129439   8.5262601  43.7906785  85.5182237   7.6543105
  43.9638783  85.1795511   9.1196373  36.7249609  88.1081255   1.3957507
  37.5170901  87.7672079   0.9803807  36.9646259  88.2176230   2.3159661
  40.5225405  88.6966550   7.4741785  40.2315271  89.6012181   7.3588452
  41.1582390  88.7383078   8.1885855  41.4481612  86.0743399   4.0643145
  42.0445184  85.8499421   3.3500108  41.5056584  85.3328144   4.6668593
  48.9883771  76.1815420   5.0695666  48.6567095  77.0510831   4.8456881
  48.3929384  75.8651704   5.7489697  38.9327772  84.8341763   0.5028284
  38.0078268  84.7017977   0.7105975  39.1812185  85.6135982   0.9998226
  48.8812434  80.9010506   2.1489016  47.9729311  80.8325914   1.8547777
  48.8300030  81.3782451   2.9770842  36.2936583  84.4775036   1.3372073
  36.4228964  84.7309515   2.2511484  35.6134034  85.0702744   1.0176728
  42.9553300  82.3200152  10.0923914  42.1786634  82.8794072  10.0826778
  43.5943863  82.8056935  10.6138784  50.7474080  79.1026944   3.9266890
  50.1048461  79.3959478   3.2806685  50.2429009  78.9879865   4.7320087
  41.2099672  85.1285605   9.6541881  41.9514356  85.6670649   9.3776704
  40.5036658  85.7551894   9.8113433  46.6855012  87.2714745   8.2514042
  47.0938368  86.8297156   7.5068675  45.9632273  86.6967373   8.5048235
  43.0386082  82.2087352   5.6247599  43.8847277  82.6326766   5.7682248
  42.9784719  81.5520977   6.3186162  46.1885527  79.8691721   7.2828773
  45.9446459  80.6233781   6.7463049  46.4645458  80.2477068   8.1176020
  48.1423990  86.4130333   5.9606038  48.3540885  87.0562093   5.2840419
  48.0953738  85.5792650   5.4927968  45.7450219  79.0248154   2.8642611
  44.8834698  79.3229407   3.1559348  45.7712654  79.2418553   1.9323643
  39.9461036  82.2825253  10.4557191  39.3159696  82.9641534  10.6892588
  39.8397124  82.1708335   9.5110329  35.2406008  81.9497049   1.3823115
  34.4505062  82.2054578   0.9063226  35.7317256  82.7645387   1.4875155
  43.0226421  88.8386332   6.2889106  43.0870854  89.3006739   7.1247278
  42.3137345  88.2083697   6.4171416  33.5243711  82.2027540   3.8138106
  33.7751750  83.0874550   4.0795682  34.0603260  82.0232141   3.0413198
  39.2241779  76.5846019  12.8182442  38.8308724  76.0312218  13.4930086
  40.0407919  76.8956597  13.2088959  42.1409740  78.0003898  10.4102698
  42.8819453  78.6011051  10.3307161  42.3727662  77.2581536   9.8520741
  37.2851078  83.1860265   8.6880928  37.1704593  82.2845523   8.9888027
  36.4295595  83.4323962   8.3365745  44.3642915  91.1278006  10.2868429
  43.9206770  90.3414384   9.9689333  45.0260129  91.3157156   9.6212319
  46.4624153  91.4080806   8.3149830  46.4442629  92.2289687   7.8230099
  47.3844073  91.2834881   8.5399971  42.9197208  88.9224935   9.1573338
  43.4525544  88.1613223   8.9272646  42.3911289  88.6298587   9.8997493
  46.0866903  74.0285001   4.6866980  45.7431172  74.9186643   4.6106091
  46.4545865  73.8386659   3.8236565  45.1663443  76.3989656   2.6516213
  44.6628238  76.3619791   1.8384019  45.4594050  77.3082399   2.7112870
  41.4106329  76.4828386   1.6582395  42.2759326  76.2871195   1.2988285
  41.4783838  76.2538738   2.5851752  39.0168648  78.7130594  -0.9701238
  39.5912400  78.4905775  -1.7028045  39.6039630  78.7819288  -0.2172637
  41.3191316  75.5871843  -2.2426169  40.6655728  75.2720860  -2.8669554
  41.2771790  74.9647583  -1.5166346  44.5529056  82.0753776   2.0821479
  43.6351617  82.2968723   1.9243167  44.9689200  82.1500087   1.2233186
  47.8854568  73.2878560  -0.2115282  48.1913445  72.4275924  -0.4989367
  48.6107173  73.8796180  -0.4116288  42.1575648  83.5832353   0.2960909
  42.2124258  82.6306190   0.2203385  41.3466850  83.7391792   0.7802207
  45.6942220  82.6651238   6.8866182  46.0491607  82.8922711   7.7460647
  46.3414351  82.9969614   6.2643437  39.5882083  79.7727769   3.6712523
  40.2281462  79.6316528   2.9735486  38.7559613  79.4862282   3.2951125
  36.5910699  79.7428094  -1.5514491  36.8517516  80.6573427  -1.6605330
  37.4127871  79.2752536  -1.4017878  38.0635624  81.1565851   5.6184334
  38.7358678  80.9483213   4.9696983  37.2365411  80.9587937   5.1789566
  43.9661196  77.7827792   7.6349995  43.3189111  78.4817741   7.5414471
  44.7362212  78.2163936   8.0026243  47.3739994  88.0476644  10.7100548
  47.2225501  87.8187196   9.7930632  47.3644674  89.0047245  10.7231893
  44.1425331  85.6208557   5.6946815  45.0717391  85.7719716   5.5215782
  43.7216361  85.7092577   4.8395461  38.4663122  84.4308454   6.3786771
  38.3282920  83.6988693   6.9798310  39.3768045  84.3417354   6.0970959
  41.0945422  84.1428413   5.8670451  41.8045041  83.5021605   5.8257069
  41.0514730  84.3941308   6.7896632  49.0832201  91.0795766   8.7877030
  49.0244747  90.3954987   8.1207613  49.4851719  91.8214756   8.3357656
  39.8074356  81.1293631   7.6866090  39.2711713  80.6784369   8.3387687
  39.2191065  81.2639540   6.9436555  49.0849608  89.0435350   7.0191010
  48.1976387  88.7061272   7.1417409  49.6548159  88.3118382   7.2559775
  35.5413477  80.2649639   4.7719085  35.4571666  79.6575308   4.0369495
  34.7196184  80.7558657   4.7728581  45.7137191  78.7503202   0.1389280
  46.2105891  77.9973164  -0.1809650  44.9424173  78.7867519  -0.4267511
  42.2972160  80.8920585  -0.1339036  41.9269948  80.3391626   0.5541870
  42.7931253  80.2878719  -0.6864036  40.1261359  91.3518080   6.9615982
  40.8270818  91.9854563   7.1145377  39.6556474  91.6932812   6.2011622
  48.1556186  75.7172796   2.2868639  47.2419266  75.9477022   2.4550846
  48.5849288  75.8011240   3.1382671  47.9262645  83.9062688   4.7868533
  47.2734095  84.1538595   4.1320985  48.3043025  83.0926826   4.4531010
  43.9750218  84.6482499  11.2734570  43.2990855  84.5476628  11.9436945
  44.7977852  84.4921712  11.7370567  35.7229077  90.8854435   3.8947085
  36.3082514  90.1398123   4.0274989  35.5253915  91.1958392   4.7783749
  37.6937494  78.3024576   6.1114070  37.7578820  79.1639407   5.6991468
  37.6304614  77.6898578   5.3786429  37.1689766  80.3747708   9.7587105
  37.7961805  79.9924786  10.3724629  36.3117685  80.1561910  10.1242797
  47.5683875  90.7810684  11.3640840  48.1123779  91.3940642  10.8695795
  46.9870720  91.3390262  11.8807853  37.4749556  80.2580134   1.6733008
  36.7536142  80.8716102   1.5340481  38.2642812  80.7937899   1.5949654
  40.2775870  77.5934561   7.9473660  40.8010271  77.8396857   8.7099969
  40.0588203  78.4254595   7.5276797  41.4828415  78.5348256   5.6323330
  41.1425235  77.7356069   6.0344010  40.7767421  78.8349967   5.0600164
  42.1344886  75.6197568   4.0850653  42.9570956  75.1458046   3.9629544
  42.3782950  76.3988052   4.5849340  39.6583465  82.3116689   1.8942632
  39.5128046  82.6256992   2.7866914  39.1808669  82.9301589   1.3413531
  41.5179848  79.3019237   1.9423522  41.5041417  78.4060330   1.6055820
  42.2352276  79.3089901   2.5761808  43.3705979  79.7356577   3.9876649
  43.1123757  80.6573648   3.9860979  42.8391019  79.3387012   4.6777113
  34.1329127  84.8522033   4.8330293  33.5882595  85.6281841   4.9650568
  35.0108477  85.1992838   4.6749415  43.7907934  75.8688528   0.3477812
  43.8129631  75.9327861  -0.6070209  44.2075993  75.0293036   0.5418318
  34.9195149  83.9791929   7.7260450  34.1776885  84.1274565   8.3125081
  34.5987894  84.2400195   6.8627200  42.8638812  93.5207908   7.5240840
  43.1725938  93.2757054   8.3963540  43.6614294  93.7254546   7.0359710
  40.4057824  79.6965614  11.4201024  40.4545979  80.5727737  11.0378794
  40.9480338  79.1543007  10.8472668  50.8912669  90.2406738  10.7002161
  50.1008213  90.2230877  10.1606661  50.6546024  90.7795031  11.4551198
  51.0110544  87.0899204   8.0134890  51.0608549  86.9249212   8.9550413
  50.9024468  86.2226463   7.6232771  48.3014307  83.0730132   9.3294197
  49.2024169  82.9336597   9.0378194  48.3762281  83.2384587  10.2692374
  42.6357112  80.4496987   8.1747383  41.7660421  80.7430553   7.9029972
  42.8716592  81.0337432   8.8954647  52.5128741  89.5096146   8.2576912
  52.2213549  89.8726126   9.0940372  51.9000872  88.7963154   8.0790244
  50.7615929  84.6328760   6.7256970  51.2370051  84.8256407   5.9175821
  49.8381495  84.6887946   6.4800353  45.3396146  76.6676604   5.6912803
  45.8578090  77.4037631   5.3659292  44.9851279  76.9740597   6.5259563
  45.5908740  73.0876886   1.2113700  45.8710494  72.4200075   1.8374127
  46.3759347  73.2805982   0.6988364  49.4617598  81.5094520   4.9585275
  50.4135021  81.6092618   4.9797499  49.2921049  80.7172789   5.4683359
  47.4831978  78.5950104   5.1444676  46.8881910  78.8755116   4.4491165
  47.1981675  79.0844004   5.9161417  52.0900165  81.5211683   4.1185858
  51.5739213  80.7370140   3.9315787  52.9740113  81.1930400   4.2832377
  49.7510892  75.2652699   0.0781671  49.5535713  74.9567787   0.9625003
  50.3610597  75.9914338   0.2079600  43.6627700  87.6514439  11.5755436
  44.5830709  87.8293038  11.7695482  43.6277283  86.7070484  11.4235135
  32.8809865  82.8453033   0.5008710  32.5612649  81.9918341   0.2083084
  32.3343293  83.0601611   1.2566678  36.6589772  85.5615474   4.2178217
  36.8775782  86.4932582   4.2366251  37.0715546  85.2023448   5.0033021
  45.5084538  75.1461606  -2.1721798  46.0615577  75.5657059  -1.5131775
  45.7454625  74.2197354  -2.1298842  41.5317637  81.1348680  13.6080966
  41.4314364  82.0843036  13.5393057  41.3139179  80.8066918  12.7357036
  47.3366912  76.6567189  -0.4621813  47.8366690  76.7683723  -1.2707495
  47.9802520  76.3528242   0.1778995  41.3948907  84.5645818  12.4246028
  40.9115989  85.3646178  12.6309917  41.4809846  84.5753763  11.4713472
  37.3222245  88.4550353   4.4614461  38.2765498  88.4234295   4.3944393
  37.1234769  87.9940977   5.2764687  37.9121627  87.0251469   7.0285259
  38.7314516  87.5195548   7.0520096  38.1858435  86.1083437   7.0002826
  33.1656541  81.3589603   7.7277456  33.8115405  80.8488557   8.2164681
  32.9573692  82.0958285   8.3020881  45.6909934  88.4270450  13.2269597
  46.5601093  88.6011103  12.8656232  45.2116685  89.2464867  13.1045326
  45.5012271  72.2172424  -2.2652711  44.7344667  71.6630911  -2.1196029
  45.9122976  72.2894293  -1.4038559  37.5054032  78.5057220  11.8252470
  38.3685494  78.1494025  12.0355795  36.9319443  78.1671115  12.5127875
  50.0635533  91.9137937  12.8182442  49.6702479  91.3604135  13.4930086
  50.8801673  92.2248515  13.2088959  48.0083521  95.7039626   9.7587105
  48.6355560  95.3216703  10.3724629  47.1511440  95.4853828  10.1242797
  52.3711392  96.4640597  13.6080966  52.2708119  97.4134954  13.5393057
  52.1532934  96.1358836  12.7357036  48.3447787  93.8349138  11.8252470
  49.2079248  93.4785943  12.0355795  47.7713197  93.4963033  12.5127875
  36.7290122  52.4580889  -1.9113853  37.2730026  53.0710847  -2.4058898
  36.1476966  53.0160467  -1.3946840  40.0518916  51.9176943  -2.5752532
  39.2614460  51.9001081  -3.1148032  39.8152271  52.4565236  -1.8203495
  34.8516180  50.1040655  -0.0485097  35.7207340  50.2781308  -0.4098462
  34.3722932  50.9235072  -0.1709367  43.8018145  62.9191561  -4.7492092
  43.7906786  62.5244359  -5.6211588  43.9638785  62.1857634  -4.1558320
  40.5225406  65.7028673  -5.8012908  40.2315272  66.6074304  -5.9166242
  41.1582391  65.7445201  -5.0868838  41.4481613  63.0805521  -9.2111548
  42.0445186  62.8561544  -9.9254585  41.5056585  62.3390267  -8.6086100
  48.9883772  53.1877542  -8.2059027  48.6567097  54.0572953  -8.4297812
  48.3929385  52.8713826  -7.5264997  42.9553301  59.3262274  -3.1830780
  42.1786635  59.8856194  -3.1927915  43.5943864  59.8119057  -2.6615909
  50.7474082  56.1089067  -9.3487803  50.1048462  56.4021600  -9.9948008
  50.2429010  55.9941987  -8.5434606  41.2099673  62.1347728  -3.6212813
  41.9514358  62.6732772  -3.8977989  40.5036659  62.7614016  -3.4641261
  46.6855013  64.2776868  -5.0240651  47.0938369  63.8359279  -5.7686019
  45.9632275  63.7029496  -4.7706458  43.0386083  59.2149475  -7.6507094
  43.8847278  59.6388888  -7.5072445  42.9784721  58.5583099  -6.9568531
  46.1885528  56.8753843  -5.9925921  45.9446460  57.6295904  -6.5291645
  46.4645459  57.2539191  -5.1578673  48.1423991  63.4192456  -7.3148655
  48.3540886  64.0624215  -7.9914274  48.0953739  62.5854772  -7.7826725
  39.9461037  59.2887376  -2.8197503  39.3159698  59.9703657  -2.5862106
  39.8397125  59.1770457  -3.7644364  43.0226423  65.8448454  -6.9865587
  43.0870855  66.3068862  -6.1507415  42.3137346  65.2145819  -6.8583277
  39.2241780  53.5908142  -0.4572252  38.8308725  53.0374340   0.2175393
  40.0407920  53.9018720  -0.0665734  42.1409741  55.0066021  -2.8651995
  42.8819454  55.6073174  -2.9447533  42.3727664  54.2643659  -3.4233952
  37.2851079  60.1922388  -4.5873765  37.1704594  59.2907645  -4.2866666
  36.4295597  60.4386085  -4.9388949  44.3642917  68.1340128  -2.9886265
  43.9206771  67.3476507  -3.3065360  45.0260130  68.3219279  -3.6542374
  46.4624155  68.4142928  -4.9604863  46.4442630  69.2351809  -5.4524594
  47.3844075  68.2897003  -4.7354722  42.9197209  65.9287058  -4.1181355
  43.4525546  65.1675346  -4.3482047  42.3911290  65.6360710  -3.3757201
  45.6942221  59.6713360  -6.3888512  46.0491609  59.8984833  -5.5294046
  46.3414352  60.0031737  -7.0111256  43.9661198  54.7889914  -5.6404699
  43.3189113  55.4879864  -5.7340222  44.7362213  55.2226058  -5.2728450
  47.3739996  65.0538766  -2.5654145  47.2225502  64.8249318  -3.4824062
  47.3644675  66.0109368  -2.5522800  44.1425332  62.6270679  -7.5807879
  45.0717392  62.7781839  -7.7538911  43.7216362  62.7154700  -8.4359232
  38.4663123  61.4370576  -6.8967922  38.3282921  60.7050815  -6.2956383
  39.3768046  61.3479476  -7.1783734  41.0945424  61.1490536  -7.4084243
  41.8045042  60.5083728  -7.4497624  41.0514732  61.4003430  -6.4858062
  49.0832202  68.0857889  -4.4877663  49.0244748  67.4017109  -5.1547080
  49.4851721  68.8276879  -4.9397037  39.8074358  58.1355754  -5.5888603
  39.2711715  57.6846492  -4.9367007  39.2191066  58.2701662  -6.3318139
  49.0849609  66.0497473  -6.2563684  48.1976388  65.7123395  -6.1337285
  49.6548161  65.3180504  -6.0194918  40.1261360  68.3580203  -6.3138711
  40.8270819  68.9916686  -6.1609317  39.6556475  68.6994934  -7.0743072
  47.9262646  60.9124810  -8.4886161  47.2734096  61.1600718  -9.1433708
  48.3043026  60.0988948  -8.8223683  43.9750219  61.6544621  -2.0020124
  43.2990856  61.5538751  -1.3317748  44.7977853  61.4983835  -1.5384126
  35.7229078  67.8916558  -9.3807608  36.3082515  67.1460246  -9.2479704
  35.5253916  68.2020515  -8.4970944  37.1689768  57.3809831  -3.5167589
  37.7961806  56.9986908  -2.9030064  36.3117686  57.1624033  -3.1511896
  47.5683876  67.7872806  -1.9113853  48.1123780  68.4002764  -2.4058898
  46.9870721  68.3452385  -1.3946840  40.2775871  54.5996683  -5.3281033
  40.8010273  54.8458980  -4.5654724  40.0588204  55.4316718  -5.7477896
  34.9195150  60.9854052  -5.5494243  34.1776887  61.1336687  -4.9629613
  34.5987895  61.2462318  -6.4127494  42.8638813  70.5270030  -5.7513853
  43.1725940  70.2819177  -4.8791154  43.6614295  70.7316669  -6.2394983
  40.4057825  56.7027737  -1.8553669  40.4545980  57.5789860  -2.2375899
  40.9480339  56.1605130  -2.4282026  50.8912670  67.2468860  -2.5752532
  50.1008214  67.2292999  -3.1148032  50.6546025  67.7857154  -1.8203495
  51.0110546  64.0961327  -5.2619803  51.0608550  63.9311334  -4.3204281
  50.9024469  63.2288586  -5.6521923  48.3014308  60.0792255  -3.9460497
  49.2024171  59.9398720  -4.2376499  48.3762282  60.2446710  -3.0062319
  42.6357113  57.4559109  -5.1007310  41.7660423  57.7492676  -5.3724722
  42.8716594  58.0399554  -4.3800047  52.5128742  66.5158268  -5.0177782
  52.2213551  66.8788249  -4.1814321  51.9000874  65.8025276  -5.1964450
  50.7615931  61.6390883  -6.5497724  51.2370052  61.8318529  -7.3578872
  49.8381496  61.6950069  -6.7954340  45.3396147  53.6738726  -7.5841890
  45.8578091  54.4099753  -7.9095401  44.9851280  53.9802720  -6.7495131
  49.4617600  58.5156643  -8.3169418  50.4135022  58.6154741  -8.2957194
  49.2921050  57.7234911  -7.8071334  47.4831979  55.6012226  -8.1310017
  46.8881911  55.8817239  -8.8263529  47.1981676  56.0906127  -7.3593276
  52.0900166  58.5273806  -9.1568835  51.5739215  57.7432263  -9.3438907
  52.9740114  58.1992523  -8.9922316  43.6627701  64.6576562  -1.6999258
  44.5830710  64.8355161  -1.5059211  43.6277284  63.7132607  -1.8519558
  36.6589773  62.5677596  -9.0576476  36.8775783  63.4994704  -9.0388443
  37.0715547  62.2085571  -8.2721673  41.5317639  58.1410802   0.3326273
  41.4314366  59.0905159   0.2638364  41.3139181  57.8129041  -0.5397657
  41.3948909  61.5707941  -0.8508666  40.9115990  62.3708301  -0.6444777
  41.4809848  61.5815886  -1.8041222  37.3222246  65.4612476  -8.8140232
  38.2765500  65.4296418  -8.8810300  37.1234770  65.0003099  -7.9990006
  37.9121628  64.0313592  -6.2469434  38.7314517  64.5257670  -6.2234597
  38.1858436  63.1145560  -6.2751867  45.6909935  65.4332573  -0.0485097
  46.5601094  65.6073225  -0.4098462  45.2116686  66.2526990  -0.1709367
  37.5054034  55.5119343  -1.4502223  38.3685495  55.1556147  -1.2398899
  36.9319444  55.1733237  -0.7626819  50.0635534  68.9200059  -0.4572252
  49.6702480  68.3666258   0.2175393  50.8801675  69.2310638  -0.0665734
  48.0083522  72.7101749  -3.5167589  48.6355561  72.3278826  -2.9030064
  47.1511441  72.4915951  -3.1511896  52.3711393  73.4702720   0.3326273
  52.2708120  74.4197077   0.2638364  52.1532935  73.1420959  -0.5397657
  48.3447788  70.8411260  -1.4502223  49.2079250  70.4848065  -1.2398899
  47.7713199  70.5025155  -0.7626819
 108.7406170 108.7406170 108.7406170 109.4712190 109.4712190 109.4712190
