default_name
 90129
  77.4466421  48.6553662  29.2433862  77.7462937  48.1752471  30.0799240
  76.8353200  49.4150833  29.5064748  78.2548914  48.8347065  28.6648797
  76.5965248  47.7216847  28.4533169  75.6019519  48.1493620  28.3267620
  77.2052797  47.4733107  27.0628922  77.6761028  48.4000242  26.7348266
  77.9588002  46.6889389  27.1340808  76.1674836  47.0594839  26.0241832
  75.4134564  46.1005550  26.2170697  76.1401033  47.7740612  24.9056937
  75.4740741  47.5469911  24.1811635  76.7854272  48.5414934  24.7844267
  76.3442734  46.4007958  29.1909622  75.2165098  46.1299179  29.5955367
  77.3943946  45.6020266  29.3918734  78.3164433  45.9150888  29.1236991
  77.2509825  44.2462374  29.9391271  76.2282072  43.8973707  29.7965722
  78.2047429  43.2740810  29.2285821  79.2000319  43.4740231  29.6254727
  77.8934642  42.2704694  29.5183565  78.2343201  43.3775959  27.7047094
  77.9344589  44.3887984  27.4296574  79.2578833  43.2002472  27.3746066
  77.3062214  42.3750723  27.0377241  77.4922429  41.3879975  27.4610187
  76.2743989  42.6658395  27.2349451  77.5437295  42.3350239  25.5319167
  77.1319293  43.2479056  25.1016050  78.6199301  42.3068785  25.3613320
  76.9072895  41.1505521  24.8866341  75.9100007  41.1766701  25.0442173
  77.0918542  41.1683673  23.8938005  77.2890442  40.3045472  25.2849281
  77.4975045  44.1861122  31.4460408  78.5187394  44.6742163  31.9340280
  76.5630695  43.5723298  32.1743598  75.7073423  43.2783048  31.7256065
  76.6912772  43.3777199  33.6232683  77.7278471  43.1528801  33.8744040
  76.2675234  44.6456342  34.3781670  76.4459251  44.5288362  35.4471059
  76.8209041  45.5096419  34.0102533  74.5181104  45.0603918  34.2047338
  74.5586896  46.1534052  34.9614195  75.8889695  42.1665212  34.1103299
  75.2344343  41.4821154  33.3169004  75.9439572  41.8995828  35.4130453
  76.5605575  42.4289611  36.0127636  75.1893986  40.7951030  35.9981074
  75.1444354  39.9673665  35.2903435  75.8546108  40.3015166  37.2871591
  75.9578021  41.1596162  37.9513246  75.1988662  39.5628005  37.7480252
  77.2254789  39.6811471  37.0422665  77.3414382  38.8078682  36.1578976
  78.1848536  40.0625857  37.7427832  73.7298370  41.1766258  36.2630663
  72.8155475  40.4466063  35.8750824  73.5223242  42.3138355  36.9282035
  74.3111444  42.8672419  37.2308640  72.1739950  42.7755631  37.2768494
  71.4165597  42.2887300  36.6625331  71.8311648  42.5300594  38.7783900
  72.5060676  43.1238571  39.3948394  70.3786760  42.9294614  39.0791163
  69.7031153  42.3357189  38.4633334  70.1624028  42.7494562  40.1321711
  70.2383888  43.9870210  38.8555346  72.0722074  41.0705156  39.1809833
  73.1204565  40.8175709  39.0219394  71.8225402  40.9374469  40.2336269
  71.4452446  40.4173594  38.5740191  72.0176566  44.2637656  36.9732151
  72.8740865  45.0696180  37.3442392  70.9315760  44.6067436  36.2816488
  70.3876904  43.8813541  35.8365669  70.5076324  45.9949571  36.1096835
  71.3374827  46.6762737  36.2974481  69.9493903  46.2717488  34.6806873
  69.2930162  45.4482378  34.3994369  69.1692223  47.5830537  34.6326501
  69.8251045  48.4071449  34.9133512  68.7936290  47.7461753  33.6224909
  68.3310936  47.5334559  35.3277630  71.0738231  46.3122613  33.6529566
  71.5941296  45.3544934  33.6449600  70.6568057  46.5068757  32.6648668
  71.7759639  47.1044330  33.9128859  69.4367685  46.2876665  37.1600984
  68.4548323  45.5500084  37.2745841  69.6460746  47.3483855  37.9353501
  70.5292759  47.8368441  37.8971013  68.6357185  47.8159860  38.8834964
  67.8468768  47.0739823  39.0070214  69.2432786  48.1276091  40.2720859
  70.0302579  48.8722324  40.1525075  68.1783091  48.6626318  41.2215130
  67.3911643  47.9183224  41.3419600  68.6286920  48.8745768  42.1912217
  67.7521699  49.5782650  40.8114850  69.8989540  46.8786918  40.8757987
  70.6936822  46.5301034  40.2162570  70.3185307  47.1236263  41.8515354
  69.1511078  46.0938407  40.9890932  67.9764554  49.0649920  38.3063941
  68.6543349  50.0596064  38.0380351  66.6599727  49.0065501  38.1172598
  66.1632237  48.1488741  38.3115061  65.9024601  50.1437541  37.5980829
  66.5326463  50.8183847  37.0185675  64.7112328  49.6959439  36.7130554
  64.0364157  49.0853082  37.3129264  63.9524842  50.9115064  36.1692121
  64.6265787  51.5224214  35.5688119  63.1205960  50.5743519  35.5508358
  63.5699032  51.5034628  37.0006693  65.1962065  48.7923454  35.5681732
  65.6794470  47.9076053  35.9826795  64.3450348  48.4888693  34.9586580
  65.9085560  49.3388516  34.9501197  65.3880210  50.9756522  38.7679419
  64.5045504  50.5361112  39.5045431  65.9640084  52.1662258  38.9378328
  66.6895143  52.4647987  38.3017552  65.5808676  53.0656607  40.0219389
  65.4080686  54.0540430  39.5960985  64.6551028  52.6923220  40.4597484
  66.6315812  53.1736599  41.1082782  67.0579366  52.1625280  41.6745691
  67.0495172  54.4064131  41.3901631  66.6679284  55.1798179  40.8644878
  68.0333346  54.6931047  42.4232208  68.4812100  53.7427930  42.7137623
  68.7948146  55.3309035  41.9743777  67.4824889  55.3773216  43.6591995
  68.1098246  56.2930013  44.1985532  66.3053458  54.9380360  44.1064179
  65.7352285  54.3328688  43.5329736  65.8054657  55.3134822  45.4277850
  66.0553231  56.3512846  45.6483218  64.7245237  55.1821940  45.4770530
  66.4601315  54.4164152  46.4643030  67.3418536  53.6140470  46.1334005
  66.0359097  54.5285926  47.7201617  65.3918496  55.2613820  47.9815153
  66.6028784  53.6899292  48.7815641  67.6852119  53.8092371  48.8307482
  65.9823231  54.0115739  50.1715817  64.8989961  54.0669270  50.0646281
  66.3404348  52.9304374  51.2046189  67.4236595  52.8748126  51.3124655
  65.8926279  53.1830048  52.1657534  65.9592418  51.9659979  50.8689891
  66.4526589  55.3963625  50.6386380  67.5117822  55.3126408  50.8822550
  66.3263623  56.0804530  49.7994903  65.6902787  55.9335285  51.8542157
  65.8164964  55.2501555  52.6939600  66.0801093  56.9151627  52.1235217
  64.6310754  56.0179655  51.6111957  66.5176798  52.1949181  48.4597710
  67.4769771  51.4535913  48.6965348  65.3947048  51.7544659  47.8982701
  64.6169779  52.3759408  47.7279496  65.2194523  50.3267647  47.6121374
  65.4650863  49.7447462  48.5004040  63.7721172  50.0182727  47.2087916
  63.0975456  50.5749962  47.8592617  63.6190522  50.3297305  46.1755128
  63.5063400  48.6353202  47.3279216  62.5977011  48.4608886  47.0718965
  66.2026289  49.8150583  46.5487135  66.8591678  48.7794997  46.7465036
  66.3100884  50.5376475  45.4348108  65.7350790  51.3584054  45.3090335
  67.2513457  50.1759477  44.3658366  67.0328068  49.1605264  44.0352925
  67.1170067  50.8655912  43.5325034  68.6970855  50.2432580  44.8362109
  69.5134475  49.3598699  44.5271679  69.0122245  51.2828266  45.6051332
  68.3393946  52.0202755  45.7586531  70.3681983  51.4576145  46.1350108
  71.0931543  51.3084031  45.3348396  70.5587140  52.8628309  46.7119965
  69.8128765  52.9928153  47.4961710  71.5560472  52.8984750  47.1503527
  70.4145615  53.9861506  45.6789172  69.3871038  53.9628455  45.3157528
  70.5950425  54.9281292  46.1968023  71.5505871  53.8536905  44.2665242
  73.0030274  54.5638120  44.9877027  73.3017934  53.9773906  45.8565800
  73.8101539  54.5639928  44.2551404  72.7926963  55.5879103  45.2960609
  70.7415436  50.3699550  47.1491170  71.8701859  49.8721919  47.1297401
  69.8001018  49.9935435  48.0174110  68.9393484  50.5172891  48.0873646
  70.0224349  48.8865297  48.9625193  70.9429460  49.1120755  49.5009314
  68.8738235  48.7809601  49.9768352  67.9468021  48.5464178  49.4536513
  69.0944804  47.9917457  50.6955503  68.7639312  49.7296940  50.5021226
  70.2404210  47.5550617  48.2359328  71.1154063  46.7707481  48.6231380
  69.4661323  47.3167601  47.1759472  68.7325353  47.9702171  46.9415785
  69.6043242  46.1083050  46.3629969  69.5365408  45.2308977  47.0061617
  68.4946701  46.0348383  45.3202297  68.5550681  46.9022354  44.6629061
  68.6084625  45.1247068  44.7313220  67.5259600  46.0249709  45.8198322
  70.9745781  46.0747615  45.6866871  71.6849502  45.0650000  45.7491867
  71.3430103  47.1901120  45.0597893  70.7057806  47.9726528  45.0189540
  72.6161911  47.2961825  44.3518134  72.6521869  46.4988151  43.6095138
  72.7180438  48.6313443  43.6351805  72.6925493  49.4395100  44.3661513
  73.6541606  48.6750274  43.0785140  71.8806250  48.7391006  42.9458203
  73.8058003  47.0946963  45.2927126  74.7571187  46.3889049  44.9543742
  73.7433889  47.7007725  46.4767301  72.9729761  48.3176496  46.6912666
  74.8169121  47.5672838  47.4571432  75.7608522  47.8705161  47.0042343
  74.5595147  48.4448414  48.6866831  74.3991950  49.4647747  48.3372080
  73.6528675  48.0799710  49.1693428  75.7098683  48.4256210  49.6864311
  75.8941867  47.3904357  49.9736920  76.5951774  48.8288402  49.1947561
  75.4017453  49.2455619  50.9232658  75.2959183  50.2917471  50.6362187
  74.4665381  48.8920903  51.3574833  76.5289481  49.1103422  51.9570315
  77.4558715  49.4442945  51.4907812  76.2926751  49.7592985  52.8003167
  76.6928865  47.7045061  52.4408186  76.9122516  47.1030758  51.6596270
  77.4428728  47.6662037  53.1162099  75.8342266  47.3950132  52.8732727
  75.0235766  46.1063885  47.8711523  76.1637526  45.6310293  47.9192072
  73.9269195  45.4038407  48.1632482  73.0246988  45.8577846  48.1575804
  73.9951820  43.9990876  48.5742688  74.6462689  43.9046952  49.4433345
  72.6004751  43.4639000  48.9442227  72.2291834  44.2384160  49.6153163
  71.9972422  43.4506678  48.0364590  72.5086345  42.0970410  49.6396886
  73.3975086  41.9556892  50.2545247  71.2679510  42.0165497  50.5164443
  70.3785866  42.1573567  49.9021942  71.2254116  41.0395719  50.9979062
  71.3096728  42.7949697  51.2782985  72.5280220  40.9341458  48.6502565
  73.4561706  40.9577115  48.0792186  72.4607192  39.9921637  49.1945371
  71.6810356  41.0212771  47.9697264  74.6345426  43.1447418  47.4808146
  75.5143721  42.3224747  47.7598576  74.1905482  43.3454060  46.2431952
  73.4213896  43.9800259  46.0827207  74.7196171  42.5938261  45.1036011
  74.6990646  41.5269848  45.3261465  73.8784425  42.8485301  43.8473892
  73.9121611  43.9352668  43.7701519  74.3742617  42.4077738  42.9825208
  72.4137606  42.3833714  43.8901696  71.9632951  42.7228986  44.8228555
  71.6319127  42.9527688  42.7118194  72.0815383  42.6132773  41.7787164
  70.5981079  42.6109435  42.7618589  71.6562740  44.0417863  42.7511604
  72.2857767  40.8573155  43.9520686  72.7821774  40.4866348  44.8488861
  71.2316474  40.5814505  43.9805497  72.7523569  40.4170166  43.0708542
  76.1989819  42.9105824  44.8574364  77.0046324  42.0033015  44.6263960
  76.5478071  44.1928581  44.9283018  75.8214521  44.8871129  45.0308603
  77.9302305  44.6511116  44.7841515  78.3389611  44.3205819  43.8292753
  77.9734807  46.1823626  44.8316656  77.4953466  46.5759741  43.9346946
  77.4552810  46.5584022  45.7138013  79.3538967  46.7577977  44.8684364
  80.1087001  46.9591107  43.7320126  81.2719988  47.4878186  44.0693106
  82.0168848  47.7203211  43.3082676  81.2964997  47.6405563  45.3810602
  82.0606189  48.0210940  45.9208868  80.1063396  47.1959676  45.9045179
  79.9313825  47.2452749  46.9792550  78.8389066  44.0314199  45.8551188
  79.9181439  43.5083684  45.5412719  78.3835880  44.0650899  47.1077230
  77.5163485  44.5462365  47.2987546  79.1174950  43.4778971  48.2365659
  80.1216461  43.8994843  48.2817753  78.4012357  43.7745070  49.5603639
  77.3508155  43.5122887  49.4340384  78.8439944  43.1393887  50.3276249
  78.5124181  45.2304210  49.9821434  79.3243311  45.9827798  49.3947888
  77.7768296  45.6209348  50.9141539  79.3054406  41.9707436  48.0943270
  80.2572101  41.4027733  48.6424570  78.4019338  41.3301934  47.3532030
  77.6103749  41.8400788  46.9877570  78.4674549  39.8882050  47.1160392
  78.9039444  39.3906185  47.9820553  77.0638164  39.3199364  46.8806272
  76.5932967  39.8709229  46.0663027  77.1515126  38.2691201  46.6045939
  76.2689403  39.4366978  48.0523763  75.3955253  39.0756757  47.8838262
  79.3944517  39.5313903  45.9493370  79.6590138  38.3510431  45.7019479
  79.8756534  40.5482710  45.2348166  79.5579636  41.4875621  45.4269227
  80.8597983  40.3528201  44.1684776  81.5945115  41.1517437  44.2685609
  81.3401466  39.3925557  44.3562461  80.3091372  40.3618152  42.7515423
  81.0205585  40.0154449  41.8038380  79.0470120  40.7546277  42.6023171
  78.4808667  40.9593587  43.4132820  78.4281825  40.8489290  41.2857506
  78.9017471  40.1394697  40.6071467  76.9323052  40.5294424  41.3619450
  76.5665432  41.2878331  42.0541595  76.5191056  40.7138248  40.3702953
  76.4968110  39.1448511  41.8462030  76.9016054  38.9564864  42.8405677
  74.9846721  39.1007445  41.9006856  74.5791333  39.2885752  40.9065242
  74.6614830  38.1182408  42.2446858  74.6230199  39.8636141  42.5901332
  77.0380169  38.0242412  40.9662906  78.1276149  38.0537338  40.9686757
  76.7002464  37.0626991  41.3528770  76.6737949  38.1537239  39.9471363
  78.6332567  42.2300728  40.6847204  78.8119152  43.2092007  41.4094388
  78.6187699  42.2932896  39.3556385  78.5790783  41.4373765  38.8209079
  78.6928211  43.5553221  38.6336971  79.2737423  44.2748721  39.2106526
  79.3662928  43.3620521  37.2722947  78.8753630  42.5341452  36.7607702
  79.2518606  44.2717626  36.6828611  80.8419325  43.0478374  37.3953669
  81.5689474  43.6988062  38.1464448  81.2959261  42.0486336  36.6447395
  82.2724338  41.7939038  36.6853010  80.6621848  41.5489593  36.0374519
  77.2959469  44.1189667  38.4478102  76.4682037  43.5231701  37.7584645
  77.0415183  45.2592288  39.0816970  77.7451657  45.6718822  39.6772613
  75.7234317  45.8922852  39.0238237  75.0467495  45.3431049  38.3691472
  75.0644685  46.0157805  40.4302925  74.0511917  46.4009401  40.3161816
  75.0166718  44.6692280  41.1064508  76.0296868  44.2836078  41.2213360
  74.5537757  44.7711811  42.0879972  74.4319452  43.9779067  40.4995972
  75.7955019  47.0301866  41.3185787  75.7731105  48.0114949  40.8446223
  75.3031790  47.0848977  42.2895187  76.8304765  46.7160948  41.4537628
  75.7625245  47.2572151  38.3457919  76.7838082  47.9570716  38.3785231
  74.6428336  47.6220361  37.7305292  73.9132926  46.9368544  37.5949004
  74.4377884  48.9620948  37.2013599  75.1887189  49.6572587  37.5767924
  74.4821733  48.9744705  35.6466426  73.8340618  48.1789216  35.2790116
  74.0213619  50.3032683  35.0807731  74.6693224  51.0993047  35.4476168
  74.0672723  50.2707421  33.9922260  72.9956959  50.4965210  35.3950407
  75.8977458  48.6592566  35.1497568  76.1969984  47.6732597  35.5052285
  75.9120197  48.6717689  34.0599223  76.5921576  49.4082974  35.5303233
  73.0871640  49.4500732  37.7231491  72.1292332  48.6761590  37.7841349
  73.0305540  50.7165263  38.1255308  73.8802053  51.2595418  38.1832038
  71.7732196  51.3482591  38.5346183  70.9716108  50.6102812  38.5648047
  71.8778879  52.0241152  39.9279230  72.6916480  52.7489521  39.9054469
  70.5692749  52.7362977  40.2920620  69.7550760  52.0119730  40.3151904
  70.6689327  53.2015729  41.2727188  70.3524664  53.5022124  39.5474343
  72.2115191  50.9936373  40.9871409  73.1644183  50.5214857  40.7480633
  72.2819790  51.4810504  41.9595418  71.4285449  50.2359031  41.0169922
  71.3772261  52.3788169  37.4846170  72.1465052  53.2968569  37.1838162
  70.1863392  52.2130967  36.9161636  69.6350322  51.3925158  37.1230620
  69.6731273  53.1612010  35.9344723  70.4774406  53.8215546  35.6102618
  69.1118245  52.4319612  34.7058192  68.2820876  51.8589427  35.1196860
  68.7265884  53.1776332  34.0103577  70.0661534  51.4868316  33.9647089
  70.4425937  50.7404193  34.6641817  69.3382472  50.7892603  32.8204385
  68.9618956  51.5350569  32.1202631  70.0278939  50.1218510  32.3036667
  68.5039573  50.2115915  33.2183828  71.2982880  52.2412772  33.4562120
  71.8285284  52.6827265  34.3000526  71.9591111  51.5490477  32.9344531
  70.9853283  53.0297279  32.7717408  68.6162722  54.0374849  36.5908143
  67.5584542  53.5510287  36.9881384  68.9309302  55.3243105  36.7219947
  69.8078563  55.6575592  36.3477685  68.0733930  56.2747548  37.4317185
  67.1947766  55.7663008  37.8287159  68.8507310  56.8966007  38.6011317
  68.9342863  56.1241693  39.3656363  69.8430090  57.1400584  38.2213781
  68.2167291  58.1482611  39.2088757  68.8521788  58.4909198  40.0255087
  68.1961944  58.9038577  38.4235405  66.8059087  57.9180017  39.7272350
  66.5620769  56.8631381  40.3531056  65.9524488  58.8027590  39.5207221
  67.5704554  57.3626175  36.4916448  68.3698050  58.0235319  35.8209411
  66.2501371  57.5624481  36.4721177  65.6568977  56.9892501  37.0548787
  65.6142535  58.5201004  35.5620539  65.9485354  58.2458322  34.5614881
  64.0848332  58.3915928  35.6209890  63.7341707  58.6717151  36.6143003
  63.6354248  59.0507970  34.8783032  63.7979872  57.3609396  35.4122480
  66.0256638  59.9696834  35.8052833  66.1834988  60.7313092  34.8578662
  66.1755650  60.3445164  37.0759666  66.0840187  59.6614476  37.8142996
  66.4266399  61.7410131  37.4478095  65.9448042  62.4056938  36.7307788
  65.8668274  62.0352434  38.8391558  66.2608221  61.2580701  39.4940367
  66.2790588  63.0005881  39.1328817  64.3458231  62.0753270  38.9557464
  63.9379933  62.9090879  38.3842409  63.9079619  61.1427911  38.5997177
  64.0172520  62.2592463  40.4175688  64.2381828  61.3164209  40.9179374
  64.6782930  63.0367769  40.8004139  62.6338518  62.6332730  40.7120614
  62.3417730  63.5648440  40.4532856  61.7474555  61.8285060  41.2968389
  62.0742238  60.5733423  41.6096720  63.0008175  60.2292602  41.4019905
  61.3935001  59.9730017  42.0527363  60.5289082  62.2764778  41.5684040
  60.2784943  63.2256210  41.3306644  59.8570486  61.6663896  42.0116825
  67.9135326  62.0920181  37.4241496  68.7703306  61.2090337  37.2978928
  68.2089712  63.3833606  37.5645612  67.4685964  64.0673783  37.5008090
  69.5877379  63.8622667  37.7013541  70.2555926  63.2387493  37.1069676
  69.7053401  65.3169245  37.2099292  70.7599852  65.5918517  37.2253557
  69.3393499  65.3400460  36.1834710  68.9081367  66.3086130  38.0572602
  68.2960391  65.9071877  39.0700386  68.9020477  67.5125049  37.7079020
  70.1281460  63.7160461  39.1339743  71.1663667  64.2909614  39.4850699
  69.4268203  62.9354170  39.9513228  68.5982887  62.4809034  39.5948793
  69.7873055  62.7195404  41.3481552  70.8697802  62.7759340  41.4629047
  69.1414980  63.7911532  42.2435527  69.5221957  63.6321860  43.2524620
  69.4823960  64.7588105  41.8754115  67.6083958  63.7643736  42.2659522
  67.2535587  64.0659899  41.2804478  67.2940519  62.7402251  42.4669741
  67.0235124  64.6888753  43.3189047  67.4544307  64.4515745  44.2915797
  67.2529117  65.7232930  43.0630621  65.5696450  64.5371759  43.4003541
  65.0126625  65.1057981  42.7786317  64.9461682  63.6973453  44.2216690
  65.6505358  62.9385870  45.0554496  66.6584842  63.0025530  45.0624086
  65.1745270  62.3016050  45.6781608  63.6185485  63.6278023  44.2193040
  63.0863144  64.2142185  43.5924523  63.1482695  62.9888748  44.8443705
  69.3218071  61.3336182  41.7895532  68.4156118  60.7597763  41.1847075
  69.9443363  60.8068805  42.8444422  70.8129722  61.2045892  43.1721599
  69.4291568  59.6102644  43.5187544  68.7525952  59.0396989  42.8825008
  70.5538215  58.6633198  44.0228756  70.1011516  57.8642690  44.6099931
  71.3301321  58.0570551  42.8483383  71.7835040  58.8555319  42.2609800
  72.1108704  57.3987221  43.2293184  70.6488211  57.4851980  42.2183411
  71.4930134  59.3780160  44.9988485  70.9246185  59.7277563  45.8606553
  72.2671943  58.6864435  45.3312203  71.9566333  60.2292502  44.5002929
  68.5335588  60.0124170  44.6987457  68.5072267  61.1834904  45.0966586
  67.8123716  59.0417288  45.2572718  67.8206940  58.1118016  44.8632344
  66.9912361  59.2850633  46.4485832  67.3305696  58.5837388  47.2108797
  67.2040984  60.3038658  46.7723583  65.4891575  59.1276997  46.2645188
  64.7900106  58.7480386  47.2082555  65.0042693  59.4315339  45.0610263
  65.6370988  59.7923959  44.3614516  63.5911016  59.2666633  44.7019805
  63.4747591  59.5878496  43.6668945  63.3527234  58.2060428  44.7817263
  62.6333427  60.0542749  45.5733648  62.6297126  61.2906378  45.5534980
  61.8322946  59.3281657  46.3501050  61.8216804  58.3243101  46.2393769
  60.8554994  59.9385667  47.2615267  60.4286250  60.8280202  46.7981155
  59.7169966  58.9567715  47.5810415  60.1690396  57.9914237  47.8087695
  59.1973283  59.3311509  48.4630194  58.7176616  58.7938541  46.4304120
  58.2171590  59.7487003  46.2695804  59.2680432  58.5167375  45.5313078
  57.6699337  57.7126260  46.7432938  57.5072381  57.6761176  47.8204642
  56.7353928  57.9677559  46.2436524  58.0988169  56.3884366  46.2884414
  58.9397726  56.3521649  45.7302502  57.4700534  55.2461711  46.5664321
  56.3765850  55.2356381  47.3269917  56.0160837  56.1023400  47.6997741
  55.9129759  54.3609984  47.5274199  57.9301663  54.1039119  46.0713291
  58.7538366  54.1058155  45.4868091  57.4545107  53.2380397  46.2813667
  61.5098687  60.5103136  48.5348186  60.8301846  61.1005813  49.3843000
  62.8242429  60.3286994  48.6645675  63.2961228  59.6169673  48.1252475
  63.6150321  61.1184070  49.6193053  62.9495260  61.6641835  50.2881317
  64.5924779  60.2650484  50.4779674  65.0922166  60.9218428  51.1899945
  63.8534160  59.1655116  51.2332689  63.3537753  58.5080001  50.5218355
  64.5649811  58.5878705  51.8232731  63.1124959  59.6136567  51.8953142
  65.6086859  59.6829204  49.6463597  66.2042929  59.1597115  50.1877515
  64.4080474  62.1702655  48.8539626  64.9391962  61.8956618  47.7728101
  64.4791610  63.3725309  49.4227041  64.0225071  63.5221401  50.3110642
  65.1807374  64.4912550  48.8103841  66.0878482  64.1349694  48.3222142
  64.2957485  65.1719626  47.7619105  64.0836693  64.4368230  46.9855786
  63.3697458  65.4396607  48.2707884  64.9016280  66.4092063  47.1330616
  66.1365579  66.3569335  46.4827250  66.6639260  65.4041461  46.4360497
  66.6965543  67.4929535  45.8998489  67.6637208  67.4431655  45.3996370
  66.0095631  68.6912387  45.9585481  66.5500360  69.8182875  45.3831785
  67.4022120  69.6574033  44.9714603  64.7819632  68.7703248  46.5944514
  64.2471233  69.7188999  46.6419057  64.2311927  67.6307001  47.1749005
  63.2622714  67.6857975  47.6711424  65.5462436  65.4806370  49.8997116
  64.6654619  66.0598567  50.5417375  66.8467647  65.6500262  50.1122537
  67.5126093  65.0840828  49.6058365  67.3532419  66.6028356  51.0904975
  66.5439523  66.9410713  51.7376034  68.4743224  65.9948612  51.9749599
  69.3128764  65.7158970  51.3369110  68.9465880  67.0035452  53.0261187
  68.1086241  67.2826493  53.6648808  69.7323163  66.5547762  53.6338493
  69.3354271  67.8921464  52.5288334  68.0009048  64.8094261  52.6257791
  68.7012106  64.4416433  53.1697533  67.8788406  67.8344516  50.3609545
  68.8677637  67.7636176  49.6295615  67.1908976  68.9543615  50.5439855
  66.3258764  68.9286156  51.0647301  67.6230565  70.2285173  49.9852768
  68.0945041  70.0741070  49.0147131  66.4095847  71.1474538  49.7999342
  65.8348568  70.6235588  49.0361795  65.8573592  71.1381708  50.7396474
  66.6424893  72.5955242  49.3594010  67.4023859  73.0350225  50.0055427
  67.1035149  72.6710836  47.9102126  66.3438755  72.2321630  47.2633775
  67.2590063  73.7133754  47.6317329  68.0381657  72.1218786  47.7966253
  65.3769152  73.3984223  49.5636922  65.1011893  73.3810037  50.6180978
  65.5448735  74.4285758  49.2495664  64.5714155  72.9650767  48.9708341
  68.6542447  70.8915818  50.9006208  68.4828937  70.9102233  52.1186193
  69.7203185  71.4325011  50.3095686  69.8813635  71.2895370  49.3227935
  70.7123017  72.1978064  51.0723518  70.3784386  72.2848917  52.1063010
  72.0880812  71.5219366  51.0571256  72.3133327  71.2990662  50.0142019
  72.7996928  72.2571234  51.4329037  72.1926497  70.2500633  51.8801813
  73.1933628  70.1908401  52.3081612  71.4565097  70.2906227  52.6830230
  71.9391123  69.0359539  51.0286407  70.8672144  68.9473385  50.8517761
  72.4549503  69.1595898  50.0764198  72.4126743  67.8060747  51.6617008
  72.7886480  67.8786720  52.5962984  72.3701463  66.6078288  51.0860522
  71.8871755  66.4725689  49.8547443  71.5514521  67.2837286  49.3553349
  71.8582229  65.5592796  49.4244375  72.8181673  65.5441895  51.7385265
  73.1906442  65.6477970  52.6716002  72.7849287  64.6352073  51.2994990
  70.8504829  73.6161090  50.5450410  71.0427895  73.8216526  49.3390791
  70.7392394  74.5782176  51.4563181  70.3531993  74.3318634  52.3565303
  71.0354481  75.9871454  51.1901364  71.9521711  76.0516194  50.6039955
  69.9016736  76.6832680  50.4099801  70.2109534  77.6874628  50.1200866
  69.7248358  76.0857440  49.5156684  68.6017959  76.7822130  51.1932284
  68.5857622  77.1756475  52.3535052  67.4923080  76.4593204  50.5298115
  66.5974695  76.5050900  50.9959328  67.5512225  76.1702742  49.5638498
  71.3580002  76.6934275  52.5053519  71.2145354  76.1011183  53.5715393
  71.7916805  77.9478091  52.4309331  71.8787830  78.4038640  51.5339791
  72.2503426  78.6637085  53.6196749  72.9371995  78.0335878  54.1847188
  72.9757474  79.9509384  53.2316850  72.9450255  80.0320062  52.1451385
  72.4284231  80.7837317  53.6732632  74.4178034  79.9887135  53.7006089
  74.9304785  79.1048342  53.3211060  74.8933716  80.8839676  53.3000381
  74.5421892  80.0093002  55.2199859  73.9529578  80.8594477  55.8979363
  75.3139850  79.0707509  55.7612829  75.4334792  79.0356485  56.7635755
  75.7769380  78.3975602  55.1674899  71.1552435  78.9744940  54.6269283
  71.4248166  79.0448699  55.8240823  69.9335029  79.1617025  54.1355875
  69.7818845  79.1154662  53.1381040  68.8043572  79.5261418  54.9930542
  69.1130883  80.2959158  55.7003252  67.6411873  80.0694777  54.1542026
  67.4609160  79.3513649  53.3542554  66.7690275  80.1124051  54.8065786
  67.8939893  81.4496999  53.5513804  68.9462649  81.5138054  53.2744195
  67.2770125  81.5505299  52.6584778  67.5576017  82.5683037  54.5297126
  66.4892721  82.5303184  54.7426159  68.1171356  82.4011072  55.4500748
  67.9139455  83.9382532  53.9599746  67.6364370  84.6920679  54.6967602
  68.9917910  83.9666375  53.8001537  67.2121580  84.2197570  52.6713583
  66.2133896  84.1939279  52.8193255  67.4792031  85.1340146  52.3353228
  67.4694989  83.5216140  51.9883714  68.3220495  78.3792743  55.8766640
  67.8389095  78.6151949  56.9851617  68.4483280  77.1467677  55.3837896
  68.8691595  77.0071789  54.4763122  67.9282502  75.9733058  56.0982127
  67.4327152  76.2641147  57.0244818  66.9169980  75.1690052  55.2228547
  66.4690029  74.3848126  55.8331346  65.8259858  76.0786703  54.6877698
  66.2732024  76.8629019  54.0769679  65.1325109  75.4969031  54.0805303
  65.2876917  76.5303528  55.5210309  67.6234409  74.4705822  54.0629923
  68.3698773  73.7795534  54.4546733  66.8930398  73.9186097  53.4714348
  68.1123545  75.2143717  53.4338329  69.0311280  75.0226025  56.5770119
  68.7804138  74.1424037  57.4018571  70.2414697  75.2200478  56.0474034
  70.3609039  76.0381829  55.4673260  71.3585425  74.2650983  56.1464021
  72.2202048  74.6839488  55.6265930  71.7620447  73.9604808  57.6028801
  71.8264669  74.9105076  58.1333498  70.9728154  73.3515358  58.0437919
  73.1003785  73.2212020  57.7150199  72.8970599  72.1508387  57.6820820
  73.7119366  73.5009021  56.8571933  73.8444699  73.5563045  58.9985289
  74.9018058  73.3448940  58.8390125  73.7128723  74.6202904  59.1952914
  73.3427331  72.7566800  60.1866610  72.3054741  73.0234482  60.3892172
  73.4057679  71.6927400  59.9582810  74.1782659  73.0582346  61.3888127
  74.1196515  74.0439827  61.6008616  73.8403105  72.5237581  62.1763538
  75.1393794  72.8107149  61.2014790  71.0346367  72.9917136  55.3568594
  71.6255829  72.7477124  54.3018177  70.1035923  72.1955558  55.8769653
  69.7859662  72.3793121  56.8179471  69.5454267  71.0441983  55.1693723
  69.5826181  71.2294026  54.0958663  70.3306348  69.7587659  55.4733905
  69.9198918  68.9747086  54.8372746  71.3611426  69.9604827  55.1810480
  70.2953614  69.3045357  56.9237834  69.2768304  68.4696346  57.3987778
  68.4959785  68.1481096  56.7095815  69.2498647  68.0492896  58.7282337
  68.4430176  67.4100448  59.0866547  70.2530807  68.4604811  59.6023151
  70.2390994  68.0480347  60.9158331  69.4935434  67.4797189  61.1226251
  71.2782094  69.2769006  59.1518339  72.0708518  69.5892468  59.8317297
  71.2930916  69.6995760  57.8207787  72.0923265  70.3493196  57.4641881
  68.0875870  70.8842893  55.5783791  67.7134321  71.2635535  56.6888420
  67.2714698  70.3415827  54.6747198  67.5891183  70.2241869  53.7231858
  65.8751450  70.0062100  54.9897885  65.7762579  69.5843457  55.9899641
  64.9077331  71.2348846  54.8660878  65.2625599  72.0187344  55.5352489
  64.8517402  71.7732259  53.4349769  64.4965345  70.9900259  52.7652549
  64.1708862  72.6233588  53.3924067  65.8478564  72.0903521  53.1262940
  63.4965080  70.8794782  55.3677111  63.5472574  70.5792763  56.4143272
  62.8462201  71.7488598  55.2707517  63.0953270  70.0582712  54.7737636
  65.3830786  68.8432409  54.1329003  65.5856552  68.8286085  52.9180462
  64.7514472  67.8658030  54.7765392  64.7246028  67.8615937  55.7861733
  64.0960167  66.7758313  54.0629185  64.7255024  66.4444053  53.2370833
  63.8540965  65.5920543  54.9979633  63.4809143  65.9979273  55.9382299
  63.0944627  64.9490500  54.5534389  65.1078679  64.7849571  55.2593910
  65.9022701  64.6030954  54.3127435  65.2844320  64.3210709  56.4070040
  62.7610864  67.2542948  53.5031117  61.8576157  67.6128793  54.2720484
  62.6477857  67.2571366  52.1748504  63.4608247  67.0566069  51.6101781
  61.3973248  67.6230396  51.4918605  60.7698219  68.2018007  52.1696325
  61.6736924  68.4645816  50.2417877  62.4129304  67.8803438  49.6937982
  60.7473264  68.5066657  49.6689221  62.2043834  69.8844767  50.4584328
  63.1527092  69.8361957  50.9936413  62.4138857  70.5698586  49.1177176
  61.4658395  70.6189302  48.5820879  62.7914719  71.5793750  49.2802172
  63.1347699  70.0033794  48.5282029  61.2634588  70.7067636  51.3200587
  61.1508182  70.2294787  52.2935116  61.6727956  71.7083010  51.4522236
  60.2901074  70.7738489  50.8340694  60.5730365  66.3935240  51.1322561
  59.4004052  66.5089637  50.7586715  61.2041819  65.2256283  51.2446526
  62.1946386  65.2221652  51.4423466  60.5222707  63.9394050  51.0935309
  59.4831342  64.1148358  50.8151092  61.0149384  63.3619196  50.3112978
  60.5598959  63.1487421  52.3895253  60.4286272  63.7214810  53.4799677
  60.7506498  61.8357082  52.2819667  60.8708272  61.4191969  51.3697304
  60.7931918  60.9593233  53.4577923  59.8111697  60.9607738  53.9307930
  61.0373818  59.9482886  53.1317871  61.8277416  61.4154031  54.4675506
  62.9280100  61.8178878  54.0810774  61.4890549  61.3435124  55.7574634
  60.6051712  60.9373869  56.0293293  62.3451562  61.9071521  56.8034571
  63.3804422  61.9426353  56.4643067  61.8877053  63.3339652  57.1316080
  61.7466667  63.8790159  56.1982661  60.9404267  63.2824216  57.6683638
  62.8476159  64.0060045  57.9307756  62.5389516  64.8946602  58.1221318
  62.4055185  61.0935026  58.1030070  63.4943131  60.8811912  58.6668475
  61.2434102  60.6586883  58.5850816  60.3893990  60.8144714  58.0688493
  61.1490087  60.0628431  59.9213252  61.9115407  60.4991790  60.5665035
  59.7664599  60.3163710  60.5521410  59.0529830  59.8034534  59.9071872
  59.7031570  59.9074531  61.5605452  59.4452257  61.7849967  60.5860851
  58.5605981  62.3432368  59.6615533  58.0726487  61.6902041  58.9379836
  58.2980775  63.7078621  59.6537045  57.5918363  64.1382088  58.9436855
  58.9390552  64.5250056  60.5791715  58.6973525  65.8740141  60.5813590
  58.0721389  66.1441672  59.9048053  59.8353824  63.9997512  61.4958886
  60.3401654  64.6469367  62.2131371  60.0882605  62.6335785  61.4949267
  60.7952343  62.2096778  62.2080861  61.4851049  58.5835025  59.9795729
  61.1272196  57.8143884  59.0848603  62.2086548  58.2119816  61.0313678
  62.6236246  58.9259147  61.6129166  62.4639312  56.8116939  61.3646206
  61.7719003  56.1419270  60.8541261  63.9248056  56.3712172  61.0282215
  64.0681504  55.3458895  61.3691830  64.1881163  56.4491916  59.5300842
  64.0454094  57.4743845  59.1884481  65.2119681  56.1372457  59.3238856
  63.4956748  55.7918261  59.0042545  64.9558804  57.2082477  61.8058819
  64.7942860  57.0817173  62.8763862  65.9619254  56.8765216  61.5491121
  64.8427323  58.2601829  61.5437166  62.1924199  56.6079415  62.8552321
  62.1672720  57.5740340  63.6239165  61.9903940  55.3611819  63.2657746
  62.0179785  54.5823914  62.6232609  61.7207664  55.0875545  64.6728460
  62.3989612  55.7028993  65.2640327  60.6917427  55.3847641  64.8750240
  61.9007596  53.6404019  65.0664156  62.2969095  52.8031590  64.2410099
  61.6055111  53.3285401  66.3381071  61.0986353  54.2598021  67.3586389
  60.4097748  54.9704172  66.9019140  61.9295918  54.8002115  67.8120348
  60.4237384  53.3472576  68.3199348  59.3799329  53.2295872  68.0288631
  60.4752159  53.7789366  69.3194871  61.1486724  52.0595028  68.2631169
  60.4332683  51.2495905  68.4057289  61.9332803  51.9873609  69.0163006
  61.7600505  51.9731666  66.8620213  62.8248758  51.7409307  66.8796832
  61.0246924  50.9274056  66.0219967  59.9158291  51.1867518  65.5345105
  61.6654954  49.7631173  65.8847299  62.5839942  49.7377037  66.3040309
  61.2475798  48.6185907  65.0334559  61.8889882  47.7544854  65.2067085
  59.7574302  48.1739579  65.1903945  59.6478658  47.1896476  64.7351702
  59.3222286  48.1082062  66.6638507  59.4310815  49.0923274  67.1196533
  58.2798488  47.7948470  66.7217258  59.9468438  47.3907730  67.1960595
  58.9013767  49.0418067  64.4329792  57.9891858  48.7608142  64.5356982
  61.6001253  48.7558292  63.5483544  61.4144242  47.8090362  62.7801520
  62.1197390  49.9133937  63.1450391  62.1758555  50.7021562  63.7733734
  62.5648196  50.0937232  61.7664056  62.0556791  49.3751429  61.1241302
  62.2535974  51.5071193  61.2628113  62.7946190  52.1967353  61.9107500
  62.6510635  51.5734096  60.2500298  60.7640000  51.8771172  61.2527010
  60.2386084  51.1819804  60.5978352  60.3669822  51.7930605  62.2643399
  60.5227792  53.2943221  60.7516172  61.4634366  54.0094927  60.4097742
  59.2550679  53.7074960  60.7149096  59.0400938  54.6395143  60.3905187
  58.5159283  53.0864432  61.0116714  64.0624697  49.7953343  61.6974698
  64.8783744  50.6686195  61.3981063  64.4174793  48.5420327  61.9640864
  63.7109943  47.8335976  62.1022816  65.8134385  48.1860863  62.2113136
  66.3062630  48.9797157  62.7728966  65.8913077  46.8905573  63.0240467
  65.3625284  46.0969670  62.4961205  66.9410978  46.6177295  63.1317774
  65.2845166  47.0407541  64.4078857  65.6295122  47.9654405  65.1527313
  64.3652320  46.1416523  64.7522837  63.9282207  46.1935244  65.6613658
  64.1089856  45.4117442  64.1029204  66.6948527  48.1122653  60.9685275
  67.9090474  48.3256531  61.0545552  66.0883165  47.8419789  59.8125154
  65.1083723  47.5980614  59.7948230  66.8509530  47.7552171  58.5585310
  67.7634213  47.1832655  58.7269715  66.0340885  47.0626579  57.4609112
  65.1261812  47.6448955  57.3034222  66.6305653  47.0667803  56.5486073
  65.6631045  45.6329310  57.8165527  66.5883320  45.0780653  57.9720489
  65.0946067  45.6582272  58.7462152  64.8388608  44.9505330  56.7375957
  63.8493031  45.4037575  56.6787563  65.3369711  45.0402006  55.7722225
  64.6859106  43.5300301  57.0562752  65.3944946  42.9044745  56.7003422
  63.6931831  43.0192484  57.7767300  62.7275584  43.8017387  58.2442605
  62.7470470  44.7929290  58.0512265  61.9780596  43.4021114  58.7907485
  63.6621789  41.7177181  58.0270890  64.3934465  41.1201291  57.6689895
  62.9074341  41.3297600  58.5747637  67.3915687  49.1061570  58.0788625
  68.5802583  49.2222372  57.7649780  66.5326889  50.1249057  58.0285160
  65.5416065  49.9692838  58.1452927  66.9854629  51.4662158  57.6495108
  67.6309077  51.4327290  56.7717985  65.7993240  52.4624266  57.3890179
  65.1926860  52.0698929  56.5729247  64.9257219  52.6378684  58.6358256
  65.5316047  53.0308344  59.4522717  64.1157229  53.3338327  58.4175683
  64.5075909  51.6739020  58.9257123  66.3068112  53.8182497  56.8816427
  65.4443355  54.4843687  56.8587994  67.0236375  54.1780039  57.6197731
  66.9634083  53.7913484  55.5081287  66.2469989  53.4321139  54.7693405
  67.2876323  54.7968959  55.2400765  67.8263001  53.1257469  55.5303137
  67.9885553  52.0185408  58.6670331  68.9540490  52.6780226  58.2971202
  67.7742144  51.7274787  59.9467452  66.9351121  51.2437538  60.2331310
  68.6984870  52.1827262  60.9818856  68.8749379  53.2528366  60.8731286
  68.1194163  51.9216059  62.3741397  67.8353489  50.8700356  62.3340799
  68.9151136  52.0548104  63.1070944  66.9035721  52.7642917  62.7809029
  66.1748886  52.7581455  61.9702960  66.2694645  52.1891105  64.0356698
  66.9974528  52.1953567  64.8468990  65.4071430  52.7933896  64.3173598
  65.9481301  51.1652603  63.8444230  67.2818795  54.2320601  62.9874786
  67.6872183  54.6372889  62.0603381  66.3963946  54.7990750  63.2747271
  68.0319670  54.3071400  63.7747720  70.0827333  51.5390191  60.8307555
  71.1011484  52.2145279  60.9859896  70.1046357  50.2423648  60.5234173
  69.2340018  49.7327133  60.4749273  71.3553974  49.4993342  60.3469553
  72.0280408  49.7069296  61.1791536  71.0825141  47.9831879  60.3006740
  70.7286332  47.7069333  61.2939267  70.2802012  47.8400583  59.5768591
  72.2862236  47.0936667  59.9173458  73.1989382  47.6266751  60.1837196
  72.2228050  46.1715688  60.4951135  72.3086215  46.7584595  58.4211745
  72.3664425  47.6848492  57.8497222  73.1836534  46.1448292  58.2069869
  71.1102308  46.0267105  58.0081210  70.5886057  45.5715399  58.7435300
  70.6629299  45.9287232  56.7573347  71.3097611  46.5049021  55.7505357
  72.1552832  47.0272092  55.9305015  70.9531438  46.4181000  54.8095845
  69.5609948  45.2380406  56.5082168  69.0669516  44.7903111  57.2668732
  69.2196173  45.1621340  55.5606946  72.1103564  49.9737676  59.1021285
  73.3237693  50.1921750  59.1513568  71.3919766  50.1223624  57.9890539
  70.4225725  49.8394699  57.9709752  71.9960360  50.6065285  56.7486522
  72.8416340  49.9733050  56.4801543  70.9755435  50.5765287  55.5995373
  70.7450612  49.5140145  55.5218151  70.0875982  51.1174032  55.9268108
  71.4195680  51.1047050  54.2292976  71.7095045  52.1488318  54.3469277
  72.6010823  50.3067770  53.6519202  72.3117345  49.2625699  53.5335637
  72.8787060  50.7185544  52.6816289  73.4512485  50.3729699  54.3308432
  70.2363273  51.0946781  53.2715857  69.4438335  51.7308612  53.6656977
  70.5527257  51.4700653  52.2984065  69.8639862  50.0759182  53.1639317
  72.5852299  52.0047083  56.9224503  73.7238412  52.2613683  56.5233690
  71.8139594  52.9086846  57.5223160  70.8652726  52.6772684  57.7802679
  72.2779422  54.2722104  57.7462766  72.5778672  54.6836356  56.7824958
  71.1621999  55.1250388  58.3100166  70.8572334  54.7308829  59.2794167
  71.5125715  56.1502931  58.4291542  70.3119909  55.1090996  57.6281150
  73.5104644  54.3123194  58.6612287  74.4600508  55.0524247  58.3970551
  73.4987060  53.5045414  59.7182706  72.6812102  52.9451628  59.9154900
  74.6203919  53.4516653  60.6598511  74.8294646  54.4542907  61.0328527
  74.2995892  52.5436226  61.8504917  73.3149925  52.8286075  62.2212369
  74.2648743  51.5195391  61.4788090  75.3173925  52.6388090  62.9848594
  76.2900030  52.3277216  62.6036058  75.3717971  53.6764109  63.3142897
  74.9290013  51.7590059  64.1526898  73.9201252  52.0210755  64.4714179
  74.9490171  50.7175690  63.8315853  75.8952805  51.9503032  65.3168061
  76.8726614  51.5674345  65.0231417  75.9728013  53.0160277  65.5320290
  75.4270933  51.2329824  66.5308327  75.3556059  50.2453834  66.3317408
  76.0857988  51.3780745  67.2826009  74.5216347  51.5879050  66.8033648
  75.9042226  52.9853729  59.9640121  76.9815298  53.5484570  60.1920090
  75.7804365  51.9739125  59.1102370  74.8901083  51.5090291  59.0039426
  76.9236090  51.4628314  58.3557871  77.7235661  51.1936417  59.0455006
  76.5393933  50.2235356  57.5451100  76.0393693  49.5281207  58.2192564
  75.8436704  50.5385227  56.7673872  77.7421790  49.5340647  56.9031604
  78.2818930  50.2759586  56.3146003  78.3802742  49.1786854  57.7122583
  77.3575321  48.3706537  56.0168638  77.9086791  48.2823912  54.8948337
  76.5180344  47.5449283  56.4418594  77.5063198  52.5308059  57.4296081
  78.7217257  52.5684783  57.2035386  76.6398364  53.4005660  56.9107228
  75.6509758  53.2690703  57.0687198  77.0626792  54.4831122  56.0193853
  77.9002825  54.1500172  55.4065495  75.9110239  54.8996830  55.0920182
  75.1327291  55.1858528  55.7994524  76.2197262  55.7739834  54.5189547
  75.3651066  53.8283795  54.1365475  75.2029668  52.9055780  54.6935474
  74.0504743  54.2856880  53.5188575  74.2119208  55.2082553  52.9612703
  73.6776527  53.5147172  52.8445365  73.3195163  54.4618929  54.3080043
  76.3858298  53.4558393  53.0478842  77.2904071  53.0665933  53.5151388
  75.9591234  52.6952723  52.3940028  76.6323255  54.3412755  52.4619307
  77.6293266  55.6886440  56.7743515  78.0722517  56.6615483  56.1617672
  77.6156912  55.6162523  58.1024533  77.1934721  54.8170693  58.5531606
  78.1956445  56.6621424  58.9456889  78.6080981  56.1666857  59.8246109
  79.0037451  57.1174780  58.3732011  77.2366658  57.7481006  59.3956674
  77.6718795  58.8288709  59.8107501  75.9371731  57.4580256  59.3283833
  75.6458866  56.5675661  58.9511123  74.9019745  58.4264441  59.7027515
  75.3022574  59.4383914  59.6408219  73.6970315  58.3161604  58.7554126
  73.3394139  57.3033953  58.9411963  72.9433339  59.0326844  59.0819600
  73.9592819  58.4984357  57.2540790  74.7007163  57.7689274  56.9282054
  72.6689551  58.2951424  56.4705443  71.9271374  59.0246417  56.7955614
  72.8649450  58.4264518  55.4063796  72.2901242  57.2886515  56.6482059
  74.5752030  59.8664529  56.9331318  75.5256812  59.9694016  57.4566699
  74.7419983  59.9474164  55.8590156  73.8961382  60.6558416  57.2553667
  74.4590122  58.2743951  61.1578620  74.6402532  57.2164713  61.7634137
  73.8879390  59.3448334  61.7094944  73.7924224  60.1806373  61.1505599
  73.3680705  59.3616453  63.0763356  73.3833163  58.3524568  63.4879246
  74.2217644  60.2665241  63.9681085  74.2823030  61.2275287  63.4573204
  73.6685199  60.3850469  64.8997591  75.6235775  59.7658022  64.2721493
  75.5473586  58.7469701  64.6519818  76.1934237  59.7649210  63.3429703
  76.3284461  60.6359311  65.2966945  76.3470046  61.8761144  65.1247551
  76.8659787  60.0803611  66.2789662  71.9493167  59.9154660  63.0633266
  71.5831598  60.6439985  62.1418770  71.1678185  59.5735976  64.0878282
  71.4956670  58.8926212  64.7578177  69.8204782  60.1254556  64.2602114
  69.5339389  60.7014229  63.3802932  68.7488593  59.0270375  64.5053309
  67.7711635  59.5058895  64.5592933  68.7443481  57.9833570  63.3856003
  69.7216409  57.5037187  63.3313286  67.9822860  57.2317946  63.5917906
  68.5259021  58.4703115  62.4352018  68.9859423  58.3811391  65.7652027
  68.3199415  57.7047101  65.9083356  69.7562335  61.1100294  65.4206239
  70.6594657  61.1617494  66.2680680  68.6846075  61.8949423  65.4420335
  68.1151607  61.9747773  64.6116985  68.3346307  62.7074091  66.6009105
  68.8119906  62.2951459  67.4898794  68.7982836  64.1575025  66.4239074
  68.7696345  64.6203951  67.4103195  69.8300327  64.1090266  66.0757062
  67.9777658  64.9823001  65.4559480  66.9111574  65.7659189  65.9046364
  66.6750865  65.7736412  66.9687371  66.1579173  66.5254037  65.0216120
  65.3278074  67.1325773  65.3826656  66.4692774  66.5118221  63.6773049
  65.7275194  67.2635256  62.8049862  65.0242245  67.7540315  63.2367036
  67.5183022  65.7446563  63.2016144  67.7581223  65.7312738  62.1384080
  68.2693213  64.9862282  64.0935803  69.1008161  64.3824620  63.7300106
  66.8266960  62.6229918  66.8243735  66.0840832  62.2630493  65.9105492
  66.3857022  62.9491062  68.0341172  67.0451524  63.2357989  68.7433647
  64.9736872  62.8535718  68.3989195  64.5096307  62.0260609  67.8622851
  64.8216347  62.6081260  69.9028821  65.4333333  63.3567448  70.4063638
  63.7718432  62.7757753  70.1435717  65.2324500  61.2224079  70.3690046
  64.5953391  60.4781086  69.8912922  66.2711734  61.0424267  70.0919440
  65.0856352  61.1200470  71.8830798  65.8182750  61.7837422  72.3422602
  64.0811535  61.4475918  72.1510917  65.3048305  59.7044876  72.3803994
  64.5651766  59.0517230  71.9168142  66.3051355  59.3823629  72.0910470
  65.1694880  59.6333289  73.8670190  64.2425092  59.9313667  74.1353161
  65.3194293  58.6827339  74.1735919  65.8550620  60.2377981  74.2967913
  64.1846522  64.0978522  68.0063244  64.5923117  65.2210950  68.3063165
  63.0524902  63.8773477  67.3370292  62.8779145  62.9462851  66.9866794
  62.0592703  64.9213641  67.0623275  62.4801420  65.7627664  66.5118656
  60.8709317  64.3276294  66.2360852  60.5058549  63.4392975  66.7515313
  59.7302813  65.3301396  66.0806499  60.0945045  66.2186119  65.5648405
  58.9253367  64.8784254  65.5008923  59.3553720  65.6102362  67.0650739
  61.3573591  63.8694647  64.8751875  62.1221397  63.1030891  65.0012080
  60.5213389  63.4581892  64.3094824  61.7788166  64.7172510  64.3350646
  61.5657348  65.4755175  68.4060886  61.3633292  64.7152252  69.3526781
  61.3955716  66.7937126  68.4969025  61.6096211  67.4004240  67.7183246
  60.9870342  67.4049132  69.7593006  61.6201305  67.0320005  70.5644244
  61.1131248  68.9234393  69.7038606  62.1355245  69.1676475  69.4154851
  60.4212649  69.3286204  68.9654445  60.8227030  69.5637305  71.0391314
  61.4818681  69.2613171  72.0303068  59.8145579  70.4369830  71.0791771
  59.5798184  70.8930757  71.9492212  59.2908359  70.6378692  70.2392600
  59.5757083  67.0337344  70.2155673  58.5956338  67.3574081  69.5403116
  59.4863073  66.3536147  71.3605864  60.3204098  65.9519585  71.7643744
  58.1972633  66.0686871  72.0003167  57.4642083  66.8083595  71.6784252
  57.6776931  64.6640110  71.6261606  58.0054721  64.4478833  70.6093277
  58.1295445  63.9482246  72.3128775  56.1473484  64.5529895  71.7050552
  55.8523504  64.8319254  72.7166241  55.7511719  65.2815287  70.9976841
  55.5939384  63.1781188  71.3780214  56.2608878  62.1560213  71.6530799
  54.4637405  63.1183562  70.8474604  58.2783069  66.2537611  73.5234859
  57.6190964  65.5454324  74.2880615  59.0856749  67.2220638  73.9529296
  59.6247941  67.7575010  73.2875298  59.2707744  67.4993384  75.3820062
  59.3880414  66.5799472  75.9556503  60.5083961  68.4036780  75.6351021
  60.3825281  69.3311200  75.0764360  60.6641097  68.7219590  77.1214844
  60.7904960  67.7949707  77.6807876  61.5383378  69.3562476  77.2681258
  59.7747269  69.2420230  77.4773402  61.7819396  67.7483979  75.1017495
  61.6837583  67.5821168  74.0289900  62.6339001  68.4013655  75.2912125
  61.9377433  66.7936970  75.6041161  58.0200478  68.1484525  75.9815884
  57.5480514  67.7463208  77.0459143  57.4932161  69.1514147  75.2852830
  57.9450007  69.4459235  74.4313190  56.3411552  69.9195421  75.7617723
  56.2650116  69.8469351  76.8466822  56.5054301  71.3996244  75.3786952
  56.3912419  71.4637567  74.2965920  55.6955887  71.9461304  75.8620047
  57.8580323  72.0157339  75.7899268  57.6877145  73.0780629  75.9647121
  58.1575239  71.5380057  76.7227611  58.9670025  71.8415362  74.7487264
  58.7758303  71.1098476  73.7481835  60.0490229  72.4488515  74.9355362
  55.0162791  69.3253877  75.2412052  55.0102169  68.2193672  74.7026340
  53.9048789  70.0480736  75.4049201  53.9631973  70.9873531  75.7715977
  52.5721590  69.4897250  75.1252232  52.5414605  68.4446538  75.4334162
  51.4854528  70.2583461  75.8889832  51.4655023  71.2667142  75.4755887
  50.5399981  69.7598233  75.6752299  51.6907975  70.3319773  77.3967013
  51.5486687  69.3359479  77.8160171  52.7095428  70.6662661  77.5929439
  50.7082593  71.2972701  78.0401812  49.6946313  71.0076854  77.7630570
  50.8175318  71.2438390  79.1233728  50.9342412  72.6780574  77.6139330
  51.7727305  72.8556084  77.0796010  50.1192221  73.6972958  77.8738138
  48.9971493  73.5145938  78.5670935  48.7583738  72.5919814  78.9015672
  48.3899750  74.2994631  78.7552929  50.4300952  74.9096409  77.4436010
  51.2826038  75.0537138  76.9215166  49.8133988  75.6851832  77.6393520
  52.2084301  69.4714899  73.6418507  52.5892310  70.3698639  72.8873199
  51.4636797  68.4407628  73.2448450  51.3029026  67.6829154  73.8928553
  50.8648422  68.3522366  71.9091108  51.5566217  68.7434196  71.1631107
  50.5531909  66.8901499  71.5692284  49.9379112  66.5968210  72.4198095
  49.9387221  66.9178605  70.6693617  51.6885784  65.8707531  71.3827922
  52.3775367  66.2684376  70.6376182  52.4483424  65.5927553  72.6830463
  51.7600866  65.1945847  73.4286086  53.2388115  64.8663490  72.4943845
  52.8876731  66.5191820  73.0529415  51.1263555  64.5713263  70.8146017
  50.6570032  64.7686461  69.8508212  51.9344637  63.8515933  70.6840381
  50.3853338  64.1640118  71.5024103  49.5739509  69.1662901  71.8926316
  49.0331594  69.4844695  72.9506932  49.0779785  69.5082022  70.7058188
  49.5825171  69.2884416  69.8589154  47.8052203  70.2323644  70.5901694
  47.3036616  70.2865078  71.5564025  48.0101519  71.6654572  70.0334028
  48.6514875  71.6118961  69.1536755  46.6682736  72.2996932  69.6492880
  46.0265239  72.3540214  70.5286665  46.8382912  73.3041273  69.2615938
  46.1846093  71.6924960  68.8841216  48.7430281  72.5572029  71.0416599
  48.0326680  72.8181573  71.8261293  49.5559426  71.9701022  71.4689564
  49.3088212  73.8346337  70.4215901  48.4963842  74.4225211  69.9944666
  49.8144614  74.4191432  71.1902096  50.0196575  73.5744657  69.6372916
  46.8271079  69.5005985  69.6745440  47.2047525  69.0767470  68.5834146
  45.5769789  69.3614586  70.1245256  45.3807362  69.5273529  71.1012892
  44.4745160  68.9283406  69.2567904  44.8712761  68.6221644  68.2888355
  43.7182305  67.7402478  69.8762457  44.4229720  66.9377495  70.0940421
  43.2215697  68.0467314  70.7968410  42.6582274  67.1523917  68.9918274
  41.5114328  66.5720041  69.4912204  40.7642209  66.1425862  68.4883961
  39.8129614  65.6456651  68.6788528  41.3799692  66.4300303  67.3563493
  41.0441530  66.2223911  66.4267185  42.5654778  67.0645586  67.6431522
  43.2205525  67.3873159  66.8339513  43.5596340  70.1315173  69.0542007
  43.0357791  70.6898706  70.0185199  43.4073021  70.5517095  67.7998935
  43.8858801  70.0676888  67.0537123  42.5826583  71.7124960  67.4577540
  42.3161294  72.2578726  68.3630860  43.3504457  72.6538797  66.5282014
  44.2961150  72.8996810  67.0113065  43.5465673  72.1958329  65.5587534
  42.6573301  73.9547274  66.2555255  42.8210640  75.0676842  67.0535452
  42.1107530  76.0676766  66.5624215  42.0991710  77.0365959  67.0615810
  41.5037001  75.6503184  65.4654908  40.8947942  76.1998404  64.8761190
  41.8341660  74.3334607  65.2478099  41.4351637  73.8076418  64.3803925
  41.3171081  71.2100173  66.7826133  41.3742331  70.6008790  65.7116076
  40.1796859  71.4559674  67.4236549  40.2029917  71.9299727  68.3152126
  38.9001738  70.9533799  66.9420060  38.8470640  70.8707394  65.8564420
  38.5625488  69.5610331  67.5659009  39.3429392  68.8577457  67.2752517
  38.4777098  69.6256831  69.0889402  37.6971633  70.3284751  69.3803706
  38.2411960  68.6371009  69.4824713  39.4341167  69.9576968  69.4928641
  37.2822687  68.9752664  66.9625941  37.4106351  68.8506765  65.8873725
  37.0755048  68.0067572  67.4179382  36.4483078  69.6509372  67.1525387
  37.8082572  72.0004101  67.1916695  37.7886393  72.6528786  68.2337663
  36.9318541  72.1665389  66.2001071  37.0567578  71.6228621  65.3581368
  35.8752484  73.1928307  66.2184158  35.5029317  73.3482312  65.2058298
  34.7037080  72.7674601  67.1112797  35.1179319  72.4744378  68.0759847
  34.0600446  73.6373590  67.2419444  33.8912142  71.6180127  66.5391360
  33.9700198  71.6442425  65.4523045  34.3060304  70.6809210  66.9104695
  32.4266195  71.7203193  66.9442162  31.9340036  70.7819834  66.6893550
  32.3789450  71.8739928  68.0222751  31.7210511  72.8752793  66.2335280
  32.3517223  73.7605895  66.3146466  31.6044189  72.6078949  65.1832892
  30.3840229  73.1627723  66.8237698  30.4919154  73.4109771  67.7968337
  29.9542756  73.9295836  66.3263588  29.7993321  72.3426851  66.7483196
  36.3987202  74.5832036  66.6022773  35.7805693  75.3128066  67.3855971
  37.5538959  74.9297337  66.0395563  38.0509834  74.2512054  65.4804474
  38.1368690  76.2557112  66.1964094  38.8681324  76.3603811  65.3949124
  37.3228931  76.9634924  66.0396025  38.8095996  76.5624395  67.5219128
  39.1244269  77.7218942  67.7794681  39.0273962  75.5386766  68.3524928
  38.7016460  74.6176827  68.0960629  39.6888439  75.7068234  69.6563435
  40.1348622  76.6997202  69.7139866  38.6859605  75.5534556  70.8036544
  38.2654083  74.5515210  70.7178519  39.2572279  75.6291433  71.7288706
  37.5567719  76.5789562  70.8183428  37.9831618  77.5782860  70.7309799
  36.8954375  76.3914480  69.9724234  36.7640313  76.4773445  72.1140664
  36.3737232  75.4634012  72.2016877  37.4366059  76.6804876  72.9474185
  35.6117478  77.4672831  72.1407537  35.9964143  78.4568184  71.8938686
  34.8767579  77.1670211  71.3939392  34.9678004  77.5060651  73.4829015
  35.6485845  77.7846911  74.1749999  34.2071740  78.1704705  73.4722798
  34.6109144  76.5893357  73.7116780  40.8267046  74.7009047  69.8441454
  40.7314923  73.5667912  69.3635831  41.8724285  75.1142155  70.5602186
  41.8964184  76.0695047  70.8872453  43.0309622  74.2538423  70.8370552
  43.0341445  73.4090718  70.1482506  44.3384124  75.0330262  70.6621862
  44.2543286  75.9875393  71.1817377  45.1556518  74.4555141  71.0942738
  44.5995329  75.2653197  69.2841688  45.4208304  75.7537654  69.1920225
  42.9817540  73.6364454  72.2312477  42.6769276  74.3192465  73.2145734
  43.3104332  72.3472835  72.2993984  43.5560229  71.8713169  71.4431036
  43.3105298  71.5784420  73.5455789  43.1613668  72.2453142  74.3947732
  42.1762640  70.5450700  73.5284516  42.3838183  69.8520567  72.7131278
  42.2149816  70.0106081  74.4776363  40.8018575  71.1424446  73.3432643
  40.2648062  71.3226683  72.0673876  40.8541100  71.0192740  71.2020712
  39.0016999  71.8781441  71.8887400  38.5952596  72.0176060  70.8870122
  38.2605445  72.2561751  72.9953105  37.0138256  72.8022409  72.7998135
  36.7744360  72.8682335  71.8724855  38.7656867  72.0855591  74.2724149
  38.1811681  72.3828783  75.1430696  40.0356270  71.5272241  74.4409075
  40.4407353  71.3869962  75.4430669  44.6576779  70.8708993  73.7199049
  44.9098850  69.8614224  73.0539042  45.5351603  71.4075154  74.5931138
  45.3534907  72.6380769  75.3834812  44.7819420  72.4161423  76.2846900
  44.8213271  73.3817421  74.7903007  46.7535911  73.0453717  75.6805448
  46.7710376  73.5599508  76.6412752  47.0930459  73.7248819  74.8987918
  47.5772341  71.8232330  75.7094944  47.6199931  71.4698127  76.7397199
  48.5898126  71.9750471  75.3356803  46.8443917  70.7950449  74.8348017
  47.3240248  70.6258525  73.8707352  46.7295896  69.4770663  75.5805216
  45.8000596  69.2897854  76.3730548  47.6719356  68.5756314  75.3231346
  48.3774179  68.7636900  74.6252606  47.6654327  67.2649073  75.9646063
  47.4423830  67.3776476  77.0255671  46.5989766  66.3497473  75.3316627
  46.4445956  65.4493646  75.9262859  45.6655907  66.9094880  75.2718199
  46.9194905  65.8901554  73.9248013  47.4711919  64.6310761  73.6992138
  47.6779057  63.9849069  74.5523461  47.7592076  64.1925366  72.4053729
  48.2048091  63.2102730  72.2482163  47.4759326  65.0134147  71.3124185
  47.6933862  64.6783409  70.2982492  46.9095896  66.2726882  71.5257347
  46.6856347  66.9238810  70.6808132  46.6301984  66.6965318  72.8280400
  46.1780556  67.6736661  72.9979670  49.0310710  66.6014059  75.9245974
  49.9390271  67.0646235  75.2269563  49.1557102  65.5132283  76.6804886
  48.4001831  65.2698759  77.3050347  50.3475089  64.6724559  76.6764066
  51.0216561  64.9927351  75.8820226  51.0818439  64.7759171  78.0105925
  50.3745888  64.5176273  78.7987396  51.8936771  64.0486672  77.9990011
  51.6467097  66.1599653  78.2719488  52.2077711  66.4734907  77.3916007
  50.8147009  66.8450303  78.4348889  52.5544913  66.1750537  79.4787081
  52.0001738  65.8342127  80.3531556  53.4005687  65.5104895  79.3037602
  53.0616008  67.5189327  79.7408667  52.5031877  68.1056912  80.3441815
  54.1946294  68.0118359  79.2473876  54.9652433  67.2758010  78.4532661
  54.6899707  66.3322992  78.2206087  55.8226190  67.6633191  78.0860656
  54.5553427  69.2494283  79.5484856  53.9693804  69.8108202  80.1498069
  55.4148490  69.6265613  79.1755002  49.9430096  63.2317185  76.4051060
  48.7972993  62.8464692  76.6566867  50.8895342  62.4407920  75.9013952
  51.8325471  62.7898132  75.8064733  50.6113922  61.0687589  75.4752024
  51.4844965  60.4385190  75.6442757  49.7621394  60.6682396  76.0287847
  50.2803727  61.0671556  73.9934037  50.0505358  62.1336786  73.4161448
  50.2766552  59.8789295  73.3592201  50.5155079  58.5547244  73.9636936
  49.9080613  58.4512568  74.8628061  51.5694584  58.4597702  74.2249811
  50.1073878  57.6028439  72.8808217  49.0511428  57.3558289  72.9877289
  50.7018087  56.6917690  72.9494337  50.3724701  58.3155503  71.5995559
  49.7413915  57.9767808  70.7779270  51.4205533  58.1937398  71.3260905
  50.0798978  59.7901281  71.9083273  50.8415033  60.4304323  71.4632815
  48.6942490  60.1986583  71.3790812  48.6098640  60.7183654  70.2616352
  47.6342394  59.9695563  72.1604755  47.7808607  59.5855057  73.0830300
  46.2511939  60.2478736  71.7306971  46.2369291  60.4969561  70.6696346
  45.3599497  59.0165688  71.9581512  45.3610867  58.7123501  73.0048360
  44.3451667  59.2766256  71.6570102  45.7493929  57.8036317  71.1568058
  46.5781705  56.8246299  71.7069723  46.9538056  56.9591166  72.7213250
  46.9269237  55.6879578  70.9796672  47.5813606  54.9359642  71.4204831
  46.4369502  55.5137170  69.6856899  46.7057350  54.6278971  69.1102095
  45.5983921  56.4805652  69.1279320  45.2128416  56.3531447  68.1163911
  45.2537627  57.6129286  69.8690729  44.5882367  58.3626186  69.4411244
  45.6347084  61.4246931  72.4997111  45.8242118  61.5271255  73.7107652
  44.8799056  62.3100679  71.8094385  44.6755860  62.3962343  70.3517572
  43.9832926  61.6156953  70.0361799  45.6303717  62.2615524  69.8434816
  44.1180875  63.7682699  70.1617268  43.4308530  63.7587128  69.3157265
  44.9358764  64.4592366  69.9570619  43.4192521  64.1311740  71.4260984
  42.3906213  63.7801259  71.3437397  43.4217219  65.1977345  71.6509148
  44.1461287  63.3604349  72.5363041  44.8630043  63.9686722  73.0878792
  43.1312415  62.7514436  73.5161752  42.3984575  61.8400409  73.1382352
  43.1090201  63.2274730  74.7766558  43.9741755  64.2707595  75.3539609
  44.0511151  65.1061216  74.6580078  44.9666745  63.8596688  75.5384849
  43.2637809  64.6410210  76.6219731  42.5406577  65.4330487  76.4273348
  43.9829128  64.9813727  77.3670310  42.5934060  63.3909883  77.0641946
  41.7115434  63.6465369  77.6516572  43.2387175  62.7328377  77.6460111
  42.1708183  62.6949776  75.7663103  42.2986370  61.6130885  75.8020401
  40.7156443  63.0247744  75.4325337  40.4228556  64.0992409  74.9016641
  39.8256685  62.0842422  75.7339722  40.1477816  61.2179062  76.1411630
  38.3962116  62.2434803  75.4875816  38.1647858  63.2356951  75.1002174
  37.8732627  61.1843044  74.4819177  37.9808182  60.1945046  74.9255700
  36.4134385  61.4328832  74.1480854  36.3051477  62.4223803  73.7039350
  36.0681880  60.6782269  73.4414055  35.8172591  61.3767901  75.0588682
  38.7165562  61.1837566  73.2062399  39.7519946  60.9508221  73.4546568
  38.3314489  60.4333486  72.5158198  38.6681694  62.1667108  72.7376669
  37.6691125  62.0948810  76.8191432  37.8215504  61.0747168  77.4997522
  36.8845051  63.1067631  77.1874308  36.7990164  63.9199699  76.5945684
  36.2568070  63.1424498  78.5085934  36.7225486  62.3972752  79.1534955
  36.4183467  64.5215358  79.1576317  36.2367754  65.3016314  78.4183199
  35.7391173  64.6545280  79.9996891  37.8034069  64.7443659  79.6846944
  38.8436470  65.3313822  79.0258581  38.6465862  65.6864792  78.0143379
  39.9643537  65.3452964  79.8233064  40.8629480  65.7291115  79.5677408
  39.6622924  64.7573459  81.0242757  40.4663241  64.5435046  82.1535874
  41.5027398  64.8798271  82.1248060  39.8919029  63.9190887  83.2320521
  40.4877415  63.7329925  84.1256094  38.5434776  63.5103317  83.2127178
  38.0947012  63.0154186  84.0739728  37.7423598  63.7269195  82.0904037
  36.7036752  63.3982299  82.1250199  38.3067989  64.3619812  80.9721894
  34.7969065  62.6911862  78.5555046  34.3776112  62.0797952  79.5401114
  34.0292753  62.9932223  77.5110380  34.3832831  63.5828202  76.7713406
  32.6415521  62.5381101  77.4309428  32.0980309  62.8656327  78.3171780
  31.9462682  63.1129868  76.1886735  31.9794330  64.2002064  76.2590506
  32.4811405  62.7907604  75.2952632  30.4881479  62.6760675  76.0685875
  30.1681197  61.4898398  76.1639644  29.6031625  63.6366429  75.8405858
  28.6238167  63.4061483  75.7519643  29.9124296  64.5944512  75.7565739
  32.5966404  61.0098228  77.4196841  33.2114509  60.3902700  76.5549776
  31.8853404  60.4018366  78.3926441  31.1378653  61.0728539  79.4743126
  30.2252951  61.5110497  79.0702083  31.7545426  61.8580154  79.9117250
  30.8618572  59.9519893  80.4434463  29.9420207  60.1507259  80.9934495
  31.6898119  59.8518715  81.1452788  30.7359371  58.7415149  79.5977880
  29.7483725  58.6632238  79.1431611  30.9495160  57.8325991  80.1602431
  31.7980819  58.9445670  78.5071918  32.7769142  58.5940773  78.8345181
  31.4049599  58.2243705  77.2146759  32.0600941  57.2392211  76.8625142
  30.3749128  58.7074661  76.5115205  29.8442821  59.4926357  76.8608616
  29.9267540  58.0597970  75.2621873  29.8740555  56.9758510  75.3640857
  28.5566477  58.6003908  74.7648102  28.6176894  59.6864614  74.6953477
  28.1874274  58.0163440  73.3831823  28.1257407  56.9302663  73.4519624
  27.2240682  58.4150537  73.0652668  28.9515794  58.2910177  72.6560473
  27.4550974  58.3398280  75.8042134  27.6906130  58.9577520  76.6707024
  26.5195412  58.6795106  75.3598600  27.3109197  56.8798330  76.2429197
  28.2460000  56.5395616  76.6878242  26.5090560  56.7978842  76.9766759
  27.0749303  56.2613197  75.3769807  30.9766422  58.2012895  74.1669871
  31.3321920  57.2171548  73.5043127  31.4746270  59.4225655  73.9980434
  31.0691948  60.1943839  74.5079654  32.5115567  59.7119925  73.0162339
  32.1919048  59.3368353  72.0440308  32.7648009  61.2357280  72.8999431
  33.2472693  61.5812722  73.8142317  33.6525946  61.5497688  71.7101995
  33.1705457  61.2049103  70.7954312  33.8148132  62.6260192  71.6512977
  34.6110943  61.0442923  71.8279803  31.5093684  61.9104202  72.7176112
  31.6615856  62.8554919  72.6450190  33.7887277  58.9293247  73.3509327
  34.4454147  58.3931167  72.4532261  34.1225502  58.8425565  74.6408862
  33.6333237  59.3951998  75.3303368  35.2698905  58.0429347  75.0783153
  36.1604109  58.3954624  74.5579339  35.5162413  58.1383691  76.5949842
  35.7252868  59.1674241  76.8872942  34.5974752  57.8038659  77.0767275
  36.6634038  57.2492260  77.0246083  36.4319663  55.9419842  77.4535586
  35.4048513  55.5800474  77.4997754  37.4800288  55.1061232  77.8179354
  37.2824990  54.0892908  78.1572518  38.7829259  55.5742561  77.7531824
  39.8224483  54.7411986  78.1180143  39.5262059  53.8714623  78.3962208
  39.0417671  56.8679271  77.3200051  40.0655460  57.2385214  77.2686513
  37.9824145  57.6939114  76.9496297  38.1785351  58.7055542  76.5943611
  35.1596677  56.5776954  74.6550804  36.1221930  56.0064936  74.1330656
  34.0003062  55.9648509  74.8944933  33.2734113  56.4385274  75.4115558
  33.7695949  54.5773722  74.4844798  34.5221103  53.9356577  74.9427616
  32.3833464  54.0902317  74.9149392  31.7309675  54.8530491  74.4899561
  32.2031225  53.1388423  74.4144619  32.0888593  53.9430718  76.4146280
  32.2827007  54.8920933  76.9145126  30.6310284  53.5493635  76.6204357
  30.4365304  52.6001409  76.1211906  30.4289105  53.4466543  77.6865970
  29.9834992  54.3193094  76.2009243  33.0151972  52.9397566  77.0907661
  34.0489224  53.2675408  76.9809069  32.7668065  52.8715792  78.1498955
  32.8934395  51.9614313  76.6258428  33.9375792  54.4042592  72.9705316
  34.5451958  53.4244110  72.5180356  33.4171997  55.3643074  72.2092126
  32.8993897  56.1115804  72.6491618  33.4860822  55.3347093  70.7465120
  33.1275279  54.3715714  70.3833267  32.6200308  56.4423988  70.1346354
  31.7326675  56.5683758  70.7549704  33.2084872  57.3597299  70.1526003
  32.1978208  56.1366699  68.6985631  31.8570523  54.9670338  68.3970716
  32.1952639  57.0729328  67.8800075  34.9303706  55.4315042  70.2478783
  35.3522789  54.6246591  69.4109628  35.6804320  56.4088389  70.7658057
  35.2596711  57.0818047  71.3904468  37.1014693  56.5707372  70.4207881
  37.2015586  56.7073371  69.3440236  37.7044323  57.7902291  71.1274295
  37.3065342  57.8806490  72.1381721  38.7879742  57.6806682  71.1725231
  37.4331975  59.0969155  70.4407095  38.4195544  59.8212565  69.8057172
  37.9013221  60.9310517  69.3114138  38.5260341  61.6460444  68.7760453
  36.6096545  60.9486686  69.5939831  35.9541736  61.6727103  69.3366735
  36.2929878  59.8138247  70.3015801  35.2677802  59.6454483  70.6312769
  37.9049936  55.3233683  70.7856971  38.6662851  54.7961503  69.9673760
  37.7262853  54.8419683  72.0146667  37.1298670  55.3197929  72.6750214
  38.4468311  53.6531217  72.4658989  39.5194539  53.8310826  72.3890265
  38.1101795  53.3111840  73.9215449  38.3838128  54.1500843  74.5614436
  37.0367642  53.1356326  73.9926883  38.8426242  52.0633043  74.4125706
  38.2289886  51.0177024  74.6514679  40.1572811  52.1649048  74.5520862
  40.6908464  51.3699162  74.8736463  40.6190640  53.0368168  74.3361542
  38.1672728  52.4494334  71.5716581  39.0947891  51.7345503  71.1810626
  36.8908433  52.2467704  71.2405308  36.1739737  52.8383973  71.6357207
  36.4795767  51.1385684  70.3869506  36.9097619  50.2128681  70.7692055
  34.9550334  50.9900141  70.3466872  34.5736364  50.8530658  71.3585571
  34.5379921  51.9032749  69.9222685  34.5090752  49.8100696  69.4949822
  33.9912278  49.9857756  68.3919429  34.7268940  48.5996772  69.9946642
  34.4498975  47.7825681  69.4695876  35.1686157  48.5014367  70.8976214
  37.0232232  51.2621493  68.9662531  37.3561580  50.2480412  68.3494824
  37.1171175  52.4896878  68.4467974  36.7567531  53.2964334  68.9360809
  37.6471477  52.6773742  67.0942107  37.0624845  52.0644604  66.4082042
  37.5937510  54.1350043  66.6166617  36.5702668  54.3639306  66.3197238
  37.9154672  54.8400513  67.3831521  38.4565423  54.3854637  65.4131242
  38.1059428  53.8565496  64.1687320  37.1827469  53.2845657  64.0757608
  38.9216903  54.0527717  63.0515149  38.6325969  53.6408433  62.0846433
  40.1044573  54.7751238  63.1743744  40.7457233  54.9287530  62.3064597
  40.4683455  55.3028633  64.4116934  41.3922725  55.8721621  64.5134677
  39.6431499  55.1002513  65.5272070  39.9296287  55.5052290  66.4977857
  39.0728494  52.1349327  66.9543824  39.3271218  51.2855998  66.1053417
  39.9945231  52.6316952  67.7795306  39.7404248  53.3329025  68.4605900
  41.3990019  52.2350618  67.6836296  41.7613232  52.4063087  66.6699744
  42.2581800  53.0509711  68.6550539  41.9078555  52.8988864  69.6759565
  43.3034803  52.7508668  68.5816731  42.2170621  54.5403731  68.4011469
  41.5611319  55.4792405  69.1420737  41.0126016  55.1201714  70.0128686
  41.7459739  56.7276397  68.6011394  41.3638184  57.5876283  68.9678494
  42.5370822  56.6193782  67.4865004  43.0027874  57.6087545  66.6088808
  42.7171625  58.6443373  66.7935026  43.7963868  57.2058243  65.5631268
  44.1816489  57.9450331  64.8608139  44.1264199  55.8484499  65.3759616
  44.7551495  55.5366508  64.5419473  43.6610704  54.8653240  66.2481218
  43.9412461  53.8294082  66.0571228  42.8546294  55.2514702  67.3276750
  41.5562318  50.7396683  67.9494156  42.2638752  50.0254407  67.2214013
  40.8682306  50.2680082  68.9856400  40.3432170  50.9111619  69.5608039
  40.8868296  48.8608026  69.3631416  41.9017163  48.5533081  69.6152355
  39.9899411  48.6389144  70.5858119  40.3412309  49.3161664  71.3642877
  38.9779855  48.9176563  70.2919601  39.9888769  47.2177585  71.1153094
  39.5645408  46.5555800  70.3606179  41.0140922  46.9150893  71.3284454
  39.1592491  47.1320881  72.3896973  39.2638285  46.1339385  72.8149730
  39.5262767  47.8704709  73.1025654  37.7397973  47.3883339  72.1377936
  37.4204350  47.3401015  71.1808292  36.8551420  47.6787610  73.0885586
  37.2401089  47.7521826  74.3580797  38.2067096  47.5868607  74.5998477
  36.5643808  47.9729782  75.0755339  35.5875795  47.8948974  72.7698577
  35.2960835  47.8384656  71.8044844  34.9185338  48.1151163  73.4937225
  40.4439774  47.9669583  68.2070749  41.0844143  46.9502697  67.9250007
  39.3638414  48.3609259  67.5348921  38.8627577  49.1811107  67.8452328
  38.7901680  47.5671690  66.4407474  38.7422380  46.5249885  66.7564398
  37.3599867  48.0390134  66.0701082  37.4165005  49.0691593  65.7183898
  36.7470089  47.1640357  64.9826221  36.6897368  46.1337507  65.3338093
  35.7451283  47.5235986  64.7479969  37.3672540  47.2082476  64.0873892
  36.5282591  47.9563216  67.2340211  35.6401044  48.2467331  67.0139239
  39.7184184  47.5334596  65.2233075  39.8622909  46.4880654  64.5737857
  40.3625536  48.6628874  64.9305214  40.1541642  49.5152104  65.4307400
  41.3549338  48.7141827  63.8545119  40.8683342  48.5163530  62.8994290
  42.0212872  50.0924476  63.7883521  42.3913798  50.3138428  64.7894089
  42.8630826  50.0047636  63.1014808  41.1010281  51.2214358  63.3244481
  40.2388243  51.2244594  63.9913035  41.6544779  52.1529913  63.4427691
  40.5283545  51.0823709  61.6110947  42.0834401  51.2819733  60.7521672
  42.7708802  50.4925490  61.0560329  41.9153852  51.2226720  59.6768339
  42.5135718  52.2525763  60.9991851  42.4113443  47.6342572  64.0684066
  42.7410379  46.8875184  63.1435497  42.9193882  47.5433189  65.2958819
  42.6604288  48.2166391  66.0027619  43.9437753  46.5546489  65.6233414
  44.6791501  46.5075520  64.8201570  44.6620358  46.9296835  66.9232267
  43.8946948  47.0969691  67.6790724  45.2895130  46.0902680  67.2228163
  45.5210203  48.1822769  66.7854504  46.1232953  48.4029124  65.7022409
  45.6076700  48.9458924  67.7681122  43.3855041  45.1295313  65.6837487
  44.0531612  44.1892319  65.2441761  42.1625030  44.9761100  66.2012071
  41.6876457  45.7806197  66.5851003  41.4749758  43.6748959  66.2413698
  42.0385226  42.9839036  66.8683018  40.0574637  43.8180362  66.8191747
  39.6001268  44.6767283  66.3276565  39.5017089  42.9156446  66.5643690
  40.0286582  44.0228038  68.3306248  41.0783990  43.9079148  69.0051075
  38.9136259  44.2948977  68.8374718  41.3598199  43.0733411  64.8329877
  41.7156155  41.9130048  64.5944877  40.8401584  43.8761811  63.9065657
  40.4798975  44.7796809  64.1785942  40.7043224  43.4680010  62.5097827
  40.1357916  42.5398874  62.4508171  39.9682816  44.5468102  61.7007661
  40.4962763  45.4882560  61.8524257  40.0247348  44.2644373  60.6494914
  38.4994929  44.7140096  62.1064175  37.9938404  43.7784786  61.8672561
  38.4820752  44.8704120  63.1849985  37.6396585  46.0769769  61.2955846
  37.0762713  45.3394357  59.7779578  36.4171016  44.5011624  60.0035509
  36.5326761  46.0811768  59.1927869  37.9333430  44.9834102  59.2063154
  42.0676472  43.1651571  61.8923226  42.2115495  42.1945977  61.1515389
  43.0612312  43.9968322  62.2082474  42.8732920  44.7897427  62.8049643
  44.4338970  43.8035516  61.7173837  44.4120097  43.9346613  60.6355194
  45.0502533  44.5832270  62.1649443  45.0412888  42.4465081  62.0393796
  45.7695924  41.8799107  61.2159531  44.7404116  41.9228058  63.2293589
  44.1831783  42.4577626  63.8800598  45.2897479  40.6295036  63.6776981
  46.3734445  40.6347334  63.5607645  44.9571217  40.3684868  65.1520685
  43.8845180  40.5126955  65.2817772  45.2131510  39.3321731  65.3725296
  45.7089266  41.2873377  66.0980760  46.7703326  41.1974281  65.8669171
  45.3786273  42.3062338  65.8959492  45.4800435  40.9614659  67.5719936
  44.4175242  40.8193584  67.7693694  46.0246997  40.0594456  67.8509354
  45.9638787  42.0725309  68.3898023  46.9581105  42.1057408  68.5644433
  45.1978243  43.0401535  68.8910630  43.8867572  43.0302450  68.7023469
  43.4614286  42.2823732  68.1733068  43.3184666  43.7706080  69.0883626
  45.7482015  44.0114117  69.6082774  46.7450647  44.0123647  69.7706442
  45.1677373  44.7452815  69.9885342  44.8497717  39.4502597  62.8130809
  45.4905846  38.4007994  62.8168054  43.7692799  39.6334020  62.0595927
  43.2233984  40.4772330  62.1599018  43.2772130  38.5945209  61.1634341
  43.5898817  37.6156609  61.5269867  41.7435065  38.6248590  61.0929294
  41.4620014  39.6442306  60.8288546  41.4532770  37.9484823  60.2889509
  41.0224647  38.2128117  62.3987528  41.2871633  38.9551713  63.1517054
  39.9505273  38.2575366  62.2062716  41.3923491  36.8134010  62.9084432
  41.8527689  35.9533345  62.1156790  41.2135233  36.5664632  64.1191790
  43.8940183  38.6659189  59.7604777  43.6072652  37.8182747  58.9066950
  44.7572554  39.6576921  59.5425221  44.9833629  40.2832048  60.3025936
  45.3590658  39.9122224  58.2308440  44.9286591  39.2700652  57.4624148
  45.1878302  41.4029789  57.8165139  45.6967480  42.0334577  58.5456227
  45.7812639  41.6467980  56.4312145  45.2725021  41.0169632  55.7014404
  45.6519112  42.6943555  56.1592003  46.8436813  41.4034038  56.4425168
  43.7087485  41.8073395  57.8645641  43.2146137  41.2968996  57.0378945
  43.3105715  41.4373906  58.8093881  43.4559562  43.3062229  57.7593852
  43.8534733  43.6768360  56.8145435  42.3838673  43.4982886  57.8022273
  43.9494334  43.8173275  58.5860364  46.8502708  39.5506040  58.2041277
  47.6624311  40.2266618  58.8361644  47.2170449  38.4805479  57.4727545
  46.3575289  37.5296447  56.7442326  46.1266436  37.9217973  55.7537738
  45.4312315  37.3690122  57.2958387  47.2134082  36.2970114  56.6912817
  46.9296669  35.6719084  55.8446199  47.1148599  35.7248843  57.6138110
  48.6149221  36.8308863  56.5362253  48.7867704  37.0562908  55.4837236
  49.3890622  36.1514617  56.8928608  48.6369281  38.1284660  57.3585268
  49.0357539  37.9833479  58.3625073  49.4394409  39.2210053  56.6438582
  49.0234707  39.7016685  55.5806326  50.5682974  39.6161245  57.2324206
  50.8305129  39.2160003  58.1219390  51.4113421  40.6787067  56.6718291
  50.8240207  41.5899787  56.5589747  52.5992956  40.9734412  57.5880032
  53.0771233  40.0320948  57.8593830  53.3113674  41.6002370  57.0511786
  52.1741993  41.6409229  58.7598959  52.9329830  41.8168022  59.3210675
  51.9123521  40.3696305  55.2660656  51.9998279  41.2678335  54.4202421
  52.2352605  39.1031412  55.0181868  52.1829191  38.4123233  55.7531224
  52.7939715  38.7009743  53.7261102  53.2333813  39.5683343  53.2334595
  53.8867843  37.6302916  53.9047851  54.2735659  37.3955444  52.9131234
  54.6829658  38.0606226  54.5122473  53.3760399  36.3536326  54.5665087
  52.2338151  36.3278166  55.0754172  54.1371469  35.3589233  54.5852545
  51.7482696  38.2399838  52.7109189  52.0948756  37.8816411  51.5808513
  50.4723511  38.2571272  53.1051563  50.2461552  38.5523147  54.0441979
  49.3826833  37.7946970  52.2405967  49.5420619  38.1992769  51.2410904
  49.3906081  36.2615753  52.1563590  49.2230833  35.8418057  53.1482405
  48.5995534  35.9300403  51.4837392  50.3548210  35.9229875  51.7772139
  48.0141430  38.2990048  52.7277107  47.1719561  37.4989835  53.1504543
  47.7771373  39.6250971  52.6647693  48.6669948  40.6821814  52.1551515
  49.1943759  40.3202139  51.2725707  49.3902104  40.9518797  52.9247755
  47.7295440  41.7927922  51.8443805  47.3596616  41.6845106  50.8247918
  48.2474940  42.7467817  51.9430377  46.6144587  41.6808531  52.8480934
  45.6698466  42.0416418  52.4411064  46.8572229  42.2397935  53.7518361
  46.5054404  40.1818261  53.1718678  46.4953002  40.0013160  54.2467685
  45.2336089  39.5949035  52.5430604  44.1828009  39.5555420  53.1962794
  45.3345708  39.1463085  51.2947578  46.2047253  39.2836557  50.8007274
  44.2178068  38.5299212  50.5756459  43.3343888  39.1648416  50.6430838
  44.5816313  38.3499207  49.0920326  43.8388488  37.7121550  48.6128371
  44.6304156  39.3054893  48.5699129  45.9180186  37.6806312  48.8925593
  46.1612937  36.3374818  48.8332561  45.2986329  35.6776273  48.9254959
  47.5050455  36.1051539  48.6621427  47.9376285  35.1963146  48.5785817
  48.1625432  37.3071296  48.6148424  49.5250852  37.5871152  48.4530479
  50.2173351  36.7523589  48.3431821  49.9046416  38.9037256  48.4430510
  50.9576483  39.1577046  48.3215128  48.9655643  39.9403048  48.5863006
  49.2771796  40.9847619  48.5760661  47.6073333  39.6634845  48.7457721
  46.9189821  40.5006216  48.8618534  47.1906465  38.3256672  48.7565457
  43.8020592  37.1883789  51.2004132  42.7659494  36.6222778  50.8368335
  44.6037641  36.6865523  52.1396194  45.4928264  37.1281340  52.3258265
  44.2862316  35.4388922  52.8425528  43.6028865  34.8441956  52.2363557
  45.5500527  34.6154339  53.1055026  46.2685476  35.2815402  53.5831705
  45.2727974  33.8226019  53.8002306  46.1775205  34.0016362  51.8584250
  45.4327102  33.3919881  51.3468708  46.5098321  34.8005498  51.1955463
  47.3671516  33.1331054  52.2416966  48.0548266  33.7361514  52.8346028
  47.0035893  32.3002008  52.8435203  48.0904237  32.5960164  51.0190798
  47.4717006  31.8191774  50.5698544  48.2170679  33.4142003  50.3101118
  49.4288637  32.0273320  51.3677520  49.3117017  31.2688863  52.0243592
  49.8763004  31.6819372  50.5307317  50.0024907  32.7471167  51.7836379
  43.5092366  35.6511327  54.1440130  43.1825338  34.6828680  54.8412841
  43.2108279  36.9053847  54.4809537  43.5855386  37.6882725  53.9644481
  42.3745007  37.1813476  55.6476359  42.8421609  36.7793420  56.5464042
  42.1760797  38.6858711  55.8314241  41.7003208  39.1013269  54.9430829
  41.5426689  38.8659104  56.7000304  43.1435630  39.1647062  55.9823950
  41.0248325  36.4633373  55.4796749  40.4863853  36.3985472  54.3662797
  40.4838439  35.8926495  56.5732908  41.0430776  35.8500538  57.9383946
  40.9458147  36.8305493  58.4045155  42.0961573  35.5722947  57.8939856
  40.2009838  34.8017305  58.6157498  40.1352432  35.0100368  59.6836383
  40.6413723  33.8161504  58.4647828  38.8760824  34.8931547  57.9651633
  38.2811566  35.7100313  58.3736667  38.3176549  33.9607654  58.0482814
  39.2089308  35.1754468  56.4913532  39.3980644  34.2558336  55.9376038
  38.0771250  35.9584752  55.8104567  37.2912419  35.3675951  55.0677391
  38.0102163  37.2672342  56.0490423  38.6668946  37.6833386  56.6938136
  36.9769323  38.1196853  55.4665019  36.2452550  37.5070235  54.9398208
  36.2540827  38.9111259  56.5651062  37.0381788  39.5593068  56.9564551
  35.4803712  39.5196280  56.0969229  35.6416588  38.1009002  57.7124585
  36.4258184  37.4989639  58.1716614  35.0291422  39.0074526  58.7529517
  34.2445259  39.6094165  58.2945681  34.6024293  38.4048568  59.5547592
  35.7976506  39.6634815  59.1617565  34.6101129  37.1100583  57.1944303
  35.0859119  36.4208062  56.4968298  34.1923599  36.5492261  58.0305230
  33.8118977  37.6491795  56.6842344  37.5503302  39.0703722  54.4178899
  37.0298994  40.1719386  54.2208312  38.6022531  38.6259442  53.7334390
  38.9779770  37.7115758  53.9404687  39.3127850  39.4660739  52.7662909
  39.7679580  40.2636075  53.3535360  40.4195066  38.6802041  52.0712758
  39.9787829  37.8835337  51.4719604  40.9889874  39.3479108  51.4247778
  41.0829343  38.2466456  52.8196005  38.3917728  40.1273547  51.7415855
  38.4763819  41.3344379  51.5188356  37.5076290  39.3472547  51.1247672
  37.4797855  38.3541434  51.3065748  36.6492601  39.8825075  50.0721376
  37.2517791  40.4681575  49.3778148  35.9553555  38.7616260  49.2927801
  35.4182051  38.1414742  50.0104013  35.2438025  39.2240501  48.6087067
  36.9320559  37.8939272  48.5011032  37.7629332  38.5285976  48.1929844
  37.2985529  37.1164269  49.1713810  36.3048285  37.2514830  47.2761248
  35.1174980  36.8579855  47.3380592  37.0096280  37.1430820  46.2456390
  35.6495287  40.9032853  50.6181146  35.5199148  41.9987938  50.0730611
  34.9786171  40.5541864  51.7144447  35.0765555  39.6160626  52.0755972
  34.0615284  41.4675882  52.3961957  33.2099792  41.6912865  51.7536054
  33.5458407  40.8242378  53.6848553  33.0948863  39.8721581  53.4050631
  34.4145255  40.6422114  54.3175899  32.5324638  41.6594350  54.4455405
  33.0105725  42.6066299  54.6952096  31.6837103  41.8439239  53.7869963
  32.0477442  40.9850173  55.7200651  31.5496400  41.7045328  56.6121232
  32.1700705  39.7447616  55.8335110  34.7280475  42.8087017  52.7179607
  34.1720704  43.8708118  52.4287194  35.9165290  42.7516246  53.3106951
  36.3115545  41.8624866  53.5817817  36.6277082  43.9697744  53.6898483
  35.9291209  44.6777948  54.1356983  37.7296209  43.6631213  54.7073975
  38.3618005  42.8804381  54.2880465  38.3376356  44.5397431  54.9308977
  37.2167346  43.1416015  56.0342467  35.9136256  43.0690041  56.4468755
  35.1553209  43.4100765  55.7420753  35.8465641  42.5550379  57.7258796
  35.0001315  42.3887252  58.2512284  37.1206500  42.3081905  58.1693855
  37.5664448  41.7957274  59.3948710  36.8249605  41.5376207  60.1509667
  38.9210974  41.6500949  59.5666076  39.3032327  41.2526832  60.5068929
  39.8325229  42.0026397  58.5545519  40.9063221  41.8855566  58.7006555
  39.3896958  42.5121462  57.3348502  40.1329363  42.7500520  56.5738671
  38.0120486  42.6738908  57.1333537  37.1945784  44.7414684  52.4941311
  37.2502004  45.9762533  52.5213780  37.6065340  44.0221633  51.4497989
  37.5878499  43.0132381  51.4924618  38.1651756  44.6588825  50.2477477
  38.8523301  45.4534337  50.5386191  38.9286796  43.6378752  49.3990900
  39.4165767  42.9214624  50.0600047  38.1876262  43.1219574  48.7885422
  39.9688364  44.2839795  48.4955935  40.6046250  45.2825976  48.9199916
  40.1662001  43.7714059  47.3717355  37.1071665  45.3490086  49.3903797
  37.4269181  46.2654142  48.6250401  35.8552109  44.9079809  49.5211726
  35.6717772  44.1380388  50.1485804  34.7450537  45.4308829  48.7197124
  35.1124234  45.7877894  47.7575501  33.7153231  44.3209863  48.4703023
  33.4327284  43.8857466  49.4288459  32.8368984  44.7616820  47.9988604
  34.2471579  43.2113317  47.5689851  35.3277641  43.3204579  46.9748675
  33.4815561  42.1290600  47.4651250  33.7779220  41.3585229  46.8832834
  32.6072045  42.0825428  47.9685595  34.0796109  46.6618634  49.3416626
  33.0409967  47.1436684  48.8657998  34.7132410  47.1614777  50.3976718
  35.6317929  46.7850777  50.5839107  34.2405829  48.2578626  51.2189637
  33.2501517  48.5920243  50.9099634  34.1541882  47.7341750  52.6498813
  34.1354284  46.6474602  52.5674306  35.0788868  48.0452441  53.1359558
  32.9949632  48.1886401  53.4562441  32.9345769  49.2769582  53.4604952
  32.0673908  47.7753459  53.0601388  33.2332840  47.5986768  55.1528031
  33.1240950  45.8353297  54.9438873  33.9045689  45.5008870  54.2604346
  33.2530148  45.3458866  55.9092503  32.1477042  45.5772895  54.5337927
  35.3221380  49.3292623  51.1926689  36.5083751  48.9938848  51.2186212
  34.9356324  50.6049969  51.1504376  33.9760341  50.8616023  50.9676148
  35.9212906  51.6818093  51.3457269  36.8896562  51.3753100  50.9502202
  35.5100625  53.0095790  50.6707269  36.3247310  53.7238978  50.7897397
  35.2137537  52.8140973  49.1712556  34.3988239  52.1002090  49.0514537
  34.9278157  53.7686203  48.7294136  36.1047236  52.4349855  48.6707085
  34.3523579  53.5468847  51.3293328  34.0986974  54.3715684  50.9084368
  36.1191831  51.9430987  52.8430590  35.3019298  51.5199842  53.6685389
  37.1857622  52.6591998  53.1993864  37.9400001  52.8497210  52.5552388
  37.3433475  53.0727236  54.5934470  37.2328942  52.2005981  55.2378818
  38.7163548  53.7034545  54.8536824  38.9894786  54.2709767  53.9640639
  38.6090804  54.3832457  55.6989493  39.8112792  52.6769500  55.1601886
  39.9318062  52.0580699  54.2710533  40.7315721  53.2314443  55.3437618
  39.4633575  51.6124042  56.5840294  39.4797470  52.8175365  57.9186861
  38.7121172  53.5701793  57.7387630  39.2803630  52.3149974  58.8651539
  40.4567117  53.2989330  57.9622601  36.2108777  53.9943375  55.0524121
  35.8624379  53.9892335  56.2357162  35.6273936  54.7625599  54.1325699
  35.9976294  54.8233363  53.1948434  34.4753507  55.6091287  54.4843757
  34.7467353  56.2497186  55.3234789  34.0373069  56.4965703  53.3115594
  34.9185860  57.0365229  52.9652971  33.6814773  55.8372317  52.5198789
  32.9331249  57.4999848  53.6766232  32.1105179  56.9494278  54.1330282
  33.3412772  58.2071039  54.3987702  32.4247217  58.2538036  52.4636507
  33.2437709  58.8523420  52.0648910  32.1097319  57.5259559  51.7159084
  31.2508802  59.1658452  52.8116981  30.7582307  59.4464585  51.8807559
  30.5580172  58.5969233  53.4316722  31.6746927  60.3983490  53.5415298
  32.3163862  60.9258869  52.9670449  30.8633993  60.9639050  53.7465892
  32.1308352  60.1385571  54.4043979  33.3061682  54.7564937  54.9750437
  32.6998970  55.0537886  56.0096909  32.9908983  53.6996426  54.2288215
  33.4655877  53.5360327  53.3524648  31.9320701  52.7713582  54.6283461
  30.9874585  53.3087470  54.7121396  31.7692689  51.6588730  53.6032473
  32.7211335  51.1295188  53.5603852  30.9987816  50.9895069  53.9858676
  31.3921502  52.1197953  52.2283458  30.4423170  52.6515884  52.2841483
  32.1678424  52.7987649  51.8742258  31.2636410  50.9605564  51.2711967
  30.4249595  50.0651851  51.5472702  31.9896841  50.9549969  50.2519506
  32.2023662  52.1461074  55.9887543  31.2810862  52.0025071  56.7988642
  33.4556031  51.7636738  56.2346401  34.1607001  51.8253782  55.5141332
  33.8149509  51.1353573  57.5030081  33.0921251  50.3507887  57.7267807
  35.2192058  50.5128606  57.4648371  35.1419519  49.7823854  56.6595192
  35.9450938  51.2787110  57.1915975  35.6779366  49.8083753  58.7535848
  35.7536798  50.5565154  59.5426666  34.6979710  48.7043345  59.1865368
  34.6220523  47.9555349  58.3980989  35.0607905  48.2336047  60.1002524
  33.7157498  49.1405093  59.3684527  37.0774890  49.2436861  58.6050816
  37.7746793  50.0522676  58.3854886  37.3719798  48.7525477  59.5325295
  37.0932032  48.5197811  57.7903340  33.6721109  52.1133480  58.6661491
  33.1150875  51.7541986  59.7027092  34.1487558  53.3467488  58.4878994
  34.6796167  53.5705015  57.6583087  34.0166130  54.3732655  59.5265061
  34.3791396  53.9755739  60.4744065  34.8272438  55.6326613  59.1799748
  34.4155146  55.9271729  58.2146556  34.5941905  56.3962959  59.9220317
  36.3484823  55.4825773  59.0620161  36.5784953  54.8288801  58.2206632
  36.9964042  56.8429202  58.8395070  36.7672048  57.4970671  59.6807313
  38.0766063  56.7223873  58.7574333  36.6097415  57.2842130  57.9208923
  36.9486197  54.7984326  60.2861848  36.5152148  53.8044065  60.3965109
  38.0280554  54.7118514  60.1619934  36.7320400  55.3894731  61.1760518
  32.5540886  54.7269722  59.8083319  32.1759767  54.9216546  60.9685935
  31.7373796  54.7843675  58.7544185  32.1217323  54.6934455  57.8248458
  30.3007699  55.0452454  58.8902572  30.1483233  55.9919690  59.4084981
  29.6253445  55.1257158  57.5109403  29.9753650  54.2783260  56.9214358
  28.5489580  55.0430704  57.6614789  29.9371568  56.4241615  56.7701638
  30.4526475  57.3813424  57.3896757  29.6583903  56.4824639  55.5504852
  29.6182126  53.9816894  59.7525288  28.7041891  54.2885160  60.5170210
  30.0718611  52.7351694  59.6332939  30.7866508  52.5259233  58.9510981
  29.5313636  51.6337633  60.4325462  28.4492817  51.7355961  60.5151779
  29.8474128  50.2861163  59.7780836  30.9176860  50.2764151  59.5718788
  29.6120911  49.5142378  60.5108368  29.0822928  50.0150736  58.4941941
  28.0146893  50.0605918  58.7092561  29.3390705  50.7853668  57.7669971
  29.4263828  48.6484869  57.9266626  30.4915540  48.6219700  57.6968664
  29.1977191  47.8898932  58.6752264  28.6271610  48.3691035  56.6606755
  27.6407221  48.8200626  56.7687252  29.1449101  48.8266753  55.8176671
  28.4800684  46.9038693  56.4178474  27.9999514  46.4797526  57.1986883
  27.9467195  46.7544725  55.5732649  29.3939989  46.4858804  56.3172716
  30.0705521  51.6330487  61.8644419  29.3351709  51.3670092  62.8148274
  31.3571940  51.9319832  62.0073393  31.8822501  52.2474245  61.2042750
  32.0688413  51.7435571  63.2701808  31.6690067  50.8821854  63.8052231
  33.5558181  51.4971468  62.9862210  33.5096283  50.6894450  62.2557530
  33.8969492  52.4095760  62.4971376  34.5313240  51.1213405  64.0989815
  34.5871375  51.9459519  64.8096163  34.0736321  49.8580396  64.8214010
  34.0180205  49.0328232  64.1114544  34.7852594  49.6114271  65.6093538
  33.0901306  50.0259601  65.2602949  35.9181978  50.9253099  63.4873842
  36.2395209  51.8510548  63.0100508  36.6266263  50.6561924  64.2708421
  35.8789446  50.1286787  62.7444597  31.9108531  52.8966830  64.2589969
  31.8361657  52.6700554  65.4728448  31.8718618  54.1226409  63.7451926
  31.9049429  54.2475590  62.7434938  31.8727741  55.3130982  64.5920265
  32.2740623  55.0670852  65.5751565  32.7403785  56.4115862  63.9701032
  32.3525406  56.7008591  62.9933728  32.7770084  57.2862575  64.6194941
  34.4691870  55.9117437  63.6987736  34.8683204  57.0686744  63.1780988
  30.4599664  55.8158443  64.8579620  29.7558330  56.2431063  63.9414035
  30.0552265  55.7493763  66.1252348  30.6476303  55.3056497  66.8124493
  28.7279285  56.1972830  66.5405716  28.0416575  56.1476039  65.6951939
  28.1850754  55.3088206  67.6647953  28.9642949  55.1118151  68.4010731
  27.3354732  55.7849763  68.1542358  27.7063069  53.9718331  67.1779162
  28.4610403  52.9969424  66.5859030  29.5228978  53.2086348  66.4604247
  27.6765200  51.9147576  66.2649529  27.9950623  51.0696311  65.8128559
  26.3875557  52.1712176  66.6562956  25.2364216  51.3785626  66.5471422
  25.3233240  50.3937291  66.0881763  24.0610205  51.8996531  67.0307026
  23.1457056  51.3110464  66.9687282  24.0096936  53.1804229  67.6066127
  23.0703406  53.5864479  67.9819249  25.1519294  53.9680960  67.7157104
  25.0581922  54.9555264  68.1677008  26.3677844  53.4602256  67.2352677
  28.6932008  57.6719699  66.9410006  27.6167716  58.2184083  67.1920529
  29.8645629  58.3030602  66.9945332  30.7192371  57.7734872  66.8987013
  29.9642273  59.7457924  67.2396475  28.9665348  60.1837832  67.2691903
  30.6922733  60.0740063  68.5787001  30.6559990  61.1514613  68.7395573
  30.0326365  59.3630568  69.7534780  30.0689427  58.2854654  69.5935464
  30.5624659  59.6114163  70.6730961  28.9938468  59.6828683  69.8355587
  32.0725665  59.6789766  68.5046734  32.5095507  59.8859511  69.3340145
  30.6938446  60.4390373  66.0918378  31.5726791  59.8410697  65.4628397
  30.3268896  61.6939950  65.8259726  29.5057220  62.0806836  66.2689793
  31.0356264  62.5146900  64.8371896  31.1220038  61.9588243  63.9035668
  30.2921453  63.8292850  64.5586545  29.9514439  64.2115881  65.5208739
  31.0181759  64.5202354  64.1302071  29.1003274  63.6939182  63.6144089
  28.3669330  63.0511387  64.1013051  28.6747438  64.6873317  63.4726079
  29.4730234  63.1035967  62.2605643  30.3430671  63.6726558  61.5640353
  28.8862175  62.0661791  61.8978777  32.4731928  62.8017815  65.2681504
  33.3672937  62.8710147  64.4280931  32.6818784  62.9592073  66.5751043
  31.8903385  62.9609554  67.2024485  34.0122763  63.1961882  67.1362374
  34.4195471  64.1291907  66.7467042  33.9318091  63.2967473  68.6629407
  33.3769559  64.1987736  68.9209829  33.3993623  62.4231956  69.0391160
  35.2237220  63.3520758  69.2495163  35.1394673  63.4144997  70.2037721
  34.9962834  62.0968678  66.7196660  36.0824879  62.3845415  66.2096223
  34.6015620  60.8425715  66.9181622  33.7278200  60.6504639  67.3869574
  35.4510455  59.7112788  66.5428603  36.4338853  59.8780133  66.9836830
  34.8895607  58.4093359  67.0871567  33.9093421  58.2240053  66.6479254
  35.5615024  57.5892732  66.8339931  34.7942863  58.4789969  68.1707477
  35.6391969  59.6217569  65.0308640  36.7621304  59.4198996  64.5560388
  34.5475274  59.7810460  64.2826750  33.6429824  59.8975761  64.7166317
  34.6111862  59.6965370  62.8206932  35.0734475  58.7520697  62.5336474
  33.2138472  59.7685385  62.1938881  32.5891251  59.0390090  62.7092601
  32.8273365  60.7710922  62.3771789  33.1969496  59.4823378  60.6889862
  33.9922216  60.0641639  60.2230231  33.3911769  58.4198331  60.5424884
  31.8624451  59.8464830  60.0525430  31.5734364  60.8402211  60.3946798
  31.9848406  59.8570077  58.9694880  30.7876179  58.8522986  60.4281464
  31.1741332  57.8482912  60.2530014  30.5634191  58.9750338  61.4877548
  29.5437145  59.0515990  59.6310400  29.7511573  58.9374872  58.6491817
  28.8521245  58.3706010  59.9104056  29.1851624  59.9817276  59.7935212
  35.5235931  60.7759832  62.2383192  36.2754493  60.5131004  61.2956003
  35.4629445  61.9799705  62.8046603  34.7593419  62.1773082  63.5018695
  36.3340768  63.0732904  62.3686452  36.2454078  63.2046086  61.2902239
  35.9461120  64.3824453  63.0532989  35.7476004  64.1529007  64.1001999
  36.8052915  65.0496887  62.9847648  34.7312764  65.0584418  62.4448401
  35.0142486  65.4761513  61.4786381  33.9478958  64.3139573  62.3028550
  34.1853991  66.1778469  63.3170243  34.7549376  66.5098471  64.3610428
  33.0704996  66.7652179  62.8929436  32.6620418  67.5153417  63.4319964
  32.6371770  66.4585778  62.0336970  37.8203798  62.7763419  62.5832498
  38.6307172  62.9998873  61.6817806  38.1735038  62.2717010  63.7662270
  37.4875519  62.1559878  64.4984699  39.5719322  61.9584967  64.0689611
  40.2026976  62.7905050  63.7559175  39.7847645  61.7193211  65.5720045
  39.3820773  62.6242266  66.0270741  39.1939358  60.8599481  65.8890211
  41.2448278  61.5289040  66.0156693  41.6602285  60.6807901  65.4713846
  42.0922547  62.7775872  65.7400483  41.6777116  63.6260756  66.2844013
  43.1167709  62.6016739  66.0679535  42.0852660  62.9935110  64.6716718
  41.3107111  61.1430758  67.4861240  40.7696448  60.2097755  67.6420004
  42.3517115  61.0126863  67.7817894  40.8580373  61.9299940  68.0894026
  40.0454589  60.7585479  63.2515136  41.1733208  60.7452616  62.7535006
  39.1694530  59.7648169  63.0991408  38.2808870  59.8025989  63.5778079
  39.4749741  58.5781862  62.2924058  40.3753761  58.1050626  62.6842343
  38.3314336  57.5776937  62.3601250  37.4247964  58.0339366  61.9626939
  38.5832205  56.6968141  61.7695702  38.1655848  57.2842955  63.3967111
  39.7512433  58.9624987  60.8401271  40.6448245  58.4021595  60.1989372
  38.9785278  59.9216038  60.3307302  38.2052763  60.2773751  60.8744289
  39.1436189  60.4056029  58.9620758  39.1715099  59.5628159  58.2714013
  37.9722778  61.3347964  58.5615268  37.9135490  62.1492612  59.2835367
  38.1717771  61.9098437  57.1612448  38.2301376  61.0959354  56.4385784
  37.3317643  62.5577718  56.9109112  39.0960543  62.4869265  57.1331775
  36.7472439  60.5782540  58.5900132  36.0142568  61.1467402  58.3427204
  40.5013950  61.0864842  58.7858265  41.2129822  60.8219610  57.8160760
  40.8634041  61.9394762  59.7422198  40.2083001  62.1781261  60.4729621
  42.1664275  62.5981950  59.7385161  42.2915196  63.1751040  58.8222043
  42.2745441  63.5530740  60.9389884  41.4026693  64.1906732  60.7926979
  42.1410666  62.9575149  61.8420903  43.5317029  64.4289493  61.0836542
  43.8959716  64.6990655  60.0924699  43.2020965  65.6914191  61.8633648
  42.8381753  65.4221036  62.8548936  44.0985499  66.3039157  61.9599054
  42.4328653  66.2548460  61.3352229  44.6942871  63.6904502  61.7338289
  44.9602197  62.8247125  61.1272998  45.5526743  64.3579489  61.8094472
  44.4031711  63.3594190  62.7307084  43.2885413  61.5512210  59.7584952
  44.2536643  61.6456222  59.0018850  43.1409502  60.5525361  60.6313469
  42.3851282  60.6055794  61.2991933  44.0803800  59.4227139  60.7284733
  45.0633609  59.7747768  61.0413622  43.5677716  58.4173841  61.7646445
  43.5927330  58.8308125  62.7728871  42.5400943  58.1686780  61.4998339
  44.3280860  57.1154404  61.8131305  45.6715335  57.0772295  62.1741633
  46.1861203  58.0097214  62.4060232  46.3640886  55.8575586  62.2417245
  47.4190007  55.8429110  62.5156705  45.7001812  54.6631090  61.9576274
  46.2317048  53.7125237  62.0020137  44.3498741  54.6908769  61.6156967
  43.8210136  53.7619716  61.4022920  43.6712420  55.9158097  61.5462747
  42.6144136  55.9390596  61.2804308  44.3278952  58.7484851  59.3727998
  45.4786518  58.5376845  58.9873608  43.2534544  58.4266796  58.6506334
  42.3256948  58.5298667  59.0362677  43.3917994  57.8098023  57.3254832
  44.0688966  56.9563714  57.3614597  42.0263286  57.3369361  56.7506369
  41.3324510  58.1773693  56.7681057  42.1737629  56.8278896  55.3163588
  42.8671849  55.9870950  55.2981537  41.2019110  56.5048143  54.9432278
  42.5574443  57.6283666  54.6838031  41.4306402  56.2451654  57.6413995
  41.2783648  56.6384693  58.6464996  40.4747186  55.9211621  57.2298957
  42.1137990  55.3968544  57.6833908  44.1057504  58.7618149  56.3617302
  45.0864316  58.3755268  55.7181372  43.6473126  60.0108750  56.3007579
  42.8548212  60.2839042  56.8642398  44.2549115  61.0195040  55.4139450
  44.1173200  60.7148667  54.3764655  43.6146490  62.4061973  55.6086032
  43.7638084  62.7139053  56.6435749  44.1329459  63.0991217  54.9457879
  42.1113921  62.4563466  55.2931386  41.4389182  63.4084322  55.6993662
  41.5854511  61.4631933  54.5694836  40.6001627  61.4711111  54.3475739
  42.1757342  60.7093719  54.2478938  45.7593705  61.1720288  55.6505063
  46.5341993  61.2981292  54.7027490  46.1568258  61.1785537  56.9226481
  45.4624549  61.0812506  57.6496146  47.5492787  61.3932696  57.3176293
  47.9914181  62.1948399  56.7259395  47.6042683  61.7887729  58.7959241
  46.9895434  62.6885328  58.8213119  47.0956252  60.9866479  59.3306930
  48.9484961  62.0721327  59.4627110  49.5130787  61.1408206  59.5074904
  49.7557877  63.1226880  58.6876479  49.1920085  64.0544843  58.6428439
  50.7056303  63.2972698  59.1930399  49.9438093  62.7633863  57.6758917
  48.6807699  62.5392438  60.8843681  48.1482749  61.7597419  61.4292766
  49.6272157  62.7485417  61.3829021  48.0745818  63.4448498  60.8617257
  48.4422686  60.1793234  57.0615441  49.6190851  60.3338966  56.7096292
  47.8861601  58.9808593  57.2583131  46.9286209  58.9260510  57.5748791
  48.6219224  57.7363516  57.0614008  49.5760491  57.7878006  57.5858953
  47.8289742  56.5439466  57.6039259  46.7698915  56.6685926  57.3783010
  48.1902087  55.6206597  57.1509901  47.9343927  56.3021046  59.3775339
  47.1493858  55.2292636  59.4184574  48.9365051  57.4775148  55.5942218
  50.0493058  57.0649565  55.2603308  47.9526407  57.7118069  54.7216881
  47.0781185  58.1092559  55.0336893  48.0456960  57.2370879  53.3387378
  49.0736754  57.0509579  53.0277506  47.2087329  55.9295669  53.1119171
  47.2836710  55.6411812  52.0634338  47.7309763  54.7894063  53.9937394
  47.6559215  55.0768923  55.0424622  47.1357654  53.8929900  53.8197783
  48.7730831  54.5865403  53.7468376  45.7156662  56.1605400  53.3437366
  45.3534959  56.9212872  52.6522177  45.1732144  55.2300833  53.1761181
  45.5540467  56.4951978  54.3684239  47.7281853  58.2994861  52.2711400
  47.5209026  57.9686382  51.0985470  47.6950075  59.5652117  52.6936314
  47.6779977  59.7201242  53.6915353  47.5093065  60.7278501  51.8010397
  47.1017490  61.5643270  52.3687566  48.8390309  61.1800712  51.1358726
  48.6342048  62.0096008  50.4590957  49.8415245  61.6269536  52.2006020
  50.0472138  60.7977559  52.8775235  50.7678040  61.9407575  51.7193199
  49.4251555  62.4613411  52.7649909  49.3921218  60.0999079  50.3770421
  50.2130388  60.3835575  49.9680941  46.3894275  60.5263545  50.7727657
  46.5174455  60.8793334  49.5945852  45.2791265  59.9761235  51.2548442
  45.2381238  59.7285206  52.2331647  44.1297011  59.6671133  50.4156882
  44.0703664  60.3708801  49.5854528  44.2507956  58.2483955  49.8475772
  44.3020407  57.5314652  50.6670191  43.3814553  58.0292791  49.2276291
  45.1551129  58.1742825  49.2435766  42.8468943  59.8199371  51.2291300
  42.8738198  59.7965418  52.4672365  41.7245705  59.9847981  50.5349620
  41.7497561  60.0098997  49.5255885  40.4307280  60.1597652  51.2026887
  40.5567705  60.7748577  52.0936846  39.4323660  60.8473515  50.2717491
  39.2616428  60.1649221  49.4391370  38.5089027  60.9664889  50.8384253
  39.8780805  62.2066715  49.7328477  40.8717264  62.0509597  49.3127018
  39.1925852  62.5086283  48.9410033  39.9408485  63.2971207  50.7919580
  39.1598901  63.2643220  51.7706705  40.7585957  64.2205374  50.6336351
  39.8754846  58.8090070  51.6330724  40.2021940  57.7852520  51.0424012
  39.0240780  58.8052200  52.6535984  38.7549072  59.6629359  53.1140004
  38.5081512  57.5412975  53.1835801  39.3379343  56.8820767  53.4385058
  37.6474096  57.7570829  54.4407807  37.1888894  56.8082965  54.7194634
  38.4976980  58.2716161  55.6010713  38.9562038  59.2206719  55.3232850
  37.8669622  58.4163651  56.4781797  39.2774476  57.5454373  55.8307570
  36.6126781  58.7040018  54.1500207  36.0743140  58.8402112  54.9330988
  37.7028604  56.7772653  52.1413467  37.7079882  55.5422320  52.1261994
  37.0124835  57.5186491  51.2728331  36.9672330  58.5200062  51.3966704
  36.2239190  56.9135053  50.1875686  35.7472800  55.9996442  50.5422126
  35.1328532  57.8832177  49.7122526  34.5476520  57.4015499  48.9289041
  34.4732101  58.1789443  50.5280447  35.6778403  59.1444570  49.1244930
  35.7150024  60.3320414  49.8233144  36.2578573  61.2666108  49.0632666
  36.3672190  62.2860942  49.4331214  36.5872685  60.7253229  47.9046965
  37.0268509  61.2021383  47.1304135  36.2357219  59.3980218  47.9150857
  36.4283978  58.7763375  47.0407369  37.0552403  56.4336856  48.9873703
  36.5138675  55.7795634  48.0896328  38.3508310  56.7626846  48.9614037
  38.7319992  57.3423511  49.6954316  39.2321506  56.3695219  47.8579977
  38.6578630  56.3018971  46.9340282  40.3547509  57.4068085  47.6650879
  40.7765578  57.6085444  48.6497100  41.1129586  56.9438964  47.0334761
  39.8912477  58.7279926  47.0253009  39.5860658  58.4823284  46.0081411
  39.0296445  59.0926973  47.5845232  40.9678013  59.8108796  46.9860052
  41.9488751  59.7444493  47.7609498  40.8138533  60.7584743  46.1791686
  39.8475343  54.9744380  48.0435457  40.1912488  54.3113020  47.0601739
  39.9883328  54.5467036  49.3014713  39.5846356  55.0794920  50.0586136
  40.8093747  53.3767968  49.6343997  41.2688421  52.9402127  48.7476172
  41.9356122  53.7344258  50.6551942  42.6070092  52.8806423  50.7467318
  42.7235968  54.9515948  50.1987627  42.0529071  55.8059576  50.1074362
  43.5006921  55.1768209  50.9291712  43.1830205  54.7460209  49.2319271
  41.3679431  53.9727197  52.0569038  40.8628907  53.0709472  52.4030693
  42.1797879  54.2192544  52.7411759  40.6564059  54.7978575  52.0258669
  40.0108960  52.1765019  50.1503134  38.9834355  52.3380185  50.8304372
  40.5007798  50.9799440  49.8276092  41.2842203  50.9280152  49.1922953
  39.9532178  49.7340262  50.3539797  38.8905038  49.6620048  50.1225688
  40.6751202  48.5437068  49.7148542  40.2261914  48.3447134  48.7417335
  41.7258706  48.8021805  49.5836484  40.5710443  47.3844399  50.5301483
  41.0303955  46.6544644  50.1085655  40.1293289  49.6526237  51.8704112
  41.1922211  50.0012791  52.3950688  39.0968285  49.1642335  52.5613409
  38.1973904  49.0473534  52.1169879  39.2045882  48.8843115  53.9916554
  39.5736593  49.7958151  54.4618116  37.8469774  48.5457050  54.5872589
  37.4684401  47.6300937  54.1328741  37.9471908  48.4022797  55.6631245
  37.1508101  49.3616895  54.3933008  40.2224972  47.7770821  54.2884605
  41.0325326  47.9218303  55.2046514  40.1844686  46.6853750  53.5189299
  39.4486706  46.5563220  52.8391902  41.1741587  45.6090905  53.6888685
  41.0915238  45.2067943  54.6985360  40.9610250  44.4662154  52.6865095
  39.9764028  44.0769177  52.9454797  40.9377001  44.8669151  51.6731015
  41.9989528  43.3304828  52.7655192  42.9948242  43.7648904  52.6781643
  41.8902750  42.5631489  54.0904135  40.8947571  42.1280365  54.1782771
  42.6366112  41.7690701  54.1132573  42.0621700  43.2466528  54.9219031
  41.8485217  42.3896817  51.5719968  42.0015349  42.9470060  50.6478344
  42.5885147  41.5923970  51.6416305  40.8479940  41.9571993  51.5734475
  42.6049839  46.1292123  53.5643030  43.4412370  45.8659438  54.4337922
  42.8788764  46.8664665  52.4860934  42.1933812  46.9954152  51.7556361
  44.2254725  47.3942906  52.2738231  44.9411662  46.5748639  52.3403186
  44.3760832  48.0680092  50.8996155  44.3806399  47.2969506  50.1291954
  43.6040831  48.8032300  50.6725335  45.6901994  48.7814542  50.7999326
  46.9103453  48.2341961  50.4997902  46.9335513  47.1668767  50.2798115
  47.8859955  49.2053038  50.5453820  48.8680464  49.0645164  50.3560292
  47.3051943  50.3973728  50.8925582  47.8774299  51.6600128  51.0688808
  48.9520803  51.7703382  50.9237826  47.0406946  52.6897547  51.4168530
  47.4529839  53.6888796  51.5578031  45.6642179  52.4906600  51.5967167
  45.0097894  53.3163707  51.8760457  45.0942642  51.2371454  51.4245796
  44.0172612  51.1357478  51.5583099  45.9238238  50.1645173  51.0677034
  44.6619235  48.3371511  53.4077440  45.7800053  48.2367473  53.8977472
  43.7834081  49.2454877  53.8381975  42.8773360  49.3678012  53.4090447
  44.1793534  50.1731445  54.9033497  45.1435296  50.6123104  54.6472309
  43.1663242  51.3002562  55.1007377  43.0545567  51.8384790  54.1595027
  42.1933706  50.9315901  55.4256171  43.6067509  52.3087271  56.1226521
  44.5281370  53.2986902  55.7897338  44.9098985  53.3509841  54.7701146
  44.9639716  54.2197287  56.7476990  45.6854101  54.9911635  56.4784119
  44.4741115  54.1491736  58.0468756  44.8005945  54.8721143  58.7944487
  43.5673389  53.1554599  58.3914721  43.1917087  53.0901569  59.4126173
  43.1367210  52.2396048  57.4291574  42.4245321  51.4598361  57.6990605
  44.4313920  49.4564337  56.2296589  45.3709719  49.7881967  56.9592012
  43.6003710  48.4623762  56.5322721  42.7973460  48.2602915  55.9539885
  43.7859910  47.6843540  57.7589647  43.8746687  48.3581692  58.6111434
  42.5995423  46.7550185  57.9938263  42.5027956  46.2042940  57.0581758
  42.8638865  46.0651164  58.7952358  41.2667201  47.4365351  58.3254918
  41.1264193  48.2999646  57.6751795  40.1353810  46.4551388  58.1112580
  40.2747518  45.5915908  58.7616114  39.1863315  46.9369592  58.3463217
  40.1288214  46.1288073  57.0712748  41.2518436  47.9670295  59.7530310
  42.0525399  48.6958567  59.8787124  40.2924532  48.4437471  59.9540577
  41.3998762  47.1416972  60.4494589  45.0955911  46.8945865  57.7132493
  45.7838939  46.7775677  58.7244204  45.4342795  46.3762983  56.5343581
  44.7836296  46.4037172  55.7623463  46.7231028  45.7149177  56.3318655
  46.8324078  44.9101365  57.0588309  46.8369784  45.1210092  54.9224320
  46.2259051  44.2217994  54.8442624  46.5195052  45.8420322  54.1691481
  48.2629713  44.7125884  54.5623961  48.9068426  43.5585059  54.9251608
  48.3435428  42.8514902  55.5341943  50.1914785  43.5475934  54.4122382
  50.8683640  42.8079723  54.5342471  50.3974795  44.7082111  53.7104540
  51.5316938  45.1546275  53.0202248  52.4167886  44.5185554  53.0093558
  51.4554779  46.3784718  52.3944211  52.3179338  46.7575584  51.8461847
  50.2832149  47.1569246  52.4458382  50.2322025  48.1265038  51.9504461
  49.1529535  46.7115286  53.1314486  48.2664430  47.3457203  53.1322803
  49.2044058  45.4674026  53.7822407  47.8573347  46.7001087  56.5704145
  48.8076606  46.3953058  57.2940946  47.7433847  47.8788393  55.9538786
  46.9331118  48.0547565  55.3771548  48.7897594  48.9021327  56.0119884
  49.7062621  48.5235441  55.5594481  48.3469636  50.1540053  55.2473049
  47.9312058  49.8217113  54.2960818  47.5683745  50.6435122  55.8323538
  49.4728566  51.1295100  54.9913859  50.2918039  50.9933255  53.8658247
  50.1013967  50.1720789  53.1748844  51.3351957  51.8832349  53.6195485
  51.9734897  51.7575674  52.7449685  51.5743378  52.9218875  54.5105063
  52.6000970  53.8088206  54.2593073  53.0758609  53.6123358  53.4489728
  50.7756864  53.0840861  55.6325542  50.9581099  53.9050013  56.3260384
  49.7288308  52.1843820  55.8719700  49.1005942  52.3016948  56.7549516
  49.1716606  49.2493349  57.4491394  50.3524267  49.3028249  57.7873322
  48.1674176  49.4682997  58.2945437  47.2162648  49.4585133  57.9549675
  48.3991446  49.8095213  59.6971126  49.1493640  50.5929627  59.8043020
  47.0963565  50.2810536  60.3674926  46.3227915  49.5348764  60.1860645
  47.2818029  50.4661342  61.8721942  48.0549443  51.2125562  62.0544229
  46.3437842  50.7995312  62.3161174  47.5792160  49.5185857  62.3214146
  46.6291133  51.5825110  59.7197137  46.4500245  51.4163903  58.6574364
  45.7065499  51.9150341  60.1955337  47.3967669  52.3464359  59.8431136
  49.0120171  48.6301009  60.4559998  49.9882433  48.7995612  61.1942555
  48.4530443  47.4375895  60.2547760  47.6403363  47.3521957  59.6612164
  48.9317157  46.2391612  60.9569643  48.9076478  46.4011291  62.0345943
  48.0314534  45.0451179  60.6209326  47.0283168  45.3126690  60.9529457
  48.0405702  44.9484366  59.5352671  48.4380520  43.7196874  61.2517841
  49.0244679  43.9285680  62.1465389  47.5340511  43.1773751  61.5288792
  49.2676597  42.8685706  60.2850565  48.6606110  42.6452442  59.4077217
  50.1457050  43.4394264  59.9829644  49.7089268  41.5692730  60.9396603
  50.2610398  40.9845062  60.2039160  50.3642535  41.8117182  61.7762404
  48.5543062  40.7821693  61.4295553  47.9471621  40.5570422  60.6544466
  48.8854430  39.9289460  61.8567068  48.0428165  41.3236844  62.1116395
  50.4074444  45.9300146  60.6484357  51.1761680  45.5569837  61.5486818
  50.8025605  46.1031002  59.3897690  50.1289536  46.3385331  58.6749792
  52.1712834  45.7682891  58.9738157  52.5130891  44.8943756  59.5283815
  52.2416008  45.4539848  57.4680643  53.2732649  45.1726297  57.2568590
  51.5898111  44.5969632  57.2984048  51.8277622  46.5976804  56.5464310
  51.3323996  46.1821357  55.6689122  51.1290361  47.2330658  57.0906456
  52.9982460  47.4472530  56.0858617  54.1073473  46.9451740  55.8758189
  52.7542490  48.7384575  55.9154821  53.4950707  49.3532433  55.6099938
  51.8285700  49.1019154  56.0918851  53.2126141  46.8102558  59.4242606
  54.4203231  46.6097776  59.2507081  52.7399805  47.9091998  60.0127447
  51.7520225  48.1138967  59.9665114  53.6188373  48.8723697  60.6836692
  54.6319337  48.7757123  60.2932948  53.1384148  50.3091701  60.4489867
  52.0854924  50.3942867  60.7177037  53.7248819  50.9978882  61.0571181
  53.2716488  50.9068378  58.7425949  52.7764434  52.1180720  58.9804635
  53.7143500  48.6026526  62.1882459  54.4844655  49.2678546  62.8957835
  52.9331054  47.6380753  62.6742064  52.3262165  47.1258687  62.0501635
  52.9212848  47.2892363  64.0934762  52.9772373  46.2028623  64.1624701
  53.8115917  47.7277412  64.5442160  51.6941599  47.7707694  64.8520382
  51.6295104  47.6364948  66.0764767  50.7236523  48.3339965  64.1309389
  50.8480660  48.4778193  63.1390036  49.4565106  48.7597687  64.7435578
  48.6610614  48.4077457  64.0867171  49.3884144  48.2469138  65.7029546
  49.2879813  50.2513978  64.9678332  50.2060190  51.0442731  64.7006583
  48.1116397  50.6269407  65.4777567  47.4272378  49.9201689  65.7061577
  47.7229581  52.0380017  65.6003921  47.8406649  52.5325087  64.6361788
  46.2534301  52.2265671  66.0802791  46.0672043  53.2901561  66.2292713
  45.2646399  51.6749603  65.0476593  45.4499596  50.6112408  64.8984713
  44.2455655  51.8188483  65.4066617  45.3940713  52.2018762  64.1022981
  46.0583419  51.5581879  67.3318645  45.1509037  51.6788242  67.6210065
  48.6651474  52.8527780  66.4819616  49.1200982  53.9100530  66.0609054
  48.9607515  52.3722944  67.6914131  48.5380801  51.5180558  68.0256652
  49.8328625  53.1207939  68.6044535  49.4022803  54.1095855  68.7625342
  49.9677923  52.4189255  69.9687001  50.4356159  51.4454608  69.8217043
  50.8231484  53.2567373  70.9202580  50.3556887  54.2302461  71.0681152
  50.9077146  52.7454694  71.8791911  51.8165250  53.3924593  70.4926097
  48.6669849  52.2641464  70.5418122  48.7423704  51.8270419  71.3931975
  51.2145140  53.3692611  67.9934894  51.7211009  54.4922709  68.0221582
  51.8146103  52.3295076  67.4217298  51.3762681  51.4195898  67.4239555
  53.1557008  52.4520727  66.8493460  53.8339451  52.8735826  67.5912444
  53.6920998  51.0781002  66.4181365  53.5417833  50.4026024  67.2602807
  53.0808776  50.7509407  65.5770217  55.1703247  51.0654873  66.0107620
  55.3719459  50.1274195  65.4935787  55.3419874  51.8992783  65.3300076
  56.1035766  51.1928347  67.2193035  57.0971314  51.4804033  66.8754252
  55.7164053  51.9588061  67.8912302  56.2087462  49.9341119  67.9550625
  55.7807503  49.1249755  67.5281935  56.8225456  49.7841759  69.1266446
  57.3953782  50.8230318  69.7258067  57.3651786  51.7334516  69.2895456
  57.8582666  50.6973085  70.6146417  56.8577176  48.5852364  69.7011730
  56.4193484  47.7974170  69.2459005  57.3226337  48.4680601  70.5901171
  53.1848450  53.4348968  65.6709181  54.1121655  54.2384421  65.5517431
  52.1655570  53.3850000  64.8163514  51.4579684  52.6697930  64.9052151
  52.1469526  54.2364844  63.6234683  53.1285231  54.3984236  63.1780536
  51.1643758  53.6868503  62.5348976  51.2511722  52.6004987  62.5147240
  49.6956259  54.0816734  62.8267577  49.6079429  55.1679595  62.8466289
  49.0489389  53.6796848  62.0468206  49.3947562  53.6756663  63.7925396
  51.6185320  54.0857709  61.1248545  51.5350494  55.1701310  61.0520911
  52.6644520  53.7950143  61.0268172  50.7974054  53.4320370  60.0003381
  49.7513794  53.7227248  60.0974475  51.1773716  53.7618781  59.0334204
  50.8807804  52.3476073  60.0721752  51.9116686  55.7251154  63.9363090
  52.4600660  56.5962837  63.2577142  51.1204683  56.0155162  64.9687820
  50.6737036  55.2766072  65.4927230  50.7718155  57.4110471  65.2922021
  50.9377639  58.0826853  64.4499061  49.2986952  57.5627894  65.7974693
  49.0892873  58.6214204  65.9509263  48.3141413  56.9928972  64.7899831
  48.5226410  55.9341134  64.6363429  47.2982528  57.1116834  65.1667605
  48.4143058  57.5235284  63.8431479  49.1074272  56.9458193  67.1907709
  48.3031422  56.2140970  67.1145547  50.0361056  56.4383251  67.4517413
  48.7694394  57.9534811  68.2577559  47.8405684  58.4610899  67.9976947
  48.6492472  57.4443842  69.2140369  49.5735314  58.6853198  68.3348796
  51.7108975  58.0961318  66.2771275  51.6132079  59.3101227  66.4801246
  52.6043427  57.3312372  66.8976804  52.6652741  56.3446254  66.6903546
  53.4417210  57.8670222  67.9682620  52.9196681  58.6835437  68.4671133
  53.7633109  56.7803747  69.0090954  54.1836382  55.9140023  68.4983870
  54.4927239  57.1731519  69.7174617  52.5868148  56.3941448  69.7063131
  52.8046071  55.7167530  70.3507561  54.7217685  58.5193186  67.4697594
  55.3476273  58.0509398  66.5073936  55.0870171  59.6208244  68.1229113
  54.4007271  60.1120699  68.6776935  56.4095049  60.2163013  67.9731542
  56.7705670  60.0252016  66.9626027  56.3662900  61.7486110  68.2021639
  55.9567844  61.9362544  69.1947340  57.7515756  62.3727196  68.0986201
  58.1615635  62.1858772  67.1060983  57.6797801  63.4475388  68.2650777
  58.4062934  61.9320730  68.8504683  55.5281001  62.3356466  67.1938327
  55.4910214  63.2863011  67.3222136  57.3514307  59.4603389  68.9188468
  58.0406476  58.5389359  68.4796003  57.3436500  59.7954030  70.2112061
  56.8662844  60.6258092  70.5315915  58.0650660  58.9864510  71.1950632
  59.1287509  58.9870461  70.9570019  57.8791086  59.5333452  72.6335289
  56.8164670  59.5202608  72.8758549  58.6440048  58.6869006  73.6512943
  59.7068538  58.6998841  73.4098756  58.4939044  59.0955949  74.6505630
  58.2773688  57.6608863  73.6200952  58.3591786  60.8811610  72.6980455
  58.2438946  61.2195956  73.5889843  57.5558652  57.5424506  71.1016865
  56.3454580  57.3061615  71.1662615  58.4900811  56.6028247  70.9269817
  59.4352147  56.9257466  70.7768371  58.2096962  55.1631398  70.7699287
  59.1452498  54.6380815  70.5771789  57.5586418  54.5616195  72.0249413
  58.0104507  55.0228365  72.9031479  56.4895285  54.7736598  72.0132932
  57.7552668  53.0504506  72.1120287  58.8472595  52.5299201  71.8330378
  56.6953287  52.3367662  72.4893812  56.7675027  51.3321420  72.5643531
  55.8245325  52.8036575  72.6987309  57.4237821  54.7671914  69.5092809
  56.8080550  53.6917624  69.4466488  57.4597824  55.6235418  68.4936762
  57.9676759  56.4943851  68.5551216  56.7560232  55.3187180  67.2509411
  56.6095926  54.2390449  67.2199064  55.7867952  55.8150641  67.2992816
  57.4699995  55.7549138  65.9911713  58.6464337  56.1355003  66.0240133
  56.7326230  55.7170262  64.8793136  55.7526998  55.4838927  64.9534662
  57.2803584  55.9988702  63.5514228  58.0503942  55.2498635  63.3666716
  56.4639072  55.8624035  62.8422799  57.8789167  57.3820409  63.3562290
  58.7081225  57.5809676  62.4682837  57.4681156  58.3466481  64.1790470
  56.7459392  58.1703865  64.8627812  57.9636802  59.7209843  64.0282067
  58.5019917  59.8171890  63.0853045  56.7933192  60.7217997  64.0310004
  56.1727238  60.4798182  64.8937898  57.2260324  61.7136083  64.1620539
  55.9291764  60.7033976  62.7560673  55.2000392  61.5115115  62.8144773
  56.5899908  60.8717234  61.9057186  55.1876479  59.3950817  62.5429802
  55.4365342  58.6848575  61.5665591  54.2838797  59.0628229  63.4617147
  53.7636330  58.2024358  63.3659082  54.1224148  59.6725856  64.2505239
  59.0277005  60.1164655  65.0677692  59.3155332  61.3033785  65.2429029
  59.6424796  59.1306945  65.7242785  59.4374603  58.1629168  65.5206298
  60.5636846  59.4300576  66.8293093  60.0646883  60.0796479  67.5484299
  61.0102787  58.1522148  67.5505863  60.1412629  57.5021279  67.6520639
  61.7604753  57.6609764  66.9309171  61.5997101  58.4368297  68.9367464
  62.4413070  59.1183182  68.8126948  60.8240837  58.9222115  69.5291208
  62.0650039  57.1863549  69.6447829  61.3148431  56.6771265  70.5062765
  63.1793167  56.7053701  69.3366896  61.7950356  60.2289923  66.4165730
  62.2555300  61.1063605  67.1614777  62.3343567  59.9227987  65.2395232
  61.8636957  59.2977839  64.6008261  63.6612576  60.4172572  64.8742045
  63.9050432  61.3045400  65.4584964  64.7158265  59.3374259  65.1584242
  64.3616912  58.4098374  64.7086831  65.6396474  59.6477726  64.6702235
  64.9753917  59.1154143  66.6372720  65.6298598  59.9099758  66.9956633
  64.0232242  59.1636691  67.1656191  65.6252988  57.7743161  66.8920058
  65.0197309  56.9917190  66.4349190  66.6202953  57.7696534  66.4469668
  65.7505249  57.4944885  68.3242990  64.9668785  57.0385881  68.7694422
  66.8162922  57.7946398  69.0654354  67.8662456  58.4031061  68.5270381
  67.8593107  58.6419197  67.5457022  68.6671255  58.6243955  69.1012523
  66.8316991  57.4873120  70.3576128  66.0347706  57.0269177  70.7735962
  67.6402699  57.7154403  70.9182101  63.7939151  60.8853350  63.4322728
  62.9884910  60.5229158  62.5767289  64.8269999  61.6888446  63.1886153
  65.3261063  62.0721807  63.9785808  65.2747227  62.0491310  61.8452880
  64.7639893  61.4283155  61.1091911  64.9635271  63.5204146  61.5458972
  65.3668906  64.0993874  62.3766725  65.5019245  63.7730142  60.6324303
  63.4788345  63.8477797  61.3697014  63.1719263  63.5116679  60.3792787
  62.9180461  63.3015330  62.1281426  63.1982863  65.3493403  61.5093949
  62.1229984  65.4957300  61.4072920  63.5125814  65.6529594  62.5079606
  63.9300733  66.1969375  60.4644428  64.1258861  67.1717852  60.9110184
  64.8760021  65.7021339  60.2442444  63.1607024  66.3743818  59.2077973
  62.2843338  66.8332495  59.4115577  63.6946898  66.9394381  58.5630734
  62.9795221  65.4712098  58.7936077  66.7881095  61.8179785  61.7585583
  67.4678208  61.6884395  62.7845087  67.3171204  61.7771340  60.5421061
  66.7229346  61.7959192  59.7255954  68.7604793  61.6550180  60.3461374
  69.1904749  61.0709616  61.1598211  69.0789907  60.9552317  59.0189480
  68.5084550  61.4194224  58.2145133  70.1436879  61.0266429  58.7966407
  68.7332134  59.4914667  59.0026110  67.7392002  59.0084994  58.1588702
  67.2133263  59.7035271  57.5042764  67.4112027  57.6490618  58.1433425
  66.6319406  57.2819984  57.4754237  68.0799123  56.7668782  58.9803931
  67.8321125  55.7054507  58.9722242  69.0745060  57.2450638  59.8359151
  69.5986282  56.5575532  60.4997865  69.3962101  58.5969888  59.8411494
  70.1752871  58.9692461  60.5064038  69.4440304  63.0203502  60.3769259
  68.9700056  63.9754260  59.7645986  70.5574697  63.1058331  61.1047243
  70.8417698  62.3363057  61.6938767  71.3758818  64.3109773  61.0999271
  70.7825900  65.1959233  61.3300893  72.5416659  64.2198822  62.1134566
  73.1313140  63.3306249  61.8906661  73.4382094  65.4613858  62.0302727
  72.8493249  66.3510627  62.2534116  74.2499311  65.3730555  62.7523573
  73.8534786  65.5436692  61.0258412  72.0086122  64.0429015  63.5301233
  71.4204865  63.1268714  63.5857942  72.8436301  63.9809230  64.2279796
  71.3799076  64.8941447  63.7913060  71.9214075  64.5097847  59.6883640
  72.5942246  63.6316594  59.1472152  71.6008916  65.6510202  59.0872442
  71.0305225  66.3343537  59.5645635  72.0553876  65.9531422  57.7349152
  72.2145685  67.0306200  57.6924618  73.0081747  65.4401885  57.6038633
  71.1158737  65.5469955  56.6101096  71.3900452  65.8506653  55.4525874
  70.0275815  64.8474848  56.9459754  69.9054415  64.5480089  57.9027906
  68.9865721  64.4917584  55.9636846  68.0203980  64.6881405  56.4284865
  69.1147867  65.1473573  55.1023771  69.0253155  63.0487895  55.4959737
  70.0960213  62.4310817  55.4600537  67.8616164  62.5164519  55.1163949
  67.0199292  63.0720984  55.1704239  67.7455752  61.1139032  54.6834106
  68.3187574  60.4761957  55.3563820  66.2865405  60.6534271  54.6978506
  66.2518246  59.5827722  54.4963757  65.8632426  60.8512063  55.6826361
  65.5381446  61.3411163  53.7173741  64.6268938  61.0400007  53.7408533
  68.3373880  60.8591808  53.2998171  68.6733786  59.7184136  52.9668511
  68.4459040  61.9132728  52.4928000  68.1301433  62.8192618  52.8083605
  69.0129225  61.8059697  51.1487011  68.3708086  61.1549492  50.5554378
  69.0321811  62.8005262  50.7030714  70.4262068  61.2375203  51.1535807
  70.8811743  60.6668810  50.1566031  71.1162041  61.3943636  52.2827800
  70.7018141  61.9258318  53.0350577  72.4706539  60.8715891  52.4667191
  73.1270218  61.2669905  51.6915172  73.0230177  61.2820830  53.8299128
  72.3060542  60.9432185  54.5777320  73.9651807  60.7504952  53.9634914
  73.2556537  62.7688605  53.9917953  74.0322156  63.0744531  53.2906066
  72.3370684  63.3146405  53.7763252  73.7074883  63.1163654  55.3968490
  74.8544436  63.5226717  55.6123614  72.8173224  62.9415093  56.3658960
  73.0658421  63.1574748  57.3207249  71.8955908  62.5933063  56.1439347
  72.5586177  59.3577234  52.3441676  73.6206040  58.8286868  52.0181315
  71.4646217  58.6541171  52.6289972  70.6412847  59.1046401  53.0021521
  71.4556460  57.1971561  52.4901801  72.2822304  56.7641131  53.0535016
  70.1357227  56.5591654  52.9806658  69.3018146  57.0195900  52.4508492
  70.1368032  55.0607243  52.7191814  70.9702188  54.5995057  53.2490840
  69.1997412  54.6292812  53.0711363  70.2412266  54.8780837  51.6496769
  69.9350310  56.8187079  54.4668803  69.8956597  57.8930772  54.6465541
  69.0007298  56.3618151  54.7931161  70.7647738  56.3873734  55.0268608
  71.7330915  56.8166218  51.0362122  72.6805275  56.0753684  50.7555658
  70.9349932  57.3475596  50.1128026  70.1431713  57.9140725  50.3814671
  71.1173062  57.0397582  48.6976255  71.2401971  55.9647347  48.5660144
  69.9005602  57.4949655  47.8906636  69.7593003  58.5671861  48.0266337
  70.0688849  57.2821854  46.8349688  68.7419512  56.8058475  48.3327580
  67.9825888  57.0963093  47.8222676  72.4102866  57.6359255  48.1371692
  73.0860764  57.0025215  47.3155285  72.7675697  58.8323883  48.6074612
  72.1733237  59.3043165  49.2739856  73.9685960  59.5267949  48.1333385
  73.9567970  59.5804262  47.0447230  74.0255614  60.9527453  48.6934896
  73.8701127  60.8834980  49.7701231  75.0257392  61.3380909  48.4953654
  72.9859908  61.8981745  48.0882214  73.3478057  62.2056992  47.1070897
  72.0583871  61.3373915  47.9734480  72.7309944  63.1293200  48.9426188
  73.3313941  63.2442461  50.0374056  71.9273489  63.9881788  48.5164566
  75.2408640  58.7585714  48.4979927  76.1294421  58.5671218  47.6549404
  75.3220081  58.3026297  49.7440989  74.6145491  58.5432018  50.4236033
  76.5134157  57.5894261  50.2058582  77.4031079  58.0982253  49.8348186
  76.5817748  57.5365438  51.7351000  75.6261737  57.1702035  52.1102276
  77.3733485  56.8438220  52.0208405  76.8686847  58.9090786  52.3315040
  77.7376823  59.3139745  51.8128486  76.0013035  59.5382979  52.1319169
  77.1376931  58.8801003  53.8158294  76.2871289  58.4450058  54.3405506
  78.0311038  58.2904996  54.0214692  77.3489351  60.2395647  54.3121108
  77.0845923  60.9900116  53.6899760  77.8467412  60.5502796  55.5056767
  78.2039788  59.6019578  56.3611935  78.0980839  58.6303489  56.1065126
  78.5802858  59.8557263  57.2634652  77.9973896  61.8262482  55.8428862
  77.7334372  62.5519901  55.1919424  78.3751950  62.0648121  56.7486727
  76.6621428  56.2076381  49.5684462  77.7914629  55.7311492  49.3692363
  75.5398294  55.5741125  49.2220668  74.6421934  55.8869739  49.5633389
  75.5950988  54.3261846  48.4541362  76.3830725  53.7034246  48.8776532
  74.2554321  53.5457039  48.4697274  73.4660616  54.1927728  48.0872402
  74.3504551  52.2877266  47.6000144  75.1393601  51.6399049  47.9821880
  73.3996948  51.7552623  47.6252599  74.5800026  52.5718760  46.5730450
  73.9098402  53.1352557  49.9049680  74.6572556  52.4050019  50.2151302
  73.9990068  54.0298416  50.5212998  72.5100819  52.5362602  50.0744199
  72.4203086  51.6413119  49.4587024  72.3505076  52.2745164  51.1204244
  71.7620595  53.2661513  49.7648696  76.0860064  54.6006252  47.0283434
  76.9025473  53.8370326  46.4967201  75.6282051  55.7008147  46.4286178
  74.8842683  56.2375564  46.8511883  76.1255958  56.1173866  45.1146850
  75.9488264  55.3209026  44.3918676  75.4188043  57.3860435  44.6276876
  74.3702318  57.1349348  44.4678768  75.4970808  58.1288182  45.4215758
  76.0055561  57.9529980  43.3435650  76.9747131  58.3828069  43.5967445
  76.1472731  57.1163040  42.6594880  75.0007436  59.1977686  42.5486034
  74.9391408  60.5125298  43.7725320  75.9500367  60.8621947  43.9821100
  74.3415423  61.3393211  43.3886141  74.4884297  60.1345504  44.6901879
  77.6421256  56.3204290  45.1523336  78.3565967  55.9012712  44.2312126
  78.1265761  56.9462077  46.2243740  77.4921941  57.3332465  46.9083768
  79.5635774  57.1611758  46.4100699  79.9562581  57.7364474  45.5716405
  79.8455421  57.9313067  47.7085522  79.3761826  57.3789380  48.5226098
  80.9245317  57.9553831  47.8612015  79.3037086  59.3578251  47.6833952
  79.0304487  59.8855030  46.5827345  79.1615944  59.9519570  48.7725296
  80.3184009  55.8307900  46.3966940  81.3635900  55.7075139  45.7477689
  79.7751035  54.8347028  47.0923262  78.9464594  55.0080283  47.6431496
  80.3700921  53.4973127  47.1352506  81.4133227  53.5690954  47.4428485
  79.6263642  52.6057374  48.1325546  78.5985663  52.6708441  47.7754947
  80.0028139  51.5954398  47.9722911  79.6687744  52.9344163  49.6260236
  79.3770413  53.9735935  49.7780216  78.7086636  52.0250516  50.3727224
  79.0000483  50.9856546  50.2215675  78.7388967  52.2592587  51.4368341
  77.6969550  52.1766251  49.9964625  81.0821496  52.8011200  50.1930392
  81.7496027  53.4871522  49.6715359  81.0720391  53.0424802  51.2559335
  81.4340156  51.7785488  50.0565201  80.3914826  52.8079393  45.7715004
  81.3544210  52.1106132  45.4408634  79.3298753  52.9961871  44.9915678
  78.5697633  53.5767579  45.3160160  79.1765577  52.3043719  43.7131002
  79.6469910  51.3226020  43.7671314  77.6913901  52.1185420  43.3735408
  77.3033324  53.1352914  43.4346249  77.6149439  51.7621266  42.3462998
  76.8745829  51.2042027  44.2933128  77.0837633  51.4699136  45.3295281
  75.3775047  51.3568526  44.0205034  75.1674666  51.0908532  42.9845366
  74.8176305  50.6985442  44.6847862  75.0789133  52.3901117  44.1974754
  77.3014809  49.7459114  44.1570098  78.3543064  49.6487054  44.4219796
  76.7009196  49.1271425  44.8237574  77.1546598  49.4184898  43.1277685
  79.9058683  52.9882342  42.5558104  80.1410113  52.3658634  41.5186203
  80.2471251  54.2639626  42.7337172  80.0010786  54.7284525  43.5961611
  80.9735576  55.0280856  41.7157542  81.1694598  56.0209954  42.1205402
  81.9192919  54.5195148  41.5285598  80.2219314  55.1683872  40.4078492
  79.0355352  55.5167680  40.3932937  80.9119091  54.8696571  39.3070417
  81.8772532  54.5841499  39.3888697  80.3558044  55.0593390  37.9669349
  79.8126159  56.0034665  37.9260841  81.4750344  55.0890154  36.9083252
  81.0189421  55.3714813  35.9594880  82.1954399  55.8510482  37.2056834
  82.1902857  53.7454192  36.7501269  81.8681516  52.7759138  37.4748495
  83.0945770  53.6602020  35.8881330  79.2801754  54.0384818  37.5887950
  78.7588224  54.0788204  36.4781809  78.9653956  53.1239404  38.5062425
  79.4871389  53.0889711  39.3703376  77.9342818  52.1074394  38.2751992
  78.0500910  51.6883044  37.2756927  78.0500335  50.9747587  39.2966267
  78.0156972  51.4322685  40.2853658  77.1782522  50.3343150  39.1627267
  79.3213982  50.1373966  39.1671867  79.2835332  49.5837793  38.2290103
  80.1828043  50.8052497  39.1598476  79.4469121  49.1619834  40.3258935
  79.3390945  49.7105576  41.2615968  78.6539138  48.4182273  40.2479187
  80.7383905  48.4718408  40.3327945  80.7734701  47.5670148  39.8854036
  81.8526895  48.9511478  40.8876599  81.8643033  50.1352754  41.4887248
  81.0185856  50.6859292  41.5292472  82.7188001  50.4797548  41.9025710
  82.9708329  48.2400528  40.8362000  82.9727442  47.3401840  40.3775797
  83.8153798  48.6016058  41.2558651  76.5182898  52.6872548  38.2967105
  75.5893508  52.0789723  37.7628689  76.3612405  53.8495755  38.9235479
  77.1299979  54.2486978  39.4429830  75.0775673  54.5577693  38.9277479
  74.2475644  53.8669205  38.7796861  74.8399376  55.3440183  40.2469145
  75.6410033  56.0724396  40.3725938  73.4867730  56.0724230  40.2090970
  72.6851236  55.3445608  40.0838942  73.3402848  56.6166018  41.1421089
  73.4740553  56.7733323  39.3744318  74.9094787  54.4114618  41.4514072
  75.8931675  53.9437927  41.4931669  74.7403196  54.9827773  42.3641412
  74.1447285  53.6402680  41.3591133  75.0303046  55.5094065  37.7359283
  75.9026979  56.3720271  37.5888582  74.0150704  55.3317123  36.8921046
  73.3467070  54.5987369  37.0822011  73.8391537  56.1327449  35.6837797
  74.7259472  56.7451726  35.5205964  73.6276941  55.2371291  34.4532058
  72.5933793  54.8957983  34.4954593  73.7634712  55.8762993  33.5807804
  74.5601206  54.0273218  34.3491324  74.4843125  53.4591446  35.2762401
  74.2236197  53.4096040  33.5164897  76.0097623  54.4382950  34.1228098
  76.0615173  55.0638333  33.2316745  76.3511921  55.0085525  34.9867146
  76.8981092  53.2190007  33.9377798  76.7527152  52.5428525  34.7802670
  76.6181840  52.7128891  33.0138792  78.3302596  53.6237394  33.8676659
  78.5899631  54.0923513  34.7238532  78.9063337  52.8032850  33.7448111
  78.4652824  54.2499394  33.0868065  72.6428411  57.0587633  35.8580666
  71.4959361  56.6036642  35.8693256  72.9188332  58.3528394  35.9880684
  73.8822775  58.6552327  36.0088727  71.8707684  59.3609285  36.1623024
  71.0314524  58.9273575  36.7060525  72.3987900  60.5623798  36.9536746
  73.2179392  60.9104012  36.3244093  71.6104672  61.3149133  36.9721270
  72.9135357  60.3271986  38.3780207  73.7251173  59.6001940  38.3480145
  73.4222478  61.6307139  38.9781781  72.6110505  62.3581142  39.0089433
  73.7846994  61.4484546  39.9898654  74.2357033  62.0200991  38.3659937
  71.8363302  59.7028638  39.2673931  71.5296807  58.7442183  38.8489861
  72.2358405  59.5500245  40.2699563  70.9749974  60.3689517  39.3177091
  71.3117306  59.8304059  34.8256403  72.0079477  59.7945892  33.8088247
  70.0568426  60.2834490  34.8476865  69.5481511  60.2326728  35.7187514
  69.3322807  60.7094939  33.6410105  68.2819204  60.8649538  33.8873327
  69.9019147  62.0167835  33.0760743  70.9724849  61.8758395  32.9273687
  69.4229695  62.1995953  32.1141536  69.6703063  63.2082805  33.9917415
  68.6086343  63.2259785  34.2379934  70.2516250  63.0639525  34.9024210
  70.0603119  64.5209473  33.3474409  71.2524643  64.8811075  33.4143372
  69.1682527  65.1919219  32.7908965  69.2621546  59.5999558  32.5921704
  69.4526543  59.8327349  31.3932772  68.9865351  58.3894701  33.0769974
  68.9614760  58.2746804  34.0801398  68.7525610  57.2181240  32.2412550
  68.7750548  57.5048230  31.1898764  69.8359517  56.1579347  32.4838995
  70.1890470  56.3039073  33.5047398  69.3437995  55.1885451  32.4053497
  71.0237091  56.2054387  31.5225172  71.5804317  55.2736340  31.6220202
  70.6371797  56.2904573  30.5069046  71.9406208  57.3738738  31.8123643
  71.4630561  58.2960619  31.4813053  72.1271707  57.4267065  32.8849814
  73.2202335  57.2350254  31.1209532  73.2636021  56.5640416  30.3672959
  74.3149908  57.9299908  31.4155369  74.3048530  58.8267301  32.3986854
  73.4584680  58.9824075  32.9273602  75.1435890  59.3475477  32.6116894
  75.4280678  57.7232686  30.7242212  75.4371706  57.0406628  29.9798648
  76.2613389  58.2494257  30.9453923  67.3738833  56.6226774  32.5317235
  67.2804153  55.5771630  33.1837728  66.2948383  57.2814621  32.0571103
  66.1950448  58.5810689  31.3659449  66.3678517  58.4441061  30.2984810
  66.9380791  59.2695878  31.7683634  64.7968251  59.0103587  31.6703558
  64.4283645  59.6487917  30.8673993  64.7814242  59.5632877  32.6095756
  63.9956085  57.7512644  31.7786262  63.6323600  57.5201306  30.7772638
  63.1520908  57.8067636  32.4667376  64.9809564  56.6625916  32.2421899
  64.8639246  56.3882675  33.2905925  64.8463182  55.4161627  31.3731165
  65.1326952  55.4656073  30.1781029  64.4366341  54.3080103  31.9857854
  64.3316515  54.3125028  32.9903041  64.2161789  53.0521431  31.2717616
  64.9444829  52.8879948  30.4775778  64.2594039  51.8432375  32.2411253
  63.5841876  52.0435059  33.0730356  63.8376277  50.5473341  31.5423312
  64.5127075  50.3461440  30.7105314  63.8798158  49.7209822  32.2518826
  62.8197495  50.6512588  31.1665318  65.6567055  51.7051367  32.8613062
  65.9006656  52.6122734  33.4141973  65.6710627  50.8519552  33.5395206
  66.3920393  51.5529782  32.0712221  62.8956770  53.1025458  30.4993970
  61.8614937  53.5031803  31.0460276  62.9498680  52.7060562  29.2258255
  63.8342334  52.3877274  28.8561447  61.7969988  52.7676885  28.3175155
  60.8922225  53.0932425  28.8308317  62.0727579  53.7099231  27.0993432
  61.2615358  53.6018980  26.3793781  62.1608828  55.1625322  27.5504558
  62.9722390  55.2714421  28.2701365  62.3530694  55.8004207  26.6877488
  61.2204765  55.4564289  28.0166746  63.3408889  53.2783950  26.3408068
  64.1946506  53.5828492  26.9461987  63.3161446  52.1910245  26.2693039
  63.4700333  53.8787601  24.9387339  63.4953110  54.9661688  25.0094682
  64.3900788  53.5239014  24.4743087  62.6168032  53.5743457  24.3325738
  61.3658269  51.3976351  27.7804944  60.2371225  51.2494676  27.3061592
  62.2621789  50.4119965  27.8598333  63.1166771  50.5514879  28.3799048
  62.0770147  49.1415419  27.1574179  61.0301834  48.8395647  27.1898695
  62.4964371  49.3057242  25.6846253  61.9122760  50.1293737  25.2741907
  63.5474450  49.5916647  25.7261042  62.3393310  48.0819690  24.7970022
  61.0757509  47.5756128  24.4771122  60.1925879  48.0655107  24.8871398
  60.9339464  46.4595886  23.6458707  59.9427008  46.0736849  23.4079370
  62.0626917  45.8448523  23.1207446  61.9207280  44.7418314  22.3008999
  61.0040840  44.4912608  22.1646000  63.3250524  46.3295629  23.4170554
  64.2120213  45.8461649  23.0075276  63.4583168  47.4483905  24.2487521
  64.4485955  47.8410277  24.4795858  62.8599845  48.0186638  27.8221411
  64.0448974  48.1698582  28.1306920  62.1808436  46.8993925  28.0590662
  61.1771080  46.8904863  27.9471074  62.8312432  45.6951073  28.5657165
  63.9123595  45.7799980  28.4558058  62.4833227  45.4135101  30.0512462
  61.3993697  45.4034990  30.1654657  63.0562386  44.0593204  30.4909420
  64.1402722  44.0687283  30.3774376  62.8023603  43.8787017  31.5354627
  62.6335620  43.2673855  29.8726517  63.0145325  46.5394402  30.9479577
  64.1014295  46.5182383  30.8685456  62.6386694  47.4749956  30.5337566
  62.6130983  46.4352479  32.4041484  62.9890324  45.5000945  32.8191923
  63.0345852  47.2736829  32.9586524  61.5262715  46.4568495  32.4844030
  62.4653500  44.5082385  27.6792457  61.2855071  44.2306151  27.4557890
  63.4937228  43.8272557  27.1750425  64.4307339  44.1056873  27.4291789
  63.3308448  42.7179275  26.2389102  62.2728926  42.5465073  26.0402861
  64.0338538  43.0500442  24.9090884  63.6635862  44.0267077  24.5974321
  65.1067973  43.1101128  25.0915274  63.7615448  42.0276188  23.8077842
  63.4157240  40.8643387  24.1039624  63.9216098  42.3985175  22.6218018
  63.9107593  41.4519339  26.8642952  65.1059164  41.3922117  27.1657608
  63.0530361  40.4516664  27.0688552  62.0755606  40.5851552  26.8524719
  63.4671752  39.1722905  27.6541971  64.5186850  39.2199070  27.9373208
  62.6395160  38.8582032  28.9003751  61.6117418  38.7267061  28.5620143
  63.0169300  37.9128289  29.2901521  62.6808158  39.9055470  29.9913450
  63.7134901  40.2272497  30.1262224  62.0679889  40.7616972  29.7092954
  62.1693501  39.3567310  31.3064513  62.8990098  38.6848138  32.0381686
  60.9027899  39.6259824  31.6065612  60.5084735  39.2848623  32.4715774
  60.3405162  40.1704606  30.9682093  63.3640873  37.9894931  26.6819898
  63.3376967  36.8322723  27.1121556  63.3185221  38.2720805  25.3827850
  63.3417733  39.2315260  25.0681056  63.1420038  37.2135688  24.3786554
  62.4853953  36.4380317  24.7729988  62.5305012  37.7576976  23.0588344
  62.4552462  36.9387354  22.3434758  61.1438940  38.3487784  23.3030554
  61.2184157  39.1681597  24.0180103  60.7372150  38.7229185  22.3635180
  60.4848521  37.5777836  23.7022186  63.3817538  38.7665896  22.5061800
  62.9977074  39.0980581  21.6911724  64.4315686  36.4554513  24.0564823
  64.3910292  35.4205065  23.3867602  65.5661631  36.9684721  24.5296442
  65.5397168  37.8262390  25.0622190  66.8754408  36.3842057  24.2162010
  66.7453740  35.4813014  23.6195891  67.7260251  37.3805728  23.4183697
  67.9072242  38.2438702  24.0586694  68.6738180  36.8933776  23.1893947
  67.0641293  37.8390065  22.1224416  66.9858330  36.9751910  21.4622953
  66.0653344  38.2011309  22.3661150  67.8478651  38.9432363  21.4228647
  68.1175281  39.7095640  22.1495852  68.7536800  38.5216105  20.9871694
  67.0589238  39.5650087  20.3556699  66.5644163  40.4133363  20.5921058
  66.9561188  39.0941068  19.1125129  67.5917928  37.9840342  18.7516051
  68.1598473  37.4895335  19.4245710  67.5038614  37.6401036  17.8060473
  66.2078335  39.7360234  18.2226943  65.7197539  40.5783665  18.4916486
  66.1302813  39.3789057  17.2811257  67.6034761  35.9064105  25.4750387
  67.0940208  36.0607978  26.5897677  68.7863939  35.3195893  25.2890971
  69.1420415  35.2241055  24.3486201  69.5546157  34.7220309  26.3874268
  68.9753166  33.9213993  26.8473189  70.8758472  34.1371450  25.8714676
  70.6317772  33.4268238  25.0815481  71.4555606  34.9599461  25.4531010
  71.6917500  33.4382245  26.9464252  71.8426725  34.1452213  27.7621941
  71.0987593  32.5954790  27.3017297  73.0361233  32.9385777  26.4561125
  73.6241125  33.5522460  25.5358420  73.5075102  31.9250623  27.0075887
  69.8200700  35.6976004  27.5322688  69.6128505  35.3633600  28.6996335
  70.2916238  36.8933861  27.1869826  70.5515919  37.0591406  26.2251919
  70.4834809  37.9719167  28.1512879  70.4585762  37.5713346  29.1647044
  71.8355274  38.6523213  27.9275945  71.8739033  39.0115182  26.8991957
  71.9237522  39.4972433  28.6105464  73.0109798  37.7152635  28.1593174
  72.9833949  36.8701117  29.0551274  74.0555380  37.8670578  27.3532494
  74.8641579  37.2717331  27.4619795  74.0364729  38.5771196  26.6352316
  69.3631968  38.9998415  28.0347025  68.8607398  39.2539535  26.9396399
  68.9768247  39.5861740  29.1653005  69.3710864  39.2867242  30.0456338
  67.9441121  40.6219693  29.1845065  67.1202266  40.3664097  28.5181722
  67.3763963  40.8423688  30.6142658  68.1836531  41.1837305  31.2622688
  66.2570045  41.8815455  30.6055025  65.4491265  41.5406466  29.9580289
  65.8777788  42.0163902  31.6184710  66.6441476  42.8302374  30.2337426
  66.8646850  39.5330074  31.1956239  67.6822163  38.8139700  31.2478716
  66.4713580  39.7085598  32.1969105  66.0733143  39.1369865  30.5592273
  68.5104274  41.9290346  28.6311864  69.6330386  42.3140465  28.9670853
  67.7336806  42.5944715  27.7787140  66.8567307  42.1887706  27.4846648
  68.1334554  43.8757163  27.1992687  69.1722937  44.0832284  27.4558866
  68.0005248  43.8548634  25.6684063  66.9491829  43.6012334  25.5325706
  68.1784341  44.8686897  25.3097918  68.8706318  42.8712773  24.8735673
  68.7913361  41.8821166  25.3245376  68.4081009  42.8059818  23.4190819
  68.4875521  43.7947470  22.9672749  69.0351362  42.1042915  22.8690290
  67.3711220  42.4722518  23.3816723  70.3511099  43.2354093  24.9518904
  70.6759026  43.2165398  25.9922044  70.9337290  42.5157421  24.3767943
  70.5022626  44.2343061  24.5426753  67.2958341  45.0054272  27.7959002
  66.0633937  44.9466706  27.7816796  67.9737082  46.0220129  28.3280525
  68.9832367  45.9945170  28.3420378  67.3014409  47.1738054  28.9361938
  66.2191993  47.1044993  28.8264262  67.6400666  47.3116210  30.4489656
  68.7068714  47.5087308  30.5546758  66.8437630  48.4586663  31.0813234
  65.7767920  48.2620287  30.9764067  67.0959870  48.5370005  32.1388428
  67.0914638  49.3937791  30.5790187  67.3652982  46.0052573  31.1865705
  67.9782584  45.2109848  30.7605269  67.6091863  46.1251703  32.2421458
  66.3117991  45.7446611  31.0849335  67.7049760  48.4496455  28.2035373
  68.8863808  48.8044321  28.1699816  66.7201175  49.1352560  27.6260150
  65.7741369  48.7824946  27.6539331  66.9825380  50.3591464  26.8659006
  68.0568361  50.4786959  26.7255769  66.3111619  50.3031094  25.4871712
  66.5437268  49.3311519  25.0520718  65.2356915  50.3814032  25.6463364
  66.7670766  51.4095614  24.5352386  66.4136140  52.3588052  24.9378566
  67.8570303  51.4009885  24.5300923  66.2528910  51.2390216  23.1157022
  65.2488154  50.5252227  22.9095049  66.8612839  51.8334558  22.2002008
  66.5403584  51.6024494  27.6309862  65.5220025  51.5877068  28.3306245
  67.3186392  52.6740286  27.4915380  68.1803826  52.5927990  26.9710579
  67.0145776  53.9502388  28.1320341  66.1594271  53.8340072  28.7978472
  68.2147705  54.4706403  28.9556847  67.9261541  55.4001636  29.4463854
  68.6382005  53.4500587  30.0086378  68.9274218  52.5203586  29.5186293
  69.4842008  53.8404900  30.5742754  67.8057979  53.2594454  30.6860396
  69.3212435  54.7305592  28.0851138  70.0644476  55.0534497  28.5998853
  66.5749896  55.0117505  27.1126165  66.7852711  54.8527475  25.9099172
  65.9688288  56.0888516  27.6107936  65.7907476  56.1267528  28.6042471
  65.4631277  57.1789084  26.7723297  64.8062958  56.7775762  26.0005762
  64.6691657  58.1816778  27.6188207  63.9863215  57.5261342  28.1592701
  65.3746701  58.6278966  28.3197147  63.8692115  59.2910827  26.9227287
  64.5567767  59.8687876  26.3049813  62.7473165  58.7309573  26.0486256
  62.0590467  58.1534749  26.6657945  62.2090220  59.5528532  25.5765801
  63.1727230  58.0865507  25.2792949  63.3051667  60.2553230  27.9505497
  64.1223988  60.7054156  28.5141524  62.7398714  61.0375232  27.4438889
  62.6476419  59.7163881  28.6326855  66.5710840  57.8908608  25.9883875
  66.3440003  58.3507253  24.8689628  67.7547253  57.9840331  26.5909041
  67.8287131  57.7241756  27.5640943  68.9222575  58.5960866  25.9428328
  68.5874357  59.3471783  25.2273925  69.8427101  59.2757652  26.9762219
  70.6346360  59.8122788  26.4536266  69.2368659  59.9837580  27.5417297
  70.4825424  58.2914429  27.9532716  71.6986596  58.3220850  28.1705295
  69.6697730  57.4324072  28.5598437  70.0462955  56.7619617  29.2146974
  68.6793461  57.4540040  28.3631489  69.6884923  57.6206036  25.0385867
  70.8789325  57.8187240  24.7553671  68.9846474  56.5677054  24.6141002
  68.1789397  56.3304949  25.1750509  69.4038493  55.6240683  23.5539056
  68.5753166  54.9574398  23.3146583  69.8203601  56.3689806  22.2746850
  70.6124899  57.0871686  22.4864292  70.1695744  55.6523262  21.5313440
  68.7034254  57.1382121  21.6370261  68.8825755  58.3845495  21.0766920
  67.7284790  58.8193091  20.6000723  67.6603537  59.7910583  20.1110308
  66.8079442  57.9011703  20.8361373  65.8315215  57.9609225  20.5848840
  67.3908284  56.8403892  21.4836360  66.7887522  55.9768468  21.7663018
  70.4207148  54.5303570  23.9214367  70.8297905  53.7431284  23.0568713
  70.7955878  54.4535496  25.1952459  70.4529502  55.1275489  25.8648904
  71.7677332  53.4572204  25.6486423  72.5426038  53.3293606  24.8927808
  72.4288293  53.9021453  26.9570474  71.6316936  54.1098396  27.6708660
  73.0309458  53.0683322  27.3180342  73.3095841  55.1364728  26.8063711
  74.1312465  54.8612118  26.1451577  72.7103990  55.9157794  26.3354596
  73.8699891  55.6539652  28.1227924  73.4071134  55.2273274  29.2037994
  74.7811657  56.5076498  28.0729746  71.1419489  52.0720341  25.8133783
  69.9565008  51.9501138  26.1317778  71.9491232  51.0383758  25.5830021
  72.8901000  51.2139724  25.2607790  71.5251048  49.6511708  25.7604043
  70.4722714  49.6273767  26.0416068  71.7055400  48.8451155  24.4699691
  72.7463116  48.9802964  24.1756567  71.5378573  47.8030248  24.7420527
  70.7963350  49.2182936  23.3057666  70.9349201  50.2879414  23.1484495
  71.1761630  48.6723546  22.4421792  69.0319771  48.8695755  23.5007998
  68.9922102  47.4505264  24.6027758  69.4671612  47.7109610  25.5486587
  67.9575277  47.1596935  24.7842947  69.5277892  46.6190074  24.1447012
  72.3301482  48.9849365  26.8674973  73.5621042  49.0780985  26.8979975
  71.6319402  48.3021776  27.7688917  70.6231726  48.3516075  27.7622673
  72.2794654  47.5488176  28.8342944  73.3597900  47.5645480  28.6902443
  71.9588176  48.1588030  30.2043352  70.8733467  48.2223229  30.2806081
  72.3393372  47.4991117  30.9841507  72.5566030  49.5356609  30.3740640
  71.8949207  50.6726299  29.8989610  70.9247618  50.5554352  29.4160980
  72.4558823  51.9381965  30.0346715  71.9353601  52.8200939  29.6612878
  73.6900646  52.0717656  30.6555922  74.2566293  53.3143745  30.8005524
  73.7145020  54.0184942  30.4373538  74.3639708  50.9615283  31.1316905
  75.3339392  51.0701493  31.6169361  73.7968281  49.7026744  30.9880593
  74.3224693  48.8226037  31.3585685  71.8856675  46.0822194  28.7714708
  70.7263242  45.7493608  28.5258591  72.8691038  45.2106465  28.9737052
  73.8007300  45.5547735  29.1574134  72.6673731  43.7728521  28.9010556
  71.6295150  43.5491357  28.6542749  73.5651813  43.1850579  27.8140122
  73.6341502  43.9288169  27.0201828  74.5492838  43.0365037  28.2585051
  73.0706755  41.8787795  27.2381764  73.1358950  41.1236312  28.0215016
  72.0281774  42.0131623  26.9496661  73.8752226  41.4271782  26.0319069
  74.2225399  40.2305861  25.9740796  74.1611151  42.2637026  25.1452472
  72.9701259  43.1378667  30.2559137  74.0156271  43.4099329  30.8578865
  72.0522438  42.3001789  30.7361070  71.2146141  42.1089610  30.2051536
  72.1795670  41.7082149  32.0672450  73.2466414  41.6283791  32.2747965
  71.5440419  42.6252513  33.1167768  70.4737627  42.7078000  32.9275990
  71.7056797  42.2076680  34.1105563  71.9998068  43.6137664  33.0600717
  71.5880551  40.3055380  32.1632680  70.7935866  39.8949335  31.3179298
  71.9838327  39.5777509  33.2052791  72.7269872  39.9175129  33.7988973
  71.4101157  38.2675709  33.4960986  71.2876953  37.7068752  32.5694202
  72.3232265  37.4704284  34.4337972  72.4725098  38.0837807  35.3223987
  71.7805405  36.5648626  34.7049842  73.6799892  37.0927005  33.8424582
  73.5194150  36.4888376  32.9493365  74.2131607  38.0044040  33.5729646
  74.5075283  36.2986602  34.8515841  74.6439504  36.9126599  35.7418045
  73.9547118  35.3966935  35.1141664  75.8720987  35.9123165  34.2862415
  76.3417481  35.2225930  34.9875343  75.7090189  35.4068393  33.3344027
  76.7637830  37.0928563  34.0765277  76.9153713  37.5611343  34.9584781
  77.6496871  36.7834593  33.7029672  76.3289712  37.7318909  33.4263951
  70.0176649  38.4096154  34.1180594  69.1046280  37.6458236  33.7858237
  69.8742876  39.3867234  35.0151084  70.6726471  39.9675856  35.2279945
  68.6138894  39.6512946  35.7189126  67.7840797  39.2263096  35.1541978
  68.6256745  39.0256746  37.1173724  69.3852189  39.5496267  37.6976014
  67.6429764  39.2192119  37.5474281  68.9038433  37.5453361  37.1472577
  70.2027856  37.0694974  37.2968756  71.0186517  37.7864799  37.3885167
  70.4694348  35.7036330  37.3305008  71.4920245  35.3436779  37.4438342
  69.4284354  34.8022481  37.2155892  69.6940151  33.4499397  37.2489123
  70.6277559  33.2535404  37.3545293  68.1234504  35.2502828  37.0711116
  67.3003772  34.5409986  36.9841230  67.8697085  36.6179814  37.0376798
  66.8479031  36.9800978  36.9241648  68.3714874  41.1492880  35.8647004
  69.2986697  41.9535077  35.7431746  67.1205561  41.5084625  36.1458741
  66.4055647  40.7963097  36.1874079  66.7284229  42.8984225  36.3732608
  67.5899042  43.5576830  36.4796787  65.8389823  43.4269332  35.2141741
  65.0128867  42.7308503  35.0687991  65.2846341  44.8183088  35.5199845
  66.1101963  45.5150927  35.6650367  64.6675508  45.1552682  34.6870577
  64.6803140  44.7780998  36.4262306  66.6157778  43.4400208  33.8986706
  66.9415871  42.4279772  33.6584245  65.9739162  43.8135524  33.1008064
  67.4868276  44.0878820  33.9968998  65.9646047  43.0106577  37.6920504
  65.1547268  42.1410925  38.0244569  66.2392079  44.0729950  38.4477656
  67.0591299  44.6329885  38.2627396  65.3886812  44.4409310  39.5812616
  64.6407257  43.6643592  39.7412556  66.1898599  44.6605963  40.8848773
  67.0119445  45.3479244  40.6852340  65.2849136  45.2490421  41.9767809
  64.4627952  44.5620133  42.1773135  65.8639819  45.3977603  42.8881884
  64.8846145  46.2056919  41.6411011  66.8103329  43.3425970  41.3700217
  65.9813863  42.6837982  41.6287348  67.3558691  42.9242742  40.5241518
  67.7587717  43.4737288  42.5787567  67.2137908  43.8915821  43.4252166
  68.1456311  42.4903726  42.8460571  68.5882728  44.1320604  42.3206340
  64.6263877  45.7216325  39.2354041  65.2336477  46.7413663  38.9175689
  63.2993932  45.6503273  39.2907756  62.8531380  44.7531307  39.4172423
  62.4512597  46.8308580  39.1398752  62.9483014  47.5650209  38.5057982
  61.1141681  46.4494256  38.4926030  61.3146228  46.0443967  37.5007014
  60.6393310  45.6848976  39.1075231  60.2495374  47.5702723  38.3799998
  59.4241884  47.2980251  37.9722251  62.2346146  47.4408015  40.5237877
  61.5320248  46.8626436  41.3512266  62.8500897  48.5964934  40.7728114
  63.4324692  49.0160580  40.0622490  62.7872646  49.2399566  42.0900919
  62.2395032  48.5688565  42.7516668  64.1969133  49.4381456  42.6524565
  64.7548458  50.1151847  42.0055954  64.1326334  49.8637698  43.6538617
  64.7085750  48.4768246  42.6989711  62.0184172  50.5662292  42.0546169
  62.3522840  51.5146935  42.7737571  60.9855524  50.6106489  41.2168454
  60.7922080  49.7892334  40.6618734  60.1572254  51.8054659  41.0046457
  60.5086997  52.6485758  41.5993984  60.1387817  52.2066086  39.4907060
  59.5436383  53.1116038  39.3686879  61.5641946  52.4623677  38.9924174
  62.1598592  51.5576155  39.1136932  61.5369391  52.7402955  37.9387979
  62.0117230  53.2714782  39.5696155  59.4443057  51.1325496  38.6363330
  59.9889840  50.2016668  38.7940780  58.4298300  51.0290306  39.0213296
  59.3919429  51.4451506  37.1389717  60.4061328  51.5483590  36.7531393
  58.8853722  50.6343119  36.6154968  58.8469804  52.3757246  36.9803911
  58.7264696  51.5585125  41.5329995  58.3123785  50.4032599  41.6763944
  57.9673323  52.6339496  41.8427292  58.3641447  54.0534417  41.9029220
  58.5966044  54.4061673  40.8981099  59.2454684  54.1553377  42.5361555
  57.1550209  54.7323806  42.4886230  57.0484105  55.7225899  42.0456571
  57.2834142  54.8290995  43.5667056  55.9902625  53.8664548  42.1686740
  55.6550103  54.1013399  41.1584592  55.1512507  53.9540646  42.8589519
  56.5565439  52.4426366  42.2118868  56.5193233  51.9833705  43.1997064
  55.8225701  51.5496099  41.2063044  56.0430763  51.6857874  40.0119667
  54.9668516  50.6233693  41.6867938  54.5701870  50.3864482  43.0854841
  53.9315244  51.2013008  43.4264027  55.4598415  50.3357843  43.7132157
  53.8370027  49.0632372  43.0152449  53.0606644  49.0305555  43.7796596
  54.5381464  48.2440962  43.1749541  53.2571620  49.0053223  41.6518691
  52.3225533  49.5611883  41.5769116  53.0939764  47.9763074  41.3315592
  54.3263563  49.6631185  40.7729921  55.0920562  48.9423532  40.4861139
  53.7145004  50.2850779  39.5142308  53.9631165  49.7915598  38.4085682
  52.9480276  51.3685930  39.6629328  52.7103877  51.7091950  40.5835939
  52.2888072  51.9833484  38.5001751  51.8307944  51.2104585  37.8829517
  51.1927980  53.0130984  38.9025169  50.5516027  52.5538525  39.6548878
  51.7987092  54.2983794  39.4657843  52.4397102  54.7584709  38.7137649
  51.0000933  54.9899937  39.7340781  52.3890236  54.0645265  40.3517540
  50.3897327  53.3237455  37.7575302  49.7132304  53.9587514  38.0039294
  53.2798995  52.5765718  37.4895278  52.9756928  52.6892177  36.2992702
  54.4622641  52.9624867  37.9655328  54.6337260  52.9806881  38.9607056
  55.4830824  53.5209534  37.0741890  55.0141561  54.2155977  36.3772840
  56.5589410  54.2702597  37.8614865  56.8348998  53.5833492  38.6615489
  57.4230882  54.4473689  37.2211883  56.0916947  55.5982536  38.4672952
  55.3694301  55.3962303  39.2582575  57.2760882  56.3555751  39.0446263
  57.9986193  56.5583803  38.2541090  56.9322891  57.2973888  39.4722825
  57.7480410  55.7548969  39.8221523  55.3529783  56.4663967  37.4665532
  54.4726513  55.9354604  37.1042959  55.0444395  57.3944256  37.9478716
  56.0102542  56.6940304  36.6273451  56.0866641  52.4848568  36.1212713
  56.8157471  52.8397813  35.1929268  55.7568116  51.2116530  36.3373323
  55.2726627  50.9511815  37.1845948  56.0785740  50.1603909  35.3706705
  57.1590668  50.1333827  35.2295855  55.7406144  49.2035677  35.7686304
  55.4092757  50.4013628  34.0251277  55.8684159  49.8909670  33.0056262
  54.3345392  51.1924774  34.0246772  53.9566152  51.5052872  34.9075265
  53.6298450  51.5696661  32.7930341  53.3449515  50.6733996  32.2419977
  52.3612127  52.3674094  33.1210915  52.6306866  53.1103348  33.8717879
  52.0502521  52.8721421  32.2064066  51.2224134  51.5172020  33.6395977
  51.6197975  50.8298601  34.3864229  50.4881526  52.1743439  34.1055674
  50.4246109  50.5721638  32.3301738  49.4898744  51.8647553  31.5031261
  50.1737686  52.6294249  31.1347946  48.9393431  51.4364843  30.6655104
  48.7886638  52.3135978  32.2066497  54.5025596  52.3658528  31.8220439
  54.2240998  52.3996957  30.6225554  55.5500234  53.0001923  32.3474649
  55.7196499  52.9437509  33.3415174  56.4399103  53.8357690  31.5373552
  55.8563965  54.3974198  30.8078627  57.1996932  54.8273399  32.4246331
  57.7593755  54.2406609  33.1530991  57.8953122  55.3649368  31.7802701
  56.3109983  55.8224040  33.1515402  55.4001856  55.9745748  32.5724330
  56.0548019  55.4201668  34.1316783  57.0316151  57.1520898  33.3217900
  57.4537101  57.1824068  34.3262877  57.8367304  57.1973445  32.5884138
  56.1009987  58.3403283  33.1268993  55.3888732  58.3171263  33.9517869
  56.7178864  59.2355461  33.2052176  55.3638926  58.3585446  31.8371420
  54.7918789  57.5293086  31.7645635  54.7751343  59.1782311  31.7974226
  56.0235781  58.3804768  31.0726598  57.4297073  53.0071151  30.7267582
  58.2020296  53.5499121  29.9293193  57.4051719  51.6959762  30.9467555
  56.7586040  51.3275833  31.6296435  58.2934783  50.7649415  30.2641891
  59.0209019  51.2825395  29.6388519  59.0375473  49.8490093  31.2730272
  58.2994073  49.3078081  31.8649317  59.9382695  48.8501424  30.5447480
  60.6770167  49.3906358  29.9529540  60.4478747  48.2206560  31.2742342
  59.3327249  48.2262881  29.8873132  59.8384146  50.6802564  32.2884355
  60.6783205  51.1199886  31.7505745  59.1798833  51.4729749  32.6434473
  60.3612229  49.8788380  33.4826524  61.0202420  49.0861677  33.1284384
  60.9145409  50.5395389  34.1500448  59.5218042  49.4391519  34.0213101
  57.4763409  49.9096361  29.2960088  56.4038133  49.4029468  29.6518087
  57.9758162  49.7751291  28.0693102  58.7838558  50.3159474  27.7960213
  57.3579848  48.9037637  27.0750303  56.2951574  48.7973945  27.2922465
  57.5143106  49.4862038  25.6628151  58.5686100  49.6553963  25.4438950
  57.0950074  48.8043570  24.9229706  56.8194706  50.8044405  25.4747775
  55.7668898  50.9759946  24.6023201  55.3573457  52.2325014  24.6461092
  54.5346535  52.5713836  24.0164781  56.0986331  52.8806189  25.5265515
  56.0072113  53.8540296  25.7799554  57.0261940  52.0133046  26.0514837
  57.7434496  52.3655961  26.7927908  58.0153665  47.5354834  27.2024170
  59.2455842  47.4358317  27.2695893  57.1987895  46.4886734  27.2946436
  56.1973840  46.6098595  27.2436486  57.7237754  45.1454022  27.5565179
  58.7888126  45.2052297  27.7806062  57.0072528  44.5045291  28.7504873
  55.9269019  44.5843458  28.6297792  57.2865474  43.4541097  28.8324242
  57.3402058  45.1412272  30.0676752  56.5728664  46.1959808  30.5574241
  55.7256846  46.5533116  29.9720203  56.8777154  46.7947785  31.7828637
  56.2714542  47.6197274  32.1570392  57.9638575  46.3322544  32.5286124
  58.2095298  46.7957159  33.4840957  58.7350445  45.2745408  32.0479977
  59.5833030  44.9061232  32.6249087  58.4164105  44.6867280  30.8214144
  59.0152021  43.8587489  30.4419422  57.6468306  44.2058757  26.3586187
  56.6403125  44.1656495  25.6511351  58.7304783  43.4520511  26.1603759
  59.5651843  43.6610649  26.6892222  58.7858797  42.3737087  25.1764946
  57.7770245  42.1299745  24.8434720  59.6165814  42.7888364  23.9582738
  59.2904188  43.7740038  23.6248636  60.6637975  42.8352445  24.2570790
  59.4852178  41.8160033  22.7991080  58.5074863  41.0724274  22.6993781
  60.4720593  41.8245299  21.9089619  60.4388450  41.1989414  21.1167273
  61.2506951  42.4565603  22.0288140  59.3690217  41.1188085  25.8380530
  60.5046352  41.1501987  26.3176171  58.5807214  40.0256178  25.9204174
  59.0814412  38.7568248  26.4854173  59.6131122  38.9600403  27.4150030
  59.7609376  38.2875881  25.7739396  57.8335122  37.9531885  26.6995458
  57.4453421  38.1337477  27.7019536  58.0527501  36.8920584  26.5810596
  56.8846261  38.4163166  25.6604689  55.8779912  38.2761942  26.0543610
  56.9690082  37.9178686  24.6947936  57.1804186  39.9175004  25.5037298
  57.0881246  40.2786511  24.4794495  56.2757377  40.7486934  26.4215079
  56.7520015  41.2599625  27.4454390  54.9872542  40.9010954  26.0610789
  54.3156129  40.3956770  24.8461155  54.1620649  39.3204077  24.9373251
  54.9385745  40.6006513  23.9754816  53.0322367  41.1578775  24.8198491
  52.2526255  40.5402389  24.3739479  53.1604938  42.0638810  24.2275576
  52.7190719  41.4894097  26.2371848  52.1896663  40.6336160  26.6560472
  52.1215131  42.3900789  26.3779612  54.0769703  41.6501384  26.9271175
  54.4287501  42.6794411  26.9970128  54.0189764  41.0363446  28.3254121
  54.2617187  39.8373622  28.4908433  53.7020054  41.8502437  29.3257913
  53.5812234  42.8405605  29.1683628  53.5367154  41.3398156  30.6843230
  54.4448355  40.8238685  30.9961174  53.2645085  42.4839012  31.6619413
  52.4250696  42.9935292  31.1889500  52.9380591  42.0454030  32.6049419
  54.3852692  43.4884239  31.9285226  54.7158843  43.9252275  30.9861866
  53.8678561  44.5894246  32.8439510  53.5374655  44.1534158  33.7867326
  54.6650535  45.3075527  33.0359641  53.0300844  45.0966767  32.3654803
  55.6326949  42.8158699  32.5164865  56.0061977  42.0675136  31.8175173
  56.4033685  43.5669089  32.6899910  55.3759723  42.3347125  33.4602450
  52.3737823  40.3476343  30.7368485  51.4450981  40.4476911  29.9314640
  52.4143105  39.3946643  31.6874838  53.5189821  39.0489052  32.6021927
  53.5851759  39.7947755  33.3942761  54.4577055  39.0230535  32.0488131
  53.1217839  37.7015886  33.1140371  53.5113902  37.5632054  34.1225787
  53.5243674  36.9279119  32.4602388  51.6398310  37.6878380  33.0997352
  51.3170055  38.1721750  34.0213101  51.1760976  36.7042319  33.0251039
  51.2435141  38.5444577  31.8956319  51.0469371  37.9782361  30.9852205
  50.0210017  39.4005842  32.2373037  50.1698963  40.4950190  32.7896839
  48.8334821  38.9048017  31.8908808  48.8066928  38.0054222  31.4320800
  47.5738480  39.6335911  32.0654801  47.5166246  40.4626601  31.3601651
  46.3949610  38.6898281  31.8082587  46.2656636  38.6458421  30.7268491
  46.6982075  37.7101503  32.1775459  45.0740349  39.0943705  32.4630384
  45.2904147  39.5048678  33.4493308  44.6046689  39.8606627  31.8461155
  43.9453455  37.6996438  32.6362888  44.5176386  36.6934946  31.2743636
  45.5675054  36.4415932  31.4241110  43.9282246  35.7779003  31.2255882
  44.4066855  37.2465350  30.3416595  47.4041909  40.3111613  33.4311511
  47.0230456  41.4796080  33.5109670  47.6677220  39.5743788  34.5013216
  47.9505633  38.6087207  34.4141180  47.3999695  40.0979314  35.8341003
  46.4018180  40.5354451  35.8534543  47.4738072  38.9998793  36.8994034
  48.4502411  38.5227427  36.8156377  47.3864334  39.4786863  37.8747032
  46.3717844  37.9401152  36.7490213  46.5115441  37.4644679  35.7782857
  46.5218460  37.2039451  37.5387283  44.6794570  38.5942278  36.8557245
  44.6136224  38.9678747  38.5854031  45.3882296  39.6945479  38.8304107
  43.6360945  39.3828376  38.8310565  44.7759622  38.0565581  39.1609455
  48.2852392  41.2946286  36.1734756  47.7829900  42.2943702  36.6854692
  49.5797480  41.2167787  35.8692057  50.0073663  40.3466834  35.5860516
  50.4483535  42.3832304  36.0821985  50.2305939  42.7993090  37.0658441
  51.9479486  42.0456510  36.0121148  52.1390171  41.1449814  36.5955412
  52.2265535  41.8706949  34.9729470  52.7747188  43.1994355  36.5727531
  52.6057182  44.0377659  35.8969264  52.3411424  43.4256128  37.5468975
  54.2806690  42.9636188  36.7267451  54.4864788  42.0816434  37.3332604
  54.7694215  42.8598764  35.7580048  54.8306711  44.1399031  37.4066612
  55.1668090  44.8888339  36.8182621  54.9052098  44.2874800  38.7267525
  54.5236509  43.3079475  39.5363171  54.1739027  42.4435503  39.1482530
  54.5847064  43.4312218  40.5369046  55.3752608  45.4193020  39.2437669
  55.6746981  46.1645732  38.6313878  55.4305841  45.5282439  40.2463485
  50.1058805  43.5414488  35.1358665  50.1123984  44.7074530  35.5508142
  49.7999519  43.2131056  33.8787529  49.8754065  42.2500063  33.5840571
  49.4137509  44.2183683  32.8804746  50.2629577  44.8663046  32.6633901
  48.9666404  43.5433297  31.5777110  49.7795139  42.9121279  31.2186565
  48.0910803  42.9267178  31.7808963  48.6130033  44.5464323  30.4896945
  49.3867082  45.4664767  30.2002689  47.4325919  44.3777017  29.8814768
  47.1482318  45.0154579  29.1517465  46.8316781  43.6134013  30.1550607
  48.3058252  45.1384641  33.3962665  48.3939079  46.3650625  33.2788784
  47.2676419  44.5398225  33.9763525  47.1861544  43.5332350  33.9608367
  46.1603439  45.3151008  34.5258565  46.0129758  46.2165008  33.9309952
  44.8652313  44.4999812  34.5076235  45.0945042  43.5094411  34.9005146
  44.1546409  44.9967655  35.1682040  44.2554919  44.3657508  33.1126249
  44.4226020  45.2941728  32.5665410  44.7505085  43.5452014  32.5932412
  42.7599070  44.0859204  33.1499824  42.3043019  43.1673097  33.8405694
  41.9888992  44.8800020  32.4059701  40.9887794  44.7396789  32.3928825
  42.4086426  45.6180708  31.8590046  46.4408397  45.8844053  35.9242068
  45.9581130  46.9762020  36.2508932  47.1988655  45.1552253  36.7433272
  47.5247437  44.2444392  36.4528599  47.5220385  45.6105589  38.1064742
  46.5968588  45.7222338  38.6718681  48.4312099  44.6211489  38.8450379
  47.9079125  43.6653206  38.8705609  49.3408851  44.5210525  38.2529470
  48.7987316  45.0461739  40.2866424  47.9153604  45.5280691  40.7056092
  49.0087219  44.1302466  40.8389858  50.2207173  46.1724051  40.4330425
  51.5727715  45.0412948  40.1137732  51.4579040  44.6081801  39.1201353
  52.5185800  45.5804306  40.1674351  51.5656389  44.2460844  40.8592199
  48.1686954  46.9872278  38.0980161  47.8151102  47.8408647  38.9158404
  49.1000735  47.2036399  37.1695235  49.3680332  46.4633986  36.5367994
  49.8878145  48.4430947  37.1644602  50.0957438  48.7937758  38.1753446
  51.2240739  48.2980371  36.3811599  51.7227173  49.2664665  36.3411668
  52.1392692  47.2790294  37.0811013  51.6414598  46.3101696  37.1210633
  53.0718025  47.1851127  36.5246283  52.3540188  47.6186593  38.0943304
  50.9771597  47.9325289  34.9091323  50.4989723  46.9531996  34.8903765
  50.2960986  48.6767963  34.4964325  52.2601885  47.8912261  34.0676906
  52.9415978  47.1468033  34.4795351  52.0126802  47.6271034  33.0395476
  52.7387255  48.8704001  34.0855932  49.0922776  49.6811364  36.7168578
  49.6096094  50.7987634  36.7671732  47.8351256  49.4677421  36.3126058
  47.5199466  48.5129463  36.2170736  46.8899210  50.5530639  35.9835498
  47.4180977  51.4957921  35.8407484  46.0730033  50.2420659  34.6988978
  45.5048577  51.1310869  34.4251232  46.9889863  49.8458239  33.5398234
  47.5571570  48.9565429  33.8126990  46.3869183  49.6346824  32.6560629
  47.6765744  50.6634695  33.3235392  45.1340406  49.1906140  34.9730947
  44.6288706  48.9978356  34.1798482  45.8809798  50.8154340  37.1084033
  45.0226054  51.6936214  36.9819696  45.9958675  50.0616461  38.2032716
  46.7769885  49.4268448  38.2867983  44.9825850  50.0547812  39.2549699
  44.1876783  50.7624491  39.0195369  44.3707843  48.6476159  39.3670620
  45.1929095  47.9327776  39.3321950  43.8765242  48.5851135  40.3365466
  43.3665045  48.3228068  38.2617385  42.4091684  48.7714107  38.5269984
  43.7276970  48.7619349  37.3317876  43.1887812  46.8128679  38.0776491
  43.9837457  46.4453521  37.4287558  43.2649895  46.3319448  39.0528438
  41.8940300  46.4624425  37.4801751  41.2011636  46.0701421  38.1015735
  41.5733463  46.6348632  36.1970063  42.4428019  47.1574548  35.3340399
  43.3623591  47.4298194  35.6507924  42.1786114  47.2790044  34.3668125
  40.3726871  46.2677621  35.7759681  39.7146955  45.8629644  36.4265725
  40.1204771  46.3942639  34.8061815  45.5062834  50.5213407  40.6138114
  44.8014515  50.4108412  41.6231888  46.7284533  51.0576707  40.6312187
  47.2172264  51.1965670  39.7583452  47.4503881  51.3115109  41.8786786
  46.7777885  51.4052560  42.7312750  48.4994409  50.1822355  42.1881737
  49.1697832  50.5319382  42.9733161  47.8039959  48.9025385  42.6459036
  47.1337844  48.5519506  41.8610433  48.5512600  48.1367097  42.8537571
  47.2297121  49.1039995  43.5501786  49.4033119  49.8975749  40.9912065
  49.9476242  50.8030039  40.7228324  50.1123978  49.1111151  41.2496206
  48.7961665  49.5750803  40.1453505  48.0911661  52.7160673  41.9308895
  49.2961852  52.8720153  41.7261743  47.2689059  53.7447925  42.2117839
  45.8255268  53.6423421  42.4964709  45.6706734  52.9455628  43.3202544
  45.3097287  53.2754258  41.6091019  45.4305576  55.0484226  42.8481841
  45.3884707  55.1430994  43.9332482  44.4465332  55.2553461  42.4274944
  46.4573496  55.9500779  42.2642373  46.5690530  56.8175023  42.9147727
  46.2317962  56.2830028  41.2511300  47.7500476  55.1257100  42.2682928
  48.3916780  55.2934044  41.4032568  48.5286225  55.4210215  43.5409130
  48.4156741  54.6735843  44.5225189  49.3108193  56.5023684  43.5180421
  49.5082134  56.9556309  42.6373106  49.9548884  57.0225812  44.7265332
  49.9423238  56.2518040  45.4971459  51.4125645  57.4344218  44.4676576
  51.3550066  57.9976003  43.5361984  51.7256710  58.0977373  45.2739311
  52.4324747  56.2977245  44.3156101  52.1351213  55.4757932  44.9668480
  52.5034270  55.8037247  42.8739767  52.8011915  56.6250449  42.2221575
  53.2348647  54.9989056  42.8007239  51.5249902  55.4337665  42.5675574
  53.8153436  56.7410364  44.7903472  53.7646462  57.0285186  45.8405296
  54.5212237  55.9188153  44.6729292  54.1481521  57.5925004  44.1967592
  49.1608661  58.2033728  45.2795312  48.4191230  58.8719801  44.5479997
  49.3226827  58.4586512  46.5785999  49.9628330  57.8964058  47.1209900
  48.5996830  59.5348823  47.2561004  47.5438968  59.4181329  47.0115924
  48.7416447  59.3943027  48.3276337  49.0423861  60.9387247  46.8786106
  49.9385910  61.1172753  46.0506482  48.4072075  61.9297477  47.5031108
  47.7386496  61.7030323  48.2254194  48.6210900  63.3431259  47.1720016
  49.4284923  63.4368526  46.4457674  47.3423709  63.9461206  46.5659207
  46.5559150  63.8964521  47.3189940  47.5442941  64.9887410  46.3204218
  46.9215883  63.2567035  45.3953127  46.1234851  63.6656004  45.0526256
  49.0105232  64.1322441  48.4189961  48.2902655  64.1136100  49.4211775
  50.1411242  64.8330368  48.3549654  50.7202037  64.7944313  47.5283604
  50.6265251  65.5915221  49.5062843  49.8411902  66.1594048  50.0051404
  51.3101910  64.6569689  50.5554426  50.5796973  63.9230794  50.8958607
  52.5207845  63.9306804  49.9484144  53.2519706  64.6639597  49.6081654
  52.9752548  63.2880895  50.7024928  52.1950265  63.3241006  49.1034030
  51.7079491  65.4209726  51.8211175  50.8190796  65.8561388  52.2778925
  52.1800293  64.7365830  52.5259940  52.4083324  66.2149217  51.5618708
  51.5703620  66.7229190  49.0947882  52.3371941  66.5912287  48.1369286
  51.4675215  67.8464822  49.8064388  50.6657290  67.9759140  50.4068349
  52.4743148  68.9104105  49.7526150  53.2625410  68.6755327  49.0373312
  51.8591199  70.3017008  49.4094233  51.2400161  70.6310874  50.2438784
  52.9720587  71.3364421  49.1563705  53.5913424  71.0079506  48.3216959
  52.5244577  72.3013705  48.9183217  53.5889356  71.4331571  50.0497955
  50.8945160  70.2125350  48.2145280  51.4859902  69.9004891  47.3537804
  50.1658331  69.4380874  48.4540100  50.1531574  71.5343971  47.8805251
  50.8812212  72.3092494  47.6404690  49.4957519  71.3768260  47.0254880
  49.5610655  71.8468490  48.7407000  53.1288869  68.9707055  51.1369563
  52.4296855  69.1207636  52.1433310  54.4523250  68.8159356  51.1879446
  54.9601766  68.5514011  50.3559544  55.1988835  68.9538283  52.4449355
  54.5248315  68.7918562  53.2860765  56.3445583  67.9310959  52.5291891
  55.9165568  66.9529477  52.3097810  57.0651126  68.1938407  51.7546785
  57.0514525  67.8861425  53.8913230  57.5724408  68.8318491  54.0406920
  56.2964693  67.7612917  54.6675412  58.0591962  66.7292885  53.9668973
  57.5342240  65.7936160  53.7744913  58.8237525  66.8797105  53.2047121
  58.7185031  66.6691960  55.3444993  59.2688088  67.5990771  55.4879752
  57.9243419  66.5992042  56.0878083  59.6489438  65.5114188  55.5000698
  60.3851487  65.5763163  54.8116729  60.0517669  65.5253347  56.4261583
  59.1391279  64.6496566  55.3675823  55.7204183  70.3808472  52.5535602
  56.4144842  70.8582234  51.6530434  55.3736174  71.0578335  53.6529649
  54.8837666  70.5849176  54.3989516  55.6589148  72.4835732  53.8057287
  56.2710318  72.8317896  52.9737687  54.3527105  73.2852697  53.8219115
  53.8124045  73.0953217  54.7493211  54.5701237  74.3502427  53.7402772
  53.1976002  72.9045065  52.4809605  52.2602900  73.7709349  52.8546579
  56.4297478  72.7612698  55.0899152  56.0430170  72.2938306  56.1658041
  57.5165409  73.5250628  54.9891038  57.8610315  73.8172237  54.0857392
  58.3051415  73.8676299  56.1785532  57.7512830  73.5602597  57.0656064
  59.7166567  73.1915215  56.1849811  60.3133090  73.6074245  55.3731123
  60.4190940  73.4419930  57.5091906  59.8232243  73.0259339  58.3215543
  61.3991894  72.9651630  57.4970658  60.5393839  74.5147796  57.6600495
  59.6121291  71.6749968  55.9559919  60.4164779  71.2084499  56.5247253
  58.6507521  71.3553193  56.3580614  59.7140120  71.2622628  54.5128839
  60.6753849  71.5812119  54.1102259  59.6309134  70.1780320  54.4378011
  58.9096598  71.7280837  53.9435613  58.4228498  75.3851644  56.3300618
  58.9634110  76.0645171  55.4599224  57.9000605  75.9002119  57.4426931
  57.4435564  75.2823257  58.0983760  57.9270254  77.3340792  57.7427091
  58.2341161  77.9257791  56.8803370  56.5328343  77.8417061  58.2246252
  56.2573437  77.2942632  59.1260188  56.5592303  79.3387925  58.5266461
  56.8342120  79.8869686  57.6255418  55.5724510  79.6601947  58.8599143
  57.2898935  79.5390502  59.3103104  55.4370522  77.5289819  57.1911019
  55.3793120  76.4515115  57.0367462  54.4774703  77.8951529  57.5560965
  55.6768836  78.0183917  56.2471423  58.9787427  77.6106239  58.8182126
  58.9487804  77.0061440  59.8963612  59.8952704  78.5298642  58.5133599
  59.8444668  78.9933107  57.6174047  61.0251326  78.8448152  59.3970580
  61.1410084  78.0536308  60.1378003  62.3345025  78.9639729  58.5954228
  62.1431515  79.6867721  57.8022989  63.1307938  79.3354203  59.2404398
  62.7535810  77.6481830  57.9861608  62.2033033  77.2121615  56.7775957
  61.4836985  77.8508799  56.2654363  62.5592520  75.9875859  56.2279875
  62.1219905  75.6567955  55.2859249  63.4676198  75.1790950  56.8917340
  63.8165941  73.9677989  56.3403897  63.3732283  73.7933496  55.5069667
  64.0310997  75.5848171  58.0908312  64.7540022  74.9528667  58.6067296
  63.6650171  76.8150849  58.6371376  64.0922096  77.1387062  59.5862824
  60.7941789  80.1114442  60.2027946  60.2170483  81.0808834  59.6963582
  61.2775222  80.0965468  61.4475802  61.7463794  79.2609185  61.7669508
  61.1219279  81.2073984  62.3879696  60.8121824  82.1063114  61.8549478
  60.0546436  80.8662776  63.4350043  60.3608613  79.9378577  63.9170484
  60.0634445  81.6747132  64.1660683  58.6524421  80.7065563  62.8743048
  58.0910191  79.4384587  62.6796164  58.6793518  78.5559495  62.9308964
  56.7918469  79.2936735  62.1694726  56.3622524  78.3027358  62.0225275
  56.0518180  80.4263164  61.8504468  54.7677554  80.3130935  61.3459176
  54.4799494  79.4019027  61.2537294  56.5904432  81.6902973  62.0338078
  56.0091402  82.5770880  61.7812418  57.8833806  81.8249366  62.5443850
  58.3103836  82.8168515  62.6922811  62.4446966  81.5440379  63.0819370
  63.3862619  80.7521926  63.0576713  62.5118716  82.7206497  63.7018291
  61.7449054  83.3747594  63.6385628  63.7321634  83.1447632  64.3971339
  64.5872557  83.0339611  63.7303211  63.6389002  84.6119779  64.8350163
  63.3521400  85.1960823  63.9605508  62.8544723  84.6784744  65.5889069
  64.9429470  85.1612523  65.4081660  65.1706791  84.6189090  66.3258275
  65.7366077  84.9922809  64.6803930  64.8410681  86.6477806  65.7104396
  64.7084837  87.1826176  64.7699771  63.9712867  86.8114880  66.3466625
  66.0943290  87.1646198  66.4180725  65.8775096  88.1660821  66.7897756
  66.2988917  86.5019162  67.2589514  67.2890307  87.2142553  65.5211281
  67.0998418  87.8286166  64.7421111  68.0840924  87.5613804  66.0383137
  67.4903680  86.2863058  65.1769304  64.0731346  82.2446458  65.5864796
  65.2503668  81.9546373  65.8297394  63.0411748  81.8115089  66.3119460
  62.1128970  82.0980492  66.0357319  63.1812927  80.9595153  67.4920146
  64.1225610  80.4120859  67.4426757  63.1738386  81.8064280  68.7686952
  62.2569937  82.3956934  68.7525423  63.1444648  81.1126358  69.6088675
  64.3746546  82.7379023  68.9198595  65.2363938  82.1164264  69.1633220
  64.5406936  83.2288099  67.9609330  64.1865647  83.7923760  70.0042300
  63.2552140  83.6661851  70.8301354  64.9762888  84.7618596  70.0228436
  62.0316484  79.9548787  67.5410370  60.9741002  80.2096336  66.9505281
  62.2312269  78.8098821  68.2294323  63.4852475  78.3239457  68.8462987
  63.8298718  79.0554756  69.5771875  64.2408794  78.2028664  68.0701162
  63.0976268  77.0172095  69.4768466  62.9639421  77.1678760  70.5480734
  63.8952371  76.2935064  69.3089982  61.8309392  76.5734847  68.8271360
  61.2479848  76.0593650  69.5912984  61.9465942  75.9229899  67.9601988
  61.1247284  77.8691428  68.4176150  60.5703297  77.7704911  67.4843368
  60.1879481  78.3871204  69.5154200  60.1243332  77.8312007  70.6209622
  59.4672136  79.4577319  69.1846968  59.5157321  79.7983608  68.2351088
  58.6875269  80.2299893  70.1633029  59.3278082  80.5300167  70.9928345
  58.1097163  81.4889119  69.5110931  57.5696308  82.0838621  70.2475992
  58.9135892  82.0863452  69.0810211  57.1419887  81.2029069  68.3956118
  57.5750943  81.1711079  67.0772118  58.6261252  81.3623391  66.8607297
  56.6871723  80.8994926  66.0368903  57.0421532  80.8800997  65.0064957
  55.3426098  80.6523180  66.3163673  54.6434018  80.4337660  65.5092471
  54.8947036  80.6860338  67.6374628  53.8452143  80.4999157  67.8655687
  55.7956943  80.9592955  68.6689811  55.4498584  80.9841359  69.7023641
  57.5752451  79.4400374  70.8587614  57.1960914  79.7589990  71.9853988
  57.0628577  78.4120657  70.1864287  57.3381552  78.2531048  69.2277619
  56.0249464  77.5459678  70.7667662  55.1662213  78.1495697  71.0606287
  55.5610925  76.4961712  69.7509628  54.9755709  75.7223276  70.2473798
  54.9535987  76.9737043  68.9821888  56.6903612  75.7911131  69.0339912
  57.2619681  74.5989519  69.3739121  56.8702819  74.1013500  70.2610841
  58.2564305  74.2740065  68.4748565  58.8199047  73.4361354  68.4986952
  58.3472057  75.2673220  67.5357391  59.1970015  75.3873419  66.4303938
  59.9213111  74.5948095  66.2423335  59.0622492  76.5083653  65.6449581
  59.7094629  76.6395941  64.7777825  58.0981492  77.5008540  65.9374018
  57.9973659  78.3886502  65.3130940  57.2478549  77.3721884  67.0339152
  56.5180454  78.1612009  67.2154037  57.3690798  76.2408225  67.8533369
  56.4560020  76.8651121  72.0651948  55.6280530  76.6319018  72.9462086
  57.7488541  76.5579089  72.1801721  58.3725793  76.7393163  71.4067657
  58.2879302  75.8841216  73.3636807  57.7277257  74.9684539  73.5529496
  59.7588290  75.5226702  73.1548610  60.3033046  76.4502280  72.9779936
  60.1176586  75.0610991  74.0748031  59.9859772  74.5691973  71.9857186
  59.3867180  73.6736626  72.1500563  59.6582472  75.0621435  71.0704595
  61.4488558  74.1822453  71.8559837  62.0529536  75.0820443  71.7396794
  61.7632900  73.6474825  72.7522311  61.6653621  73.3191467  70.6951013
  60.8455987  73.0541580  70.1679691  62.8497273  72.8649940  70.2970042
  63.9575676  73.1908380  70.9596629  63.8992031  73.7881462  71.7720154
  64.8512599  72.8392229  70.6469641  62.9297909  72.0824005  69.2263622
  62.0909047  71.8365177  68.7204850  63.8291725  71.7369480  68.9232550
  58.1169641  76.7180799  74.6313617  57.9014758  76.1720093  75.7069627
  58.1963963  78.0419582  74.4841108  58.4450780  78.4218286  73.5819161
  57.9880390  78.9780880  75.6029331  58.6625819  78.7307390  76.4226341
  58.2671033  80.4132260  75.1568290  57.5757567  80.6275052  74.3418298
  58.0362806  81.0554804  76.0067291  59.6897570  80.6763081  74.6956855
  60.3734700  80.3884896  75.4943079  59.8873874  80.0689516  73.8124174
  59.8977391  82.1601638  74.3536626  59.6259806  82.7555049  75.2253364
  60.9515428  82.3154939  74.1224271  59.0436713  82.5893943  73.1559338
  59.3598233  81.9798654  72.3093979  58.0093279  82.3538285  73.4064168
  59.1514070  84.0324971  72.7966230  60.1096991  84.2508876  72.5640685
  58.5594027  84.2265959  72.0016660  58.8580930  84.5974683  73.5807616
  56.5791870  78.9080590  76.1973470  56.3826455  79.2202094  77.3780894
  55.6110304  78.5148502  75.3672027  55.8341218  78.3851673  74.3907233
  54.2201731  78.3238214  75.7944004  54.0184747  78.9276978  76.6791322
  53.2574152  78.7483074  74.6825201  53.5883829  78.2534049  73.7694861
  52.2701088  78.3779608  74.9585082  53.1882125  80.2495109  74.4485373
  53.0478685  80.7523969  75.4053603  54.1228908  80.5824909  73.9973136
  52.0334470  80.5876778  73.5260853  52.2596984  80.1938511  72.5352221
  51.1346997  80.1061182  73.9113813  51.8032068  82.0971179  73.4340958
  50.8282387  82.2624399  72.9756131  51.8010374  82.5004772  74.4467140
  52.8482111  82.7795906  72.6326327  52.8500982  82.4062750  71.6941597
  52.6543919  83.7702981  72.6004960  53.7516665  82.6268806  73.0575411
  53.9182219  76.8821088  76.2118871  52.7577598  76.5294862  76.4405138
  54.9702828  76.0657002  76.3161645  55.8722213  76.4230810  76.0352995
  54.8695051  74.6529184  76.6939745  55.8671900  74.2140690  76.7056037
  54.2383768  74.4767428  78.0868562  54.5990958  75.2821748  78.7265907
  53.1579076  74.5617747  77.9708560  54.5755241  73.1376307  78.7204149
  55.6920022  72.6238557  78.4857391  53.7231856  72.6006852  79.4612750
  54.1287343  73.8421902  75.6251960  53.3585518  72.9293073  75.9322087
  54.3816193  74.1994641  74.3664687  54.9286783  75.0318119  74.1990686
  53.9282374  73.4271404  73.2156798  53.2638395  72.6302172  73.5497276
  53.1715679  74.3111387  72.2286234  53.8768646  75.0618454  71.8721192
  52.9135604  73.6383522  71.4107661  51.9172131  74.9962931  72.7336862
  51.6097127  76.2853495  72.3077822  52.2982082  76.7854887  71.6266550
  50.4565752  76.9347593  72.7307086  50.2427350  77.9505027  72.3980834
  49.5909792  76.2948533  73.5955258  48.4479942  76.9585494  73.9913260
  48.3708637  77.8347917  73.6068135  49.8591586  75.0076591  74.0323564
  49.1732855  74.4978554  74.7089499  51.0247867  74.3605718  73.5966008
  51.2433947  73.3468953  73.9324142  55.1465792  72.8548590  72.4975354
  56.1158626  73.5775798  72.2574202  55.1033784  71.5763645  72.1332957
  54.3150475  70.9890400  72.3649929  56.2639361  70.9582982  71.4917657
  57.1752563  71.3973343  71.8977732  56.3008717  69.4476363  71.7300353
  57.2399140  69.0399672  71.3557296  56.2159312  69.2422773  72.7971402
  54.9900514  68.4986727  70.9320177  55.3859952  67.3106502  71.3800461
  56.3450136  71.2825977  70.0005564  57.4239538  71.2188259  69.4096840
  55.2069016  71.6371578  69.4038510  54.3535072  71.6894283  69.9415174
  55.1488262  71.9579666  67.9772428  54.7708880  72.9746505  67.8694664
  56.1589707  71.9014986  67.5716336  54.2494179  71.0106251  67.1989121
  53.9550337  71.2497165  66.0205305  53.8186913  69.9383430  67.8571392
  54.1546942  69.7659931  68.7938872  52.8796703  68.9829310  67.2706722
  53.1336696  68.8013511  66.2263483  52.8960524  67.6357048  68.0236915
  52.6439365  67.8128007  69.0692416  51.8854830  66.6634250  67.4136175
  52.1372361  66.4854682  66.3681265  51.9131121  65.7201372  67.9590933
  50.8847995  67.0906999  67.4781865  54.2106417  67.0672520  67.9607752
  54.2197377  66.2294407  68.4293793  51.4664893  69.5574070  67.3206894
  50.9751925  69.9131046  68.3908608  50.8178088  69.6265916  66.1611709
  51.3033492  69.3854378  65.3090003  49.4271606  70.0737358  66.0648601
  48.9933912  70.1293301  67.0632852  49.3349430  71.4593409  65.4123845
  49.7799351  71.3738583  64.4210349  48.2751183  71.6947992  65.3152709
  50.0360419  72.5754026  66.1916383  49.5288140  72.6877045  67.1498705
  51.0688015  72.2708948  66.3612990  50.0189567  74.1608623  65.3202579
  51.6863851  74.2014488  64.6507349  51.8353157  73.3451166  63.9930010
  51.8291379  75.1223543  64.0853541  52.4073888  74.1615249  65.4672280
  48.6231891  69.0615092  65.2512484  49.0298358  68.6863117  64.1519544
  47.5046361  68.6085936  65.8161800  47.3077570  68.8611539  66.7740690
  46.5566320  67.7411167  65.1193422  46.9624905  67.4256941  64.1581520
  46.2001559  66.4907620  65.9650206  45.7870975  66.8190166  66.9188193
  45.1707970  65.6091632  65.2370062  45.5833472  65.2801207  64.2832589
  44.9378192  64.7392097  65.8510118  44.2608765  66.1826491  65.0602071
  47.4650421  65.6824609  66.2820271  47.6178020  64.9907610  65.4535849
  48.2938392  66.3892790  66.3220642  47.3999098  64.9042264  67.5859220
  46.5715798  64.1968286  67.5464529  48.3337554  64.3615905  67.7328160
  47.2476146  65.5953471  68.4149323  45.3226134  68.6112668  64.8599542
  44.6137430  68.9833707  65.7914945  45.0941179  68.9584550  63.5951332
  45.6154845  68.5232794  62.8475381  44.1365747  70.0182060  63.2513837
  43.6226318  70.3871797  64.1389762  44.8368001  71.2015879  62.5296490
  45.1974845  70.8578370  61.5601943  43.8618284  72.3739885  62.3272902
  43.5010497  72.7186082  63.2964015  44.3752343  73.1907364  61.8199068
  43.0173297  72.0445937  61.7219637  46.0801381  71.6623363  63.3042996
  45.7278569  72.2157690  64.1747655  46.6034453  70.7643388  63.6327041
  47.0371733  72.5429998  62.4921196  46.5146712  73.4414750  62.1637392
  47.8878832  72.8244050  63.1127670  47.3902579  71.9900451  61.6216759
  42.9957926  69.4965633  62.3834746  43.1969775  69.1764211  61.2116523
  41.8011105  69.4315555  62.9646205  41.7004662  69.7242562  63.9260238
  40.6257640  68.9082492  62.2735264  40.9276746  68.1824668  61.5184178
  39.6955129  68.2136625  63.2770438  40.3177338  67.6315842  63.9568417
  39.1724465  68.9884975  63.8375189  38.6795461  67.2974331  62.6093484
  38.5173758  67.3548213  61.3727739  38.0380523  66.5145631  63.3327814
  39.8936905  70.0403514  61.5578378  40.0083979  71.2045007  61.9467552
  39.1553413  69.7036408  60.5062199  39.1736836  68.7583559  60.1509744
  38.3003202  70.6794881  59.8346024  37.2905061  70.2693222  59.8228303
  38.3155432  71.5889341  60.4352483  38.7106384  71.0178702  58.4187004
  39.9045541  71.1678345  58.1172075  37.7054578  71.1632472  57.5576437
  36.7621588  71.0447625  57.8985949  37.9008174  71.4067775  56.1288598
  38.5044017  70.6122661  55.6900694  36.5380178  71.4368792  55.4195172
  36.0573107  70.4818831  55.6316548  35.9660749  72.2415232  55.8816095
  36.5932315  71.6555350  53.9003707  35.5697152  71.6256459  53.5267107
  37.0123722  72.6474192  53.7312966  37.4328716  70.6173105  53.1648141
  38.0910004  70.9956961  52.1733501  37.4375029  69.4346002  53.5760610
  38.6826615  72.6885343  55.8316976  39.4413556  72.7565843  54.8618536
  38.4981865  73.6962500  56.6786852  37.8985858  73.5614066  57.4801811
  39.0752272  75.0189454  56.4610252  38.8923763  75.3381766  55.4349862
  38.4422595  76.0417041  57.4126935  39.0755780  76.0804602  58.2989807
  38.4714267  77.0050270  56.9035194  36.9984929  75.7269052  57.8291871
  36.5345850  76.6468596  58.1849597  36.4766319  75.3785586  56.9378875
  36.9131741  74.6615661  58.9166277  36.0881234  73.7344105  58.7807863
  37.6803034  74.7421156  59.8977462  40.5970261  75.0317420  56.6224509
  41.2878652  75.8148694  55.9642558  41.1113092  74.1752024  57.5018790
  40.4974952  73.5713971  58.0298476  42.5459196  74.1088979  57.7690977
  42.9401961  75.1164132  57.9016050  42.8031748  73.3148243  59.0414274
  42.4220062  72.3007939  58.9207927  43.8748114  73.2786904  59.2373600
  42.2972422  73.7953787  59.8788036  43.2881727  73.4768098  56.5891528
  42.9802255  72.3513708  56.2116325  44.2551560  74.2048197  55.9920842
  44.6415242  75.6057332  56.2585554  44.6990693  75.7675573  57.3349390
  43.8956221  76.2753430  55.8303593  45.9704956  75.7301676  55.5878780
  46.7635622  75.4564176  56.2837266  46.1209203  76.7560619  55.2517013
  45.9147058  74.7838578  54.4178437  46.9168201  74.4242130  54.1843454
  45.4755974  75.2369867  53.5290481  45.0387479  73.6151604  54.8980282
  44.3367133  73.2761657  54.1362354  45.9149466  72.4382006  55.3448028
  46.0876240  71.4750292  54.5887087  46.4526383  72.5284747  56.5616920
  46.2387296  73.3450513  57.1162594  47.3473007  71.5114316  57.1345092
  47.6047028  70.7263303  56.4235526  48.6583939  72.1688689  57.6438379
  48.3962014  73.0487071  58.2314085  49.4777319  71.2024060  58.5086926
  49.7407104  70.3224661  57.9216244  50.3876636  71.6984750  58.8463912
  48.8878155  70.8985936  59.3734458  49.4950847  72.6831286  56.4766757
  48.9239627  73.4251163  55.9186651  50.4087682  73.1396568  56.8572860
  49.7512515  71.8526124  55.8188594  46.6484995  70.8103677  58.2957066
  46.1205389  71.4832539  59.1872018  46.6426861  69.4712174  58.2815355
  47.0306835  68.9880216  57.4839897  45.9972738  68.6744350  59.3313120
  45.2885160  69.3463849  59.8153003  45.2212315  67.5028963  58.7179341
  45.9183823  66.8164982  58.2373734  44.6766126  66.9769214  59.5020520
  44.5162352  67.8812490  57.9777120  46.9612464  68.1690577  60.4105561
  46.5259873  67.7157832  61.4729405  48.2652595  68.2436601  60.1409558
  48.5842413  68.6516904  59.2738565  49.2700081  67.7044828  61.0685791
  48.9433993  67.8551775  62.0975188  49.4622034  66.2036524  60.8309151
  48.4775585  65.7457558  60.7365526  49.9869995  66.1351806  59.8780244
  50.2593176  65.4749061  61.9018230  49.7156027  65.2447708  63.1690175
  48.7108400  65.6105918  63.3805041  50.4282442  64.5655437  64.1493428
  49.9928399  64.4046782  65.1355715  51.6939085  64.0881391  63.8665661
  52.4006124  63.4076498  64.8311385  51.9206570  63.3232225  65.6582506
  52.2642643  64.2938000  62.6150327  53.2668671  63.9278876  62.3936817
  51.5356402  64.9799150  61.6329430  51.9652843  65.1329216  60.6429456
  50.6092624  68.4080347  60.9258706  51.0878892  68.6162973  59.8046869
  51.2055591  68.7702787  62.0637737  50.7285949  68.6084767  62.9392305
  52.5290238  69.3856170  62.1000235  53.0325224  69.2877250  61.1382514
  52.4836121  70.8927900  62.4865779  53.4824156  71.3071558  62.3494910
  51.4865001  71.6783785  61.6389810  50.4873254  71.2648581  61.7759131
  51.4917253  72.7240141  61.9467440  51.7673853  71.6080585  60.5881437
  52.1664338  71.0234064  63.8796907  52.1389777  71.9535202  64.1157730
  53.4515175  68.7185029  63.1225430  52.9825073  68.1006165  64.0843849
  54.7611313  68.8624397  62.9022820  55.0565091  69.2172798  62.0039838
  55.7925019  68.5023649  63.8809990  55.3457859  68.4273308  64.8724191
  56.4337816  67.1529547  63.5285215  56.7378545  67.2977201  62.4918528
  57.3192815  67.0388916  64.1538050  55.5677547  65.8932135  63.6353089
  54.6017021  66.0771654  63.1651973  56.2638491  64.7284510  62.9301622
  57.2298368  64.5435905  63.4000486  55.6455162  63.8341770  63.0078741
  56.4130712  64.9761725  61.8792259  55.2596397  65.5415065  65.1043424
  54.7244502  66.3680326  65.5718102  54.6437217  64.6429869  65.1418780
  56.1925897  65.3644781  65.6394724  56.8672748  69.5955284  63.9251552
  57.1137266  70.2725545  62.9227385  57.4897587  69.7718010  65.0894179
  57.1362986  69.3009978  65.9100943  58.6650808  70.6356525  65.2358673
  58.4240679  71.6620756  64.9593395  59.1150301  70.6156677  66.7049116
  58.2175787  70.7661014  67.3049533  59.5381998  69.6354597  66.9245012
  60.1363029  71.6959599  67.0394866  60.8328121  72.1879142  66.1323737
  60.2586573  72.0389049  68.2379804  59.7864166  70.1167829  64.3217944
  60.1520225  68.9413578  64.4042400  60.3112359  70.9832269  63.4518027
  59.8945023  71.8986207  63.3596798  61.4109461  70.6162817  62.5298359
  61.6742659  69.5691284  62.6789395  60.9974576  70.8156680  61.0573682
  59.9176289  70.6919100  60.9751908  61.2668367  71.8376872  60.7908881
  61.6982055  69.8372574  60.1046567  61.7713703  68.6267536  60.4196764
  62.1580059  70.2726173  59.0220786  62.7237303  71.3589302  62.8316719
  63.6511423  71.3825618  62.0055022  62.7972002  71.9502655  64.0217701
  61.9626447  71.9840158  64.5896411  64.0055288  72.6155267  64.5210883
  64.2891313  73.4234371  63.8465888  63.7472599  73.2136147  65.9308447
  63.5303794  72.3943557  66.6163211  64.9462407  73.9954253  66.4399007
  65.1634557  74.8151909  65.7551367  64.7253001  74.3974753  67.4286575
  65.8114484  73.3353489  66.5016681  62.6222862  74.1019087  65.8744443
  62.4625490  74.4716794  66.7458535  65.1963894  71.6420222  64.5457696
  65.0329487  70.4465756  64.7952061  66.3887598  72.1598885  64.2605796
  66.4649118  73.1313648  63.9949975  67.6060735  71.3405677  64.2581751
  67.4438451  70.4322564  63.6778719  68.7647891  72.1239249  63.6287122
  68.9238790  73.0167116  64.2334615  69.6514745  71.4916640  63.6749193
  68.5042384  72.5316726  62.1759816  67.4287855  72.5028365  62.0008517
  68.8673306  73.5499452  62.0367437  69.2036895  71.6045171  61.1908320
  70.1732507  72.0492937  60.9667254  69.3504789  70.6511432  61.6984051
  68.4327440  71.3746392  59.8846374  69.2231699  71.2317281  59.1478173
  67.9221004  70.4272617  60.0573165  67.4527252  72.3832534  59.3748221
  67.9257862  73.2610681  59.2143402  67.0507442  72.0541502  58.5086799
  66.7199856  72.5155088  60.0572444  67.9474311  70.8983647  65.6860647
  67.5439216  71.5606349  66.6403709  68.6764966  69.7682983  65.8384436
  69.2209075  68.8895632  64.7878112  69.6197662  69.4966078  63.9750942
  68.4294301  68.2453781  64.4048124  70.2840743  68.1211266  65.5058527
  71.2305081  68.6572132  65.4353316  70.3903261  67.1360713  65.0514543
  69.8290703  68.0087944  66.9122335  70.6955069  67.9919002  67.5733698
  69.2266696  67.1161433  67.0807180  68.9901904  69.2656317  67.1834003
  68.0465481  69.0354878  67.6780428  69.7800309  70.2661705  68.0323491
  69.6926278  70.2323253  69.2592852  70.5195712  71.1554270  67.3728129
  70.6010556  71.0802783  66.3689143  71.2891709  72.1975867  68.0558008
  71.7690826  71.7792920  68.9405683  72.3744858  72.7652745  67.1314091
  71.8753135  73.0630257  66.2093080  72.7770580  73.6483984  67.6275217
  73.5140571  71.8009928  66.8048449  74.3839343  72.4007235  66.5370061
  73.7277887  71.2370782  67.7128198  73.1944249  70.8333703  65.6688687
  72.1634142  71.0089204  64.9787839  73.9888487  69.8884473  65.4634219
  70.4084673  73.3351020  68.5891393  70.8793767  74.1746567  69.3646980
  69.1435352  73.3630754  68.1627038  68.8365597  72.6790826  67.4859326
  68.1730491  74.3532670  68.6394840  67.2128062  73.8505409  68.7548062
  68.5131849  74.7129894  69.6105694  68.0015611  75.5367273  67.7073645
  67.2186409  76.4481999  67.9897446  68.7426479  75.5289759  66.5994004
  69.4584728  74.8255505  66.4858807  68.6504034  76.5921340  65.5991865
  68.0476621  77.4094920  65.9950753  70.0402797  77.1391202  65.2329012
  69.9290830  77.8514936  64.4154303  70.4494580  77.6488214  66.1051843
  71.0143423  76.0545009  64.8028396  70.6702749  74.8758795  64.7188920
  72.2478946  76.4586015  64.5234307  72.9425012  75.7858757  64.2317776
  72.4859293  77.4368529  64.6038323  67.8648217  76.1793879  64.3515667
  67.4010755  75.0452809  64.2525379  67.7181540  77.1102835  63.4084909
  68.1570278  78.0102466  63.5409884  66.8616886  76.9193336  62.2286646
  66.7176614  77.8788118  61.7319184  67.4847279  75.9353599  61.2253228
  67.4847500  74.9486552  61.6884782  66.8306068  75.9268902  60.3534548
  68.8921901  76.2910551  60.7963201  69.9980194  75.8501301  61.5279659
  69.8303071  75.2436518  62.4179974  71.2958926  76.1718843  61.1390540
  72.1501219  75.8292777  61.7230188  71.4962237  76.9335955  60.0019922
  72.7772600  77.2586222  59.6043734  73.4523089  76.9051430  60.1882922
  70.4156518  77.3778168  59.2493895  70.5737972  77.9738678  58.3506049
  69.1158619  77.0536865  59.6543226  68.2615338  77.3996302  59.0724751
  65.4539925  76.4726449  62.6468908  64.8849443  75.5355003  62.0766855
  64.9080606  77.1506294  63.6553348  65.4521827  77.8667927  64.1148352
  63.5586336  76.8727127  64.1581171  63.5573902  75.9235975  64.6941005
  63.1329807  77.9608034  65.1061399  63.1205403  78.9161633  64.5815135
  62.1349339  77.7424904  65.4860640  63.8346704  78.0131324  65.9386016
  62.5588397  76.7575030  63.0148202  62.5514613  77.5917345  62.1102742
  61.7170375  75.7273628  63.0605622  61.7322502  75.0907695  63.8445372
  60.7982525  75.4477316  61.9584976  60.3912268  76.4005419  61.6199982
  61.5490224  74.7954323  60.7948000  61.9547102  73.8359873  61.1157093
  60.8637803  74.6392066  59.9616511  62.3639210  75.4459736  60.4772539
  59.6336522  74.5677009  62.3721235  59.7494146  73.7811163  63.3163013
  58.5210925  74.7170506  61.6491100  58.4742558  75.4832946  60.9927748
  57.3593250  73.8404045  61.7742735  57.5356205  73.0575726  62.5119682
  56.0609137  74.6293659  62.1513318  55.9319548  75.4495277  61.4450708
  54.8299024  73.7157406  62.1036260  54.9579311  72.8955378  62.8100089
  53.9413386  74.2882819  62.3696179  54.7143393  73.3131826  61.0973003
  56.1926253  75.2936118  63.5303585  57.1320857  75.8463095  63.5240222
  55.3611989  75.9923852  63.6227992  56.1788364  74.3246292  64.7161092
  57.0103102  73.6257891  64.6246012  56.2769460  74.8855529  65.6455382
  55.2394236  73.7718629  64.7233768  57.1554802  73.1251013  60.4350332
  57.0580382  73.7785053  59.3915917  57.1045676  71.7940498  60.4739043
  57.2969923  71.3213031  61.3454446  56.7739537  70.9797581  59.2991841
  57.0387272  71.5140209  58.3867383  57.5582923  69.6594774  59.3401474
  58.6069335  69.9259868  59.4721455  57.2081114  69.1181619  60.2190393
  57.4101592  68.7744472  58.1054870  57.5406969  69.4281153  57.2430609
  58.2292925  68.0563535  58.1437508  55.8390216  67.8794633  57.9435811
  55.7127291  66.9973307  59.4956405  55.7043533  67.7105359  60.3198778
  54.7909259  66.4157958  59.5096682  56.5658833  66.3276373  59.6039916
  55.2790450  70.6817063  59.3142588  54.7419573  70.3054087  60.3515345
  54.6135768  70.8504984  58.1753689  55.0756589  71.2357106  57.3640792
  53.2021520  70.4866725  58.0615980  52.9553546  69.7978285  58.8694868
  52.6018407  71.3911407  58.1598976  52.8845170  69.8259184  56.7361837
  53.5385642  70.1162705  55.7248089  51.8807750  68.9445539  56.7422353
  51.4069168  68.7524072  57.6132332  51.4191147  68.2547216  55.5322211
  52.1591568  68.3707950  54.7404105  51.2173648  66.7589749  55.7985752
  50.5883710  66.6025574  56.6749311  50.7391269  66.3159807  54.9249937
  52.4840924  65.9844218  56.0345467  52.6487468  65.2560339  57.2124759
  51.8555309  65.2689929  57.9599653  53.8163936  64.5131995  57.4416724
  53.9353199  63.9506708  58.3676954  54.8272075  64.4957651  56.4801375
  55.7390191  63.9242590  56.6535743  54.6690313  65.2094029  55.2992978
  55.4537584  65.1951385  54.5429249  53.4962802  65.9499985  55.0803937
  53.3694297  66.5083065  54.1528696  50.0762297  68.8055421  55.0497912
  49.1325608  68.9214103  55.8344100  49.9931033  69.1181866  53.7592889
  50.8346354  69.1982220  53.2065524  48.7061208  69.3939731  53.1108703
  47.9454769  69.6203508  53.8580471  48.8029311  70.5684182  52.0987213
  49.5460890  70.3225725  51.3401855  47.4512364  70.8090915  51.4278660
  46.7076150  71.0554628  52.1857770  47.5373203  71.6351930  50.7220002
  47.1432227  69.9085378  50.8966130  49.2938006  71.8420160  52.8032224
  48.5406056  72.0995675  53.5478466  50.2265677  71.5842080  53.3048000
  49.5273492  73.0442939  51.8739770  48.5948500  73.3029985  51.3723625
  49.8722084  73.8958737  52.4604778  50.2808110  72.7876378  51.1293140
  48.2661924  68.1044169  52.4102841  48.9440575  67.6408773  51.5041048
  47.1317032  67.5393931  52.8372165  46.5054563  68.0642161  53.4309125
  46.7880751  66.1377523  52.5225090  47.6386224  65.6419458  52.0547009
  46.4248413  65.3803041  53.8086161  45.5426858  65.9200862  54.1529071
  46.1412779  64.3680631  53.5204149  47.4582505  65.3188102  54.9375305
  47.9286298  66.2965856  55.0414513  46.7929055  64.9365205  56.2460665
  46.3226685  63.9585811  56.1430587  47.5416911  64.8975305  57.0372054
  46.0355896  65.6783636  56.4995261  48.5923523  64.3455403  54.6010520
  49.0935595  64.6719230  53.6898083  49.3092771  64.3244941  55.4218304
  48.1823308  63.3466947  54.4517570  45.6551602  65.9243151  51.5209270
  44.6460068  66.6315928  51.5580829  45.8269713  64.9180712  50.6623438
  46.7677519  64.5755318  50.5293103  44.7610493  64.3863546  49.7956549
  45.2687929  63.7538251  49.0675051  43.7869338  63.5169383  50.6069601
  43.2642150  64.1380496  51.3343429  43.0622697  63.0579658  49.9344228
  44.3426091  62.7374386  51.1282129  44.0468445  65.4827113  48.9916658
  44.7138393  66.2101395  48.2555088  42.7270723  65.6372790  49.1271515
  42.1736370  65.0208590  49.7049361  42.0234976  66.6299469  48.2868359
  42.2714712  66.4416129  47.2422601  40.5001089  66.5682136  48.4475246
  40.0088263  67.0010003  47.5760682  40.1892137  65.5296527  48.5608175
  39.9795711  67.3031511  49.6409727  39.9469626  66.7499430  50.9007396
  39.4325477  67.6203017  51.7506755  39.3229202  67.3689842  52.8056259
  39.1277941  68.7200471  51.0856798  38.7174219  69.5567091  51.4751554
  39.4601527  68.5470688  49.7637501  39.2834865  69.3497793  49.0478268
  42.5335531  68.0642227  48.4671304  42.4528711  68.8790226  47.5460020
  43.0615901  68.3688305  49.6503620  43.0190829  67.7117234  50.4161967
  43.6029982  69.7064618  49.9112658  42.9096538  70.4601835  49.5380683
  43.8086047  69.9310465  51.4125035  44.4135179  69.1086662  51.7944327
  44.3493486  70.8688451  51.5398995  42.4848830  69.9947945  52.1870550
  41.9268877  70.8654226  51.8424557  41.9162995  69.0904178  51.9704499
  42.7156046  70.1018324  53.6905298  43.4159203  69.3218580  53.9893556
  43.1477304  71.0791740  53.9054023  41.4080344  69.9395540  54.4707555
  40.7396548  70.7540927  54.1916572  40.9574182  68.9878226  54.1892390
  41.6352782  69.9655441  55.9511834  42.0524290  70.8475295  56.2123091
  40.7523642  69.8560339  56.4292737  42.2542492  69.2105919  56.2100679
  44.8821580  69.9921897  49.1272869  45.1458726  71.1458183  48.7714814
  45.6686664  68.9509000  48.8593516  45.4708294  68.0487826  49.2681841
  46.8624952  69.0876896  48.0265976  47.4888893  69.8914533  48.4134999
  47.6749393  67.7996822  48.0160389  47.0639539  66.9873152  47.6225204
  48.5549600  67.9297451  47.3861599  47.9882395  67.5587794  49.0318676
  46.4454515  69.4835036  46.6089887  47.0532815  70.3708254  46.0144882
  45.3908801  68.8436262  46.0985615  44.9968893  68.0688258  46.6129106
  44.8104187  69.1791908  44.7936542  45.5894731  69.1624735  44.0314903
  43.7197924  68.1691983  44.4033474  43.2290836  67.8712226  45.3299080
  43.0110080  68.7078333  43.7743823  44.2132246  66.9223894  43.6635973
  43.4871680  66.7005378  42.8814690  45.1714734  67.1730310  43.2085808
  44.3808508  65.7044782  44.5596860  44.8578441  64.9149849  43.9789307
  45.0246280  65.9798550  45.3950410  43.1134367  65.1958494  45.0914304
  42.3071414  65.7997445  45.0186428  42.9616996  63.9984842  45.6535685
  43.9902465  63.1567478  45.7472820  44.8948454  63.4276984  45.3889711
  43.8606167  62.2515821  46.1762001  41.7757612  63.6392084  46.1306379
  40.9944362  64.2758436  46.0648598  41.6604707  62.7309482  46.5571003
  44.2289342  70.5977020  44.7812912  44.4785014  71.3710633  43.8569501
  43.4585002  70.9304870  45.8149195  43.3019407  70.2579855  46.5520288
  42.7655947  72.2218236  45.8925785  42.2030592  72.3984325  44.9758111
  41.7896820  72.2266428  47.0747528  41.1446092  71.3559671  46.9568371
  42.3872441  72.1155855  47.9795654  40.9307230  73.4854306  47.1834572
  41.5617094  74.3582686  47.0157947  40.1527913  73.4482416  46.4208686
  40.2882220  73.5814839  48.5581151  39.6290787  72.7242104  48.6949040
  41.0748052  73.5583474  49.3123372  39.4862893  74.8648827  48.7020089
  40.1112435  75.6983905  48.3813885  38.6113470  74.7977253  48.0554294
  39.0467033  75.0862699  50.1130390  39.8573108  75.1489587  50.7122764
  38.5184786  75.9452260  50.1702500  38.4672426  74.3142414  50.4101860
  43.7398921  73.3965256  46.0055906  43.6077336  74.3981178  45.2903864
  44.7245966  73.2673879  46.8899500  44.8087541  72.4185594  47.4307892
  45.6146290  74.3867363  47.2106841  45.1011183  75.3306837  47.0280118
  46.0329665  74.3344796  48.6808351  46.5579068  73.3839618  48.7759813
  46.7204004  75.1519478  48.8982756  44.8624485  74.3734731  49.6724001
  44.1438367  73.5966821  49.4110697  45.3649632  74.1407978  51.0671299
  46.0833263  74.9175137  51.3293619  44.5281503  74.1699806  51.7649790
  45.8489375  73.1656534  51.1215589  44.0745266  75.6876907  49.5971527
  43.6685325  75.8115426  48.5931960  43.2576788  75.6640034  50.3184707
  44.7367651  76.5225874  49.8262523  46.8343235  74.5220158  46.2947273
  47.5794211  75.5062225  46.3805921  47.0279634  73.5399956  45.4196907
  46.4758966  72.6964230  45.4805748  48.0700983  73.6146572  44.3951058
  49.0265370  73.7906406  44.8874005  48.1486011  72.3170114  43.6443024
  47.2010843  72.1314197  43.1384688  48.9491696  72.3713438  42.9065773
  48.3526273  71.5047601  44.3419558  47.8316139  74.7749054  43.4232537
  48.7731363  75.2747669  42.8111492  46.5726600  75.1942600  43.3018755
  45.8491852  74.6969097  43.8012013  46.1778702  76.3141471  42.4361019
  46.5259206  76.1371849  41.4184357  44.6530642  76.4561094  42.4141130
  44.3448441  76.6950512  43.4319570  44.4250087  77.2969875  41.7591208
  43.9027952  75.2205918  41.9335825  44.3786691  74.8497235  41.0257821
  43.9517459  74.4548146  42.7077215  42.4517570  75.5537541  41.6434930
  42.0900993  76.2489917  42.4010862  42.3856590  76.0211484  40.6610099
  41.6021801  74.3660637  41.6547028  41.5946892  73.8045728  40.8151963
  40.8506673  73.9794052  42.6850123  40.8284494  74.6861782  43.8096275
  41.3858235  75.5249486  43.8864279  40.2542876  74.3815037  44.5826808
  40.1139017  72.8808616  42.5896789  40.1253570  72.3413194  41.7359441
  39.5447231  72.5888213  43.3712458  46.7975210  77.6495272  42.8585173
  47.0044603  78.5429487  42.0272753  47.0782582  77.7811920  44.1512957
  46.8815339  77.0137762  44.7777715  47.6133957  79.0174197  44.7169846
  47.1127630  79.8783037  44.2738765  47.3833326  79.0436377  46.2345519
  47.9999045  78.2105027  46.5719306  47.7980906  79.9782075  46.6122490
  45.9531617  78.8682970  46.7634223  45.5311801  77.9469887  46.3618959
  45.9682112  78.7987630  48.2803839  46.3896621  79.7199780  48.6826786
  44.9500221  78.6742988  48.6490307  46.5757678  77.9520329  48.5997949
  45.0130397  79.9779456  46.2832260  44.9716655  79.9737429  45.1940199
  44.0141566  79.8076931  46.6849074  45.3832765  80.9432426  46.6285164
  49.1003856  79.1899057  44.4149454  49.7583626  78.2665652  43.9331628
  49.6240164  80.3796214  44.6952903  49.0291298  81.1472138  44.9727993
  51.0603704  80.6148587  44.6077815  51.4821053  80.0486678  43.7773198
  51.3802266  82.1053548  44.3993442  52.4562923  82.2162615  44.2656181
  50.6545176  82.6573389  43.1710119  49.5783090  82.5471949  43.3042142
  50.8987401  83.7124484  43.0477295  50.9686748  82.1062384  42.2846181
  50.9820752  82.8351752  45.5654174  51.1787623  83.7667377  45.4425114
  51.7342654  80.1490659  45.9017443  51.0644930  79.9345204  46.9179239
  53.0568722  80.0045072  45.8544674  53.5227005  80.0987552  44.9632768
  53.8620020  79.6565781  47.0239448  53.5768064  78.6747682  47.4018497
  55.3431946  79.6184472  46.6294941  55.4244668  78.8968291  45.8166218
  55.5858939  80.6135962  46.2568339  56.3117238  79.2431048  47.7381182
  56.2209567  79.9624149  48.5520317  56.0669444  78.2465588  48.1056520
  57.7431939  79.2523369  47.2087364  57.8167080  78.5118971  46.4122167
  57.9502814  80.2428271  46.8035901  58.7515121  78.9294502  48.2926371
  58.7383592  79.7284706  49.0339157  58.4685157  77.9897714  48.7669955
  60.1277254  78.8038155  47.7197279  60.3903175  79.6745783  47.2805045
  60.7817105  78.5888597  48.4587796  60.1402323  78.0631929  47.0331270
  53.6245231  80.6472527  48.1677829  53.4605729  80.2526972  49.3255118
  53.5870561  81.9324277  47.8231679  53.7740227  82.1826323  46.8626781
  53.3611916  83.0059413  48.7867511  54.0671157  82.9178293  49.6125881
  53.5583573  84.3742881  48.1161530  52.9202260  84.3845643  47.2325342
  53.2077745  85.1238642  48.8256086  55.0076191  84.6944563  47.7059817
  55.0252435  85.7378008  47.3909859  55.6232931  84.5741357  48.5973670
  55.5613655  83.8099452  46.5782748  54.7921684  83.3687824  45.6856762
  56.7884423  83.5555330  46.5905987  51.9738832  82.9138037  49.4250293
  51.8192469  83.1323635  50.6304854  50.9678987  82.5750613  48.6174119
  51.1213837  82.5103879  47.6212397  49.6054402  82.4067204  49.1213415
  49.3310876  83.2725084  49.7240364  48.6009444  82.2739341  47.9673228
  49.0072845  81.5554631  47.2554335  47.6697480  81.8873507  48.3814803
  48.3300043  83.5992501  47.2548763  47.8092516  84.2357288  47.9702869
  49.2922436  84.0461480  47.0049223  47.4877656  83.4629518  45.9877987
  47.5650535  82.4246297  45.2889163  46.7485751  84.4248958  45.6856890
  49.4783004  81.2354255  50.1008683  48.7737115  81.3461469  51.1056331
  50.1596149  80.1253252  49.8121404  50.6142432  80.0246803  48.9158798
  50.1844041  78.9871955  50.7356795  49.1634993  78.7432709  51.0295388
  50.8196861  77.7468609  50.0953765  51.6613622  78.0907230  49.4941781
  51.1862831  77.1181452  50.9068093  49.8635761  76.9396383  49.2180679
  48.9923111  76.6738247  49.8166839  49.5523969  77.5680024  48.3835451
  50.5225903  75.6618126  48.6783442  50.8845544  75.0689102  49.5183131
  49.7801716  75.0887204  48.1229351  51.6496844  75.9545453  47.7904520
  52.5748019  75.9153426  48.1938380  51.5313515  76.2642443  46.4990459
  50.3360361  76.3128999  45.9200366  49.5073338  76.1135887  46.4619107
  50.2618718  76.5489603  44.9408150  52.6126987  76.5283906  45.7813273
  53.5239934  76.4941956  46.2154618  52.5210208  76.7627991  44.8031931
  50.8907754  79.3371567  52.0482128  50.3840545  79.0125274  53.1283048
  52.0368815  80.0157272  51.9615820  52.4511071  80.2060612  51.0603110
  52.7643672  80.4399797  53.1665701  53.0571350  79.5623860  53.7429515
  54.0283857  81.2294408  52.7989680  54.6379308  80.4642052  52.3183762
  53.7580770  81.9905832  52.0670558  54.8274940  81.8781438  53.9412011
  54.1861782  82.6114697  54.4301264  55.3044933  80.8452001  54.9746990
  55.9462811  80.1117542  54.4865757  55.8641299  81.3500478  55.7621229
  54.4418067  80.3402576  55.4093315  56.0044206  82.6786630  53.3917370
  55.6343087  83.4635166  52.7320996  56.5555298  83.1286805  54.2174877
  56.6654212  82.0165006  52.8325250  51.8713346  81.2719136  54.0962129
  51.8349830  81.0338066  55.3113218  51.1512661  82.2340965  53.5186703
  51.2787563  82.4334258  52.5367775  50.2511482  83.0932996  54.2902238
  50.8035124  83.5654951  55.1026426  49.6492868  84.1906431  53.4041983
  50.4827777  84.7454363  52.9733891  49.0964658  83.6907414  52.6088447
  48.7263450  85.1508748  54.1358863  47.8903981  84.5862105  54.5487395
  49.2825471  85.6208421  54.9469793  48.1973166  86.2251373  53.1942944
  49.0151093  86.9029153  52.9494863  47.8417413  85.7419807  52.2842256
  47.0576465  87.0131194  53.8293184  46.5408187  87.5614597  53.0417192
  46.3687450  86.3057791  54.2910365  47.5509897  87.9715325  54.8605632
  48.1890256  88.6273249  54.4328409  46.7683863  88.4725342  55.2563271
  48.0295538  87.4635889  55.5906788  49.1582030  82.2879238  54.9996895
  48.9219709  82.4793099  56.1949116  48.5096786  81.3821603  54.2653417
  48.6841386  81.3216708  53.2723643  47.4693777  80.5239832  54.8421365
  46.7006226  81.1440956  55.3031953  46.8132336  79.6497221  53.7641980
  47.6134172  79.1981799  53.1777553  46.2518018  78.8673588  54.2748859
  45.8783197  80.4246622  52.8375758  45.1751732  80.9930197  53.4463906
  46.4734757  81.1107247  52.2349070  45.1068041  79.4780852  51.9188034
  45.8185713  78.9832847  51.2580017  44.6052387  78.7322683  52.5354790
  44.0708884  80.2264756  51.0819573  44.5773304  81.0561116  50.5886812
  43.6882804  79.5362967  50.3300508  42.9390812  80.7499036  51.8967097
  43.2933527  81.3897909  52.5932265  42.2871067  81.2335508  51.2957814
  42.4694027  79.9812612  52.3535358  47.9996027  79.6564742  55.9871800
  47.3286810  79.4873680  57.0007233  49.2056858  79.1158962  55.8280326
  49.7000882  79.2056598  54.9519001  49.8049216  78.2923316  56.8833633
  49.0833108  77.5461828  57.2159876  51.0585298  77.5695943  56.3760703
  51.4077562  78.2395060  55.5903487  51.7950698  77.5369286  57.1789039
  50.8679579  76.1572652  55.7978982  50.5924123  75.5003936  56.6229407
  49.7938214  76.0843346  54.7064052  50.0689206  76.7406386  53.8807634
  49.7125542  75.0596395  54.3437810  48.8352233  76.4008017  55.1175483
  52.1918854  75.6246045  55.2788967  52.9125749  75.5828750  56.0955758
  52.0469344  74.6240680  54.8714447  52.5678256  76.2839785  54.4965963
  50.1171098  79.1137949  58.1339653  49.7939725  78.6981571  59.2469283
  50.7180676  80.2885500  57.9558358  50.9885831  80.5914221  57.0310714
  51.0700116  81.1409812  59.0981306  51.6759252  80.5728716  59.8039771
  51.8656048  82.3625881  58.6450776  51.3755439  82.8634535  57.8101684
  52.0006073  83.0695844  59.4636316  53.5146181  81.9411732  58.0742336
  53.8820925  83.1851299  57.7802395  49.8428377  81.5861640  59.8841272
  49.8590019  81.6173922  61.1155652  48.7786069  81.9297561  59.1659300
  48.8483224  81.9940775  58.1603944  47.5285807  82.3411612  59.8014977
  47.7370423  83.0801823  60.5751196  46.5776864  82.9594318  58.7798214
  46.4485017  82.2531761  57.9596913  45.6169863  83.1315367  59.2651411
  47.1153084  84.2795239  58.2340511  47.2765427  84.9289354  59.0944981
  48.0702320  84.0748658  57.7499694  46.1899760  84.9632829  57.2534826
  45.2546947  84.3111376  56.7367821  46.4110255  86.1652320  56.9859370
  46.8697337  81.1965769  60.5685157  46.3178187  81.4062350  61.6556528
  46.9480430  79.9878415  60.0112605  47.2999074  79.8839951  59.0702468
  46.4823046  78.7949641  60.7113913  45.4485345  78.9361804  61.0267905
  46.5529824  77.5592935  59.7967592  45.8357900  77.7962356  59.0108886
  47.5511390  77.4819006  59.3657210  46.1726990  76.2219310  60.4504197
  46.7891806  76.0858141  61.3389711  44.6864185  76.1860208  60.8473248
  44.0692605  76.3216183  59.9591648  44.4555043  75.2247004  61.3062829
  44.4801829  76.9862716  61.5580750  46.5197336  75.0478054  59.5414631
  47.5914654  75.0458694  59.3427510  46.2395839  74.1144376  60.0297682
  45.9765714  75.1426293  58.6012066  47.3017906  78.5563793  61.9798825
  46.7428036  78.3948744  63.0673031  48.6246799  78.5412236  61.8395424
  49.0430599  78.6215370  60.9237874  49.5036022  78.2941977  62.9855628
  49.2215767  77.3555723  63.4625777  50.9735421  78.2015415  62.5510326
  51.2205889  79.1629679  62.1007813  51.5611539  78.0643221  63.4587679
  51.2922690  77.0820454  61.5653995  52.4641969  77.1182918  60.8003758
  53.1443822  77.9609889  60.9241049  52.7705222  76.0983983  59.8891370
  53.6845967  76.1479128  59.2974293  51.8971143  75.0298476  59.7300359
  52.2055344  74.0172460  58.8373562  53.0415389  74.1564496  58.3864478
  50.7253689  74.9698039  60.4758854  50.0380882  74.1326582  60.3536852
  50.4292056  75.9932018  61.3892342  49.5128507  75.9499700  61.9778977
  49.3312306  79.3338854  64.1022026  49.3854221  78.9858519  65.2808819
  49.1314522  80.5985518  63.7297600  49.1650879  80.8516246  62.7525588
  48.9240254  81.6705087  64.7237180  49.7661259  81.6821130  65.4156944
  48.8394256  83.0349081  64.0328068  47.9952520  83.0418735  63.3432981
  48.7021782  83.8143774  64.7822674  49.7605566  83.2207995  63.4804832
  47.6653958  81.4002619  65.5470904  47.6452414  81.5852061  66.7673323
  46.6266818  80.9310692  64.8673225  46.7060457  80.8181855  63.8667937
  45.3688799  80.5727081  65.5041441  44.9616332  81.4128889  66.0665901
  44.3784109  80.1938128  64.4088672  44.8042273  80.5544061  63.4725167
  44.3396852  79.1046004  64.3941451  42.9985508  80.7380479  64.5694882
  42.5529863  80.3343070  65.4786452  43.0431658  81.8249129  64.6390294
  42.1486996  80.3404257  63.3674173  42.7503045  80.4538365  62.4655811
  41.8570157  79.2962340  63.4800391  40.9030641  81.2051670  63.2573236
  40.3282954  81.0708554  64.1736761  41.2292849  82.2425041  63.1824174
  40.0468563  80.8652208  62.0772770  39.7441133  79.9041668  62.1467137
  39.2397094  81.4721383  62.0609958  40.5791307  80.9900218  61.2280375
  45.5619886  79.3901247  66.4586416  45.1896368  79.4514251  67.6411311
  46.1676227  78.3177427  65.9456844  46.4866490  78.3270142  64.9874383
  46.2832095  77.0735046  66.7020026  45.3361500  76.8040270  67.1695058
  46.7465784  75.8977418  65.8108403  47.7038304  76.1562930  65.3581604
  46.9012362  74.6191102  66.6332686  45.9442145  74.3596500  67.0859172
  47.2279151  73.8064479  65.9844532  47.6420518  74.7779047  67.4169000
  45.7585756  75.6749203  64.6529944  45.7011848  76.5776609  64.0448269
  46.1014632  74.8436312  64.0369700  44.7720120  75.4453626  65.0556062
  47.1938391  77.2395987  67.9153317  46.8804027  76.7346885  68.9999871
  48.2954793  77.9650250  67.7252199  48.4771403  78.3449475  66.8072016
  49.2960214  78.1834556  68.7806769  49.3038667  77.3332267  69.4626947
  50.6979574  78.3374555  68.1720483  50.5484061  79.1794763  67.4962269
  51.3623700  78.6364818  68.9827512  51.3266082  77.1674395  67.4004430
  50.5988563  76.7867733  66.6838041  52.5854251  77.6215335  66.6566018
  53.3138745  78.0019254  67.3726760  53.0139067  76.7768437  66.1171544
  52.3259567  78.4095750  65.9496597  51.6424847  75.9936513  68.3149441
  50.7241216  75.6402938  68.7838227  52.0856403  75.1867154  67.7313613
  52.3443606  76.3116500  69.0858825  48.9630360  79.4052578  69.6442070
  49.6407757  79.6830925  70.6352765  47.9158606  80.1349719  69.2603867
  47.3565665  79.8312577  68.4761373  47.5403000  81.3778419  69.9423115
  46.7293548  81.8493098  69.3871673  47.1979241  81.1344547  70.9481150
  48.7049331  82.3500749  70.0379554  48.9126967  82.9890448  71.0794125
  49.4603195  82.4578953  68.9478434  49.1990606  81.9600861  68.1087790
  50.7055465  83.2267257  68.9391371  50.7183560  83.9252845  69.7757677
  51.9118003  82.2803395  69.0702357  51.9759195  81.6809485  68.1620957
  52.8122917  82.8864904  69.1692128  51.7929878  81.4233492  70.1947428
  52.5615106  80.8500547  70.2427634  50.8705625  84.0948428  67.6968488
  50.9721406  83.5855236  66.5748720  50.9198592  85.4108377  67.8983539
  50.7129737  85.7851694  68.8133257  51.1836642  86.3501107  66.8080773
  50.4737521  86.1830833  65.9979996  51.0391184  87.7967598  67.2958211
  51.6916780  87.8492991  68.1673169  51.4273968  88.4472265  66.5120909
  49.6264612  88.2536832  67.6864291  49.2219161  87.5527743  68.4166147
  49.6500434  89.6489158  68.2839698  50.0540635  90.3505095  67.5541528
  48.6364077  89.9473092  68.5515604  50.2766177  89.6522093  69.1758746
  48.7114549  88.2214023  66.4785652  48.6613498  87.2053558  66.0871082
  47.7130094  88.5477204  66.7696397  49.1010335  88.8878820  65.7090638
  52.5639075  86.1377340  66.1683582  52.7755012  86.5150587  65.0088427
  53.4871580  85.5297546  66.9155533  53.2842774  85.3151965  67.8814227
  54.8380558  85.2398863  66.4046400  55.3149576  86.1652005  66.0814412
  55.7043357  84.5969367  67.4956729  55.1688624  83.7188341  67.8566487
  56.6367208  84.2852163  67.0249411  56.0116460  85.5215305  68.6676728
  56.7845764  86.2171418  68.3408637  55.1009132  86.0738048  68.8993150
  56.4860362  84.7843903  69.9086979  57.7100431  84.7986296  70.1531164
  55.6417043  84.1939925  70.6324769  54.8006680  84.3592430  65.1468659
  55.6920750  84.4454703  64.2944011  53.7592355  83.5301487  65.0267698
  53.0945288  83.4494035  65.7829076  53.6035761  82.6421152  63.8627305
  54.5428979  82.0962260  63.7745324  52.4746242  81.6373724  64.0985303
  51.5261428  82.1682832  64.1798749  52.4288881  80.9387803  63.2630799
  52.6631941  81.0880465  65.0209086  53.3876850  83.3945118  62.5466623
  53.5234846  82.8221172  61.4556271  53.0526712  84.6797792  62.6538790
  52.8970360  85.0745280  63.5704217  52.8371199  85.5343118  61.4840748
  52.4689417  84.9346395  60.6516463  51.8055648  86.6225615  61.7973185
  52.2768389  87.1783183  62.6079568  51.7219218  87.2628172  60.9191520
  50.4100951  86.1702972  62.2332204  50.5066219  85.5009652  63.0880759
  49.5529350  87.3705519  62.6219509  49.4555650  88.0401555  61.7674049
  48.5647550  87.0278437  62.9287932  50.0250640  87.9026131  63.4478477
  49.7290419  85.3564298  61.1332334  50.3281463  84.4736597  60.9098723
  48.7391119  85.0476176  61.4690533  49.6334929  85.9667875  60.2352174
  54.1295481  86.1875210  60.9727705  54.0885100  86.9775217  60.0298623
  55.2632789  85.8621779  61.5951307  55.2326612  85.2844914  62.4230439
  56.5571892  86.4228890  61.1848209  56.4230987  87.0251368  60.2862573
  57.1532858  87.3129815  62.2886951  56.7048663  87.0039093  63.2328845
  58.2259778  87.1215359  62.3166321  56.9082514  88.8048597  62.0734266
  57.8000045  89.3547386  62.3742761  56.7383090  88.9453038  61.0059556
  55.7135130  89.3203213  62.8462004  55.7884798  89.3551146  64.0956256
  54.7101188  89.7132920  62.2117627  57.5840838  85.3734293  60.7319648
  58.6525007  85.2536388  61.3388592  57.2791866  84.6346955  59.6424952
  56.0760810  84.6842809  58.7885560  55.8002430  85.7235237  58.6097037
  55.2543510  84.1717141  59.2886901  56.5119919  83.9810936  57.5385727
  56.9843454  84.6830607  56.8513876  55.6589476  83.5118884  57.0484061
  57.4820569  82.9528394  58.0199418  58.1643940  82.7400202  57.1970062
  57.0404563  82.0217514  58.3751372  58.2390144  83.6395289  59.1589584
  58.5125659  82.9880915  59.9889567  59.4928983  84.3054914  58.6016792
  59.4119345  85.4297614  58.0892439  60.6273270  83.6122644  58.6951935
  60.6474653  82.7646300  59.2440192  61.8900040  84.1064365  58.1306533
  61.8079395  85.1429856  57.8036507  63.0863186  83.9914511  59.1325578
  63.9959469  84.3267414  58.6343048  62.8400990  84.8477390  60.3710786
  61.9308222  84.5127217  60.8701577  63.6847575  84.7520798  61.0533557
  62.7285606  85.8910396  60.0758081  63.3588582  82.5484191  59.5257013
  63.6023389  81.9685377  58.6354448  64.1966475  82.5130525  60.2220905
  62.4732700  82.1275616  60.0018456  62.2365276  83.4369770  56.7973313
  63.0124775  83.9796351  56.0072965  61.6344256  82.2738583  56.5483692
  60.9803693  81.9088806  57.2259391  61.9154353  81.4753486  55.3562846
  61.8952429  82.1154157  54.4742384  63.3006495  80.8151024  55.4526105
  64.0541721  81.5400288  55.7604817  63.2624427  80.0016079  56.1770876
  63.7797287  80.2199002  54.1651345  64.0604760  80.9814488  53.0505272
  64.4522064  80.1904073  52.0663516  64.7259094  80.6047415  51.0960357
  64.4296519  78.9435873  52.5007904  64.6772958  78.1237465  51.9654087
  64.0121638  78.9335471  53.8096731  63.9274553  77.9892535  54.3474791
  60.8269984  80.4176531  55.1844283  60.0642322  80.1513207  56.1193228
  60.7533622  79.8403569  53.9860311  61.4106383  80.1200425  53.2719838
  59.7455793  78.8319768  53.6461958  59.5036371  78.2307878  54.5226289
  58.4643050  79.5261376  53.1578784  58.1385039  80.2025014  53.9481219
  58.7688341  80.1060585  52.2866415  57.3165985  78.6023446  52.7760858
  56.7771590  77.7104258  53.7000338  57.1961660  77.6755848  54.7056772
  55.7174634  76.8698856  53.3560974  55.3108935  76.1721611  54.0882063
  55.1804802  76.9259463  52.0794787  54.1332051  76.0919091  51.7549702
  53.8654229  75.5255719  52.4824002  55.6925065  77.8083756  51.1412316
  55.2769538  77.8538164  50.1345780  56.7556123  78.6474924  51.4985972
  57.1605497  79.3531499  50.7732192  60.2885999  77.9087234  52.5624547
  60.9280266  78.3745944  51.6171808  60.0558808  76.6040334  52.7165581
  59.6842185  76.2699894  53.5942717  60.3332944  75.6225624  51.6589437
  60.4677660  76.1434238  50.7109353  61.6034745  74.8142283  51.9590395
  61.4265728  74.2997004  52.9035320  61.6993819  74.0805795  51.1586263
  62.9006775  75.6371511  52.0585113  62.6781969  76.5020346  52.6834750
  63.6441214  75.0129334  52.5542356  63.4478787  76.1088226  50.7136441
  62.8960430  75.7361357  49.6547863  64.4511716  76.8599615  50.7213066
  59.1491048  74.6742146  51.5457773  58.5095259  74.3705416  52.5503537
  58.8673693  74.2022227  50.3311108  59.4051326  74.5104701  49.5336814
  57.7501193  73.2797335  50.1018951  57.6314045  72.6275673  50.9671612
  56.4398158  74.0488153  49.8839296  55.6512328  73.3108952  49.7365870
  56.2411051  74.6154500  50.7936214  56.4760351  75.0023496  48.6868993
  57.1078783  75.8459693  48.9647133  56.9362885  74.4610731  47.8602883
  55.1104274  75.5120409  48.2599409  54.9688968  75.8324365  47.0605970
  54.1882227  75.5925609  49.1003699  58.0201574  72.3663753  48.9060083
  58.8196961  72.7004736  48.0283814  57.3595348  71.2121555  48.8795617
  56.8676787  70.8822433  49.6976906  57.3943744  70.3521956  47.6983474
  57.5426553  70.9613934  46.8067253  58.5403840  69.3367619  47.7944593
  59.4363079  69.8944523  48.0672251  58.2849766  68.6452484  48.5973765
  58.8023003  68.5477606  46.5041299  58.0691310  67.7451628  46.4241276
  58.7002640  69.2187238  45.6511943  60.2092960  67.9523068  46.5177969
  60.9233915  68.7717159  46.5998664  60.2957365  67.3068087  47.3918447
  60.5055484  67.1441921  45.2578270  61.4079145  66.5646320  45.4526248
  59.6651825  66.4669258  45.1055289  60.7027522  67.9746857  44.0339079
  61.4816815  68.6020268  44.1746634  60.8934901  67.3726537  43.2456970
  59.8665579  68.5114769  43.8529839  56.0516196  69.6502061  47.5065005
  55.5662148  68.9658598  48.4140810  55.4611937  69.8471709  46.3300214
  55.8638507  70.5137696  45.6868940  54.2300000  69.1645279  45.9393634
  53.6750726  68.8672401  46.8291807  53.3448946  70.0904408  45.0965166
  53.2015073  71.0270157  45.6353737  53.8579907  70.2882204  44.1553920
  51.9829687  69.4934220  44.7904259  51.7821113  68.2817369  44.8574609
  51.0307621  70.3536309  44.4576060  50.1030727  70.0170891  44.2425900
  51.2373800  71.3415781  44.4205908  54.5980521  67.9089093  45.1555314
  55.0208534  67.9947609  44.0088904  54.4411523  66.7437213  45.7829303
  54.1407588  66.7261037  46.7470634  54.8716307  65.4843407  45.1653595
  55.7902438  65.6405076  44.5997968  55.1360097  64.4327680  46.2481174
  54.3323035  64.4657680  46.9836897  55.2321561  63.4183559  45.8610464
  56.4070254  64.7324718  46.9872775  56.5525180  65.5370255  48.0858513
  55.6466983  65.9961094  48.4818720  57.8752763  65.5901637  48.4649473
  58.2368682  66.0922576  49.2632283  58.6194972  64.8306344  47.5971480
  59.9953765  64.5689436  47.5769473  60.6229507  65.0218725  48.3444789
  60.4696223  63.7506778  46.5818158  61.5358867  63.5308453  46.5283937
  59.6057255  63.1843476  45.6214374  59.9916326  62.5316882  44.8383596
  58.2362449  63.4406103  45.6435335  57.6093483  62.9732530  44.8841400
  57.7252057  64.2747046  46.6483452  53.9476784  64.9728385  44.0477005
  54.3164649  64.0701511  43.2855266  52.7698705  65.5803808  43.9338546
  52.4982542  66.2707100  44.6192519  51.8145685  65.2419045  42.8693769
  51.6326923  64.1671928  42.8655036  50.4847039  65.9615075  43.0922597
  50.6305967  67.0373310  42.9952112  49.7588266  65.6255496  42.3517636
  49.7079923  65.7032000  44.7113289  48.6439493  66.4663931  44.4784191
  52.3334205  65.5749486  41.4685388  51.8739704  64.9978764  40.4842973
  53.2892727  66.4989643  41.3843755  53.6058998  66.9711127  42.2191944
  53.8046892  66.9570201  40.0872403  53.0331165  66.8527257  39.3244184
  54.2207397  68.4406775  40.1681140  54.4361876  68.7562165  39.1472729
  53.3523074  68.9842309  40.5402365  55.4221386  68.7366203  41.0544929
  55.3391284  68.0972224  41.9333446  56.3184566  68.4693976  40.4947561
  55.5136945  70.2036790  41.4963620  56.5597148  70.5792289  42.0595038
  54.5505402  70.9792496  41.2904929  54.9372051  66.0892020  39.5131100
  55.3699366  66.2957337  38.3741324  55.4001139  65.1163366  40.2966739
  54.9764262  64.9543535  41.1990870  56.5884094  64.3319954  39.9342161
  57.2940425  64.9555202  39.3852188  57.2767587  63.8098305  41.1962688
  56.5231100  63.2891189  41.7870075  58.0431052  63.1019329  40.8805249
  57.9154864  64.9064927  42.0408332  57.1511951  65.6391942  42.2998856
  58.2943384  64.4403593  42.9503880  59.0591342  65.6018470  41.3125653
  60.0214732  64.9083045  40.9188147  58.9908778  66.8363401  41.1198461
  56.3098454  63.1856057  38.9627684  55.6473240  62.2043084  39.3208256
  56.8386805  63.3085319  37.7405607  57.3188645  64.1611340  37.4903762
  56.6711913  62.2779249  36.7120017  55.6084155  62.0974402  36.5506572
  57.3047043  62.7097290  35.3778519  56.8292984  63.6450866  35.0825645
  58.3641492  62.8845595  35.5652304  57.1477511  61.6770725  34.2498203
  57.8325931  60.8540923  34.4542605  56.1218604  61.3094381  34.2720781
  57.4412222  62.2207330  32.8528801  56.8747361  61.7441553  31.8646204
  58.3226869  63.2122102  32.7656404  58.5492232  63.6044603  31.8629098
  58.7617243  63.5686046  33.6024980  57.2376571  60.9307607  37.1587713
  56.6576807  59.8853550  36.8503944  58.3601772  60.9579455  37.8799464
  58.8344087  61.8344859  38.0439001  59.0466909  59.7135141  38.2546988
  58.5822578  58.8724409  37.7399203  60.5386891  59.7647883  37.8682464
  60.9528432  60.6519493  38.3473298  61.0523509  58.8783158  38.2402923
  60.7298288  59.8666152  36.3586458  61.2279544  61.0293177  35.7687673
  61.5004662  61.8715062  36.4048139  61.3803587  61.1235951  34.3720054
  61.7837234  62.0294544  33.9194374  61.0183812  60.0480204  33.5699815
  61.1553578  60.1198212  32.1957537  61.5112175  60.9601202  31.8976582
  60.5100327  58.8941926  34.1374831  60.2227566  58.0533206  33.5062087
  60.3653960  58.8082707  35.5208716  59.9607279  57.9019204  35.9712858
  58.8043015  59.2655037  39.7045798  59.5180738  58.4070806  40.2301584
  57.7741765  59.8418716  40.3303135  57.3594097  60.6704569  39.9284253
  57.2422437  59.3456953  41.6072734  57.7709550  58.4340241  41.8855164
  57.4142457  60.3771703  42.7349329  56.9989736  61.3244074  42.3908541
  56.8511634  60.0270754  43.6000755  58.7803760  60.5621520  43.1003844
  58.8380434  61.2120008  43.8046364  55.7559542  58.9832333  41.4821268
  55.3353581  57.9042618  41.9102547  54.9664907  59.8993647  40.9209731
  55.3729386  60.7608450  40.5851887  53.5120933  59.7062642  40.7685215
  53.2038620  60.2123054  39.8536363  53.3273842  58.6364400  40.6712690
  52.6944139  60.2460286  41.9323668  51.4687762  60.3710942  41.8407372
  53.3850215  60.5836731  43.0227902  54.3933929  60.5350609  42.9924026
  52.7497324  61.0220262  44.2633854  52.6347826  62.1057633  44.2433949
  51.7686742  60.5546168  44.3479586  53.5864250  60.6361765  45.4699008
  54.7273583  60.1953313  45.3261765  53.0162835  60.8230315  46.6608927
  52.1181940  61.2843060  46.6884690  53.6314366  60.4202595  47.9321450
  54.1282763  59.4584994  47.8046025  54.6657696  61.4468172  48.4011262
  54.5044460  62.4074212  47.9119290  54.6163178  61.5773489  49.4821517
  56.3776003  60.9740075  48.0292233  56.9393287  62.0558793  48.5611189
  52.5329802  60.2704203  48.9869662  51.4419470  60.8237182  48.8031155
  52.7865530  59.5427109  50.0824450  52.0377207  59.4479521  50.7535414
  54.0669018  58.8665739  50.3632913  54.8917323  59.5365407  50.1206016
  54.1746128  58.4713366  51.8460306  53.7398519  57.4737945  51.9092140
  55.2376662  58.4193628  52.0812247  53.4838119  59.3858176  52.8342676
  53.8194980  60.7383118  52.9247732  54.5924130  61.1327537  52.2651388
  53.1846839  61.5817220  53.8391360  53.4536277  62.6364849  53.8961124
  52.2108931  61.0703296  54.6769877  51.5803034  61.9047014  55.5812777
  51.8959775  62.8103429  55.5392913  51.8625854  59.7264322  54.6130864
  51.0939370  59.3224676  55.2719436  52.5074491  58.8892223  53.6931057
  52.2468264  57.8320518  53.6424480  54.2200279  57.5904139  49.5576908
  55.3431592  57.1632154  49.2419641  53.0871337  56.9559184  49.2648287
  52.1934152  57.3601032  49.5056632  53.1098495  55.6070636  48.7208379
  53.8646907  55.4875167  47.9436492  53.3825114  54.5550344  49.8497715
  54.2358122  54.8947749  50.4367589  52.1675094  54.3804289  50.7686339
  51.3138758  54.0402342  50.1823944  52.3962192  53.6430524  51.5380927
  51.9274796  55.3337012  51.2395460  53.7623648  53.2989323  49.2705720
  53.9272207  52.6613087  49.9690410  51.8544861  55.2644601  47.9178295
  50.9459194  56.0926159  47.7531914  51.8369165  54.0401116  47.4132001
  52.6288330  53.4413481  47.5988073  50.7415526  53.5084465  46.6133405
  50.3647858  54.2432604  45.9018671  51.2508455  52.2851484  45.8330358
  51.6505647  51.5635810  46.5455422  50.1396747  51.6360831  45.0246722
  49.7397466  52.3569529  44.3115775  50.5364162  50.7752273  44.4865064
  49.3447334  51.3098635  45.6953060  52.3110602  52.6939927  44.9568593
  52.6326757  51.9335047  44.4671433  49.5659727  53.0754921  47.5012884
  49.7676654  52.3740774  48.5005849  48.3510873  53.4951509  47.1349350
  48.2612040  54.2463132  46.4657746  47.1329298  52.9935430  47.7874622
  47.4149765  52.3240167  48.6000405  46.2702873  54.1412205  48.3685975
  45.5805078  53.6951599  49.0850704  46.9819298  54.7757670  48.8968169
  45.4903752  54.9785515  47.3690931  44.2269791  54.5760800  46.9203236
  43.8112441  53.6403171  47.2939700  43.4980883  55.3522293  46.0070436
  42.5222563  55.0157511  45.6568491  44.0271311  56.5490277  45.5433894
  43.3084890  57.3183238  44.6471092  42.4612890  56.9309102  44.4152418
  45.2731988  56.9789322  45.9836057  45.6884848  57.9197626  45.6223907
  45.9995081  56.1945196  46.8993462  46.9738294  56.5316487  47.2531006
  46.3172040  52.0801811  46.8672033  46.4251815  52.1571477  45.6420706
  45.5108591  51.2120985  47.4720787  45.4882937  51.1701014  48.4809525
  44.6708899  50.2819338  46.7211329  44.9244194  50.3289360  45.6620707
  44.8856596  48.8418086  47.2142173  44.9316731  48.8017757  48.3025093
  44.0578903  48.2256420  46.8631663  46.1509744  48.1961440  46.7045255
  47.3990029  48.6729859  47.0857755  47.4577564  49.5277706  47.7595641
  48.5720382  48.0700569  46.6158852  49.5458270  48.4630422  46.9081157
  48.4921863  46.9703265  45.7767453  49.4020900  46.4930011  45.4129655
  47.2481389  46.4754998  45.3986098  47.1802830  45.6109953  44.7382102
  46.0849356  47.0889850  45.8671224  45.1088792  46.7002998  45.5767130
  43.1943387  50.6602537  46.8628071  42.6507537  50.6299520  47.9737757
  42.5355731  51.0211786  45.7450370  43.1113207  51.3107878  44.4181537
  43.1783970  50.3934805  43.8332194  44.1056006  51.7431710  44.5301862
  42.1229277  52.2876641  43.8478274  42.1728595  52.3004695  42.7590474
  42.3039400  53.2918505  44.2311621  40.7943915  51.7566490  44.3329248
  40.4906098  50.9265918  43.6950997  40.0010277  52.5036499  44.3586779
  41.0807615  51.2448913  45.7572777  40.8586350  51.9775111  46.5331813
  40.2907517  49.9526842  46.0315028  40.8537576  48.8608618  45.9523507
  38.9890344  50.0748488  46.3603949  38.1735509  51.2930743  46.4910671
  38.4645060  52.0179169  45.7307721  38.3133028  51.7289863  47.4802835
  36.7889610  50.7743218  46.2883094  36.5556626  50.7640349  45.2236193
  36.0789469  51.4167652  46.8091241  36.7802836  49.3887219  46.8646129
  36.0799672  48.7536227  46.3221142  36.5217990  49.3919305  47.9235157
  38.2182721  48.8642272  46.6756120  38.6231125  48.4540226  47.6007794
  38.2683626  47.7997947  45.5833042  38.1062390  48.1078539  44.3965196
  38.5119605  46.5587673  45.9973887  38.7618427  46.3975410  46.9626163
  38.4314509  45.4090501  45.1022588  38.0163621  44.5853012  45.6829808
  37.7375093  45.6771970  44.3056147  39.7415670  44.9663772  44.4860953
  39.8202997  43.8745653  43.9240732  40.7765189  45.7974059  44.6067017
  40.6780891  46.6562008  45.1290831  42.0242202  45.5728035  43.8644880
  41.8618588  44.9889103  42.9585041  42.7189096  46.9231073  43.4959719
  42.9036445  47.4811386  44.4138905  44.0524311  46.6827979  42.7646295
  43.8684369  46.1251817  41.8463099  44.5118514  47.6408724  42.5214690
  44.7223458  46.1119818  43.4076554  41.7711917  47.8073474  42.6665431
  41.0026674  48.1669559  43.3507602  42.3636739  48.6503436  42.3109848
  41.1062092  47.1095570  41.4717202  40.5131372  46.2666725  41.8265598
  40.4585228  47.8157852  40.9522559  41.8741445  46.7500580  40.7867853
  42.9900617  44.6150941  44.5637253  43.5712563  43.7399829  43.9194977
  43.1495381  44.7679940  45.8782271  42.6463064  45.4913058  46.3718639
  44.1348025  43.9742161  46.6220763  45.1105121  44.0675770  46.1452391
  44.2514450  44.4545596  48.0776984  44.4753694  45.5137335  47.9507814
  43.2721433  44.3440239  48.5433702  45.3204306  43.8090270  48.9740144
  45.0907916  42.7468113  49.0580650  46.7358171  43.9821665  48.4185813
  46.9663644  45.0441960  48.3346754  47.4509448  43.5076406  49.0905324
  46.7997290  43.5181628  47.4343474  45.2339589  44.3668033  50.3863611
  44.2482713  44.1558969  50.8011358  45.9971121  43.9001563  51.0092086
  45.3944341  45.4446575  50.3623414  43.8406613  42.4736883  46.5640834
  44.7608137  41.6668899  46.4146982  42.5645104  42.1014497  46.6696643
  41.8403886  42.7743576  46.8768884  42.1939993  40.6809571  46.5906237
  42.8896321  40.0722306  47.1682450  40.7519112  40.3888002  47.0837040
  40.4728801  39.3790139  46.7827493  40.6695786  40.5079473  48.6103193
  40.9480419  41.5176687  48.9120154  39.6508096  40.2995978  48.9371208
  41.3512810  39.7913869  49.0684935  39.8167622  41.2808896  46.4527454
  38.9299976  41.0891540  46.7665708  42.3752714  40.1215898  45.1850133
  42.8085673  38.9829522  45.0234799  42.0711813  40.9293585  44.1733231
  41.7337149  41.8647107  44.3503312  42.1053873  40.4557414  42.7932952
  41.8020368  39.4094690  42.7559887  41.1513010  41.2735950  41.9171195
  41.3615407  42.3256880  42.1094705  41.3890498  41.0399324  40.8793443
  39.6710936  40.9947396  42.1754829  39.4969432  41.0226555  43.2511191
  39.0775281  41.7703895  41.6915931  39.2253714  39.6401539  41.6458810
  39.2129547  39.4040613  40.4371262  38.8533594  38.7468738  42.5515204
  38.5478657  37.8304463  42.2566719  38.8770710  38.9866774  43.5323534
  43.5092825  40.4351696  42.1893457  43.8280826  39.5416859  41.4080759
  44.3362932  41.4107711  42.5623013  44.0410504  42.0696332  43.2685816
  45.6463940  41.6069935  41.9324698  45.8505358  40.7947245  41.2348708
  45.6655929  42.9326308  41.1605320  45.4411060  43.7230891  41.8766889
  46.6799527  43.0622569  40.7832108  44.6878968  43.0028432  40.0104270
  43.3927312  43.4870514  40.1964960  43.0905787  43.8156773  41.1908844
  42.4874006  43.5547114  39.1324416  41.4774762  43.9348706  39.2861731
  42.8848652  43.1302720  37.8719492  42.0002145  43.1942703  36.8120105
  41.1425032  43.5469742  37.0600649  44.1671445  42.6431814  37.6683693
  44.4762837  42.3045877  36.6794873  45.0588001  42.5879160  38.7312527
  46.0709278  42.2148272  38.5747208  46.8376225  41.5830724  42.8910335
  47.9829394  41.5601469  42.4415532  46.5752117  41.5871300  44.1974030
  45.6206071  41.4977147  44.5149472  47.6354012  41.7184154  45.2060636
  48.0710340  42.7098503  45.0820468  47.1551296  41.6526822  46.1823411
  48.7393553  40.6808839  45.1281496  49.9087437  40.9886714  45.3651279
  48.3769754  39.4508853  44.7731762  47.4085015  39.2194624  44.6040580
  49.3583985  38.3617181  44.7948458  49.9441175  38.4236749  45.7120120
  48.6805228  36.9933442  44.7398801  49.4617842  36.2597811  44.9389152
  47.9556019  36.9812263  45.5537860  47.9861859  36.6498251  43.4421005
  47.7538444  37.5745185  42.9138387  48.6588049  36.0441829  42.8347429
  46.6870328  35.8681129  43.7025368  45.9073271  36.5813427  43.9698591
  46.4082204  35.3534809  42.7830168  46.8063349  34.8794594  44.7757094
  47.6775722  34.3718469  44.8337986  45.8470591  34.5997767  45.6583376
  44.6830973  35.2382993  45.6244574  44.5188276  35.9455684  44.9223990
  43.9675032  35.0137054  46.3009057  46.0572451  33.6843702  46.5948939
  46.9439062  33.2024309  46.6357189  45.3296663  33.4734702  47.2629127
  50.4688543  38.4816367  43.7451994  51.5068538  37.8334326  43.8700565
  50.2655745  39.3089924  42.7225714  49.3702047  39.7474559  42.5608246
  51.3067264  39.4488963  41.6929391  52.0542376  38.6585228  41.7610270
  50.7424604  39.4773861  40.2390057  51.5757461  39.5544224  39.5405792
  49.9410101  38.2068141  39.9390234  49.1072220  38.1293231  40.6368010
  49.5580129  38.2504376  38.9194595  50.5867185  37.3353263  40.0470576
  49.9097612  40.7321802  39.9927968  50.5305696  41.6157453  40.1411601
  49.5306462  40.7225592  38.9708971  49.0724158  40.7558260  40.6902166
  52.2638272  40.6247127  41.9400036  53.2024309  40.8259967  41.1743511
  52.0336551  41.3863757  43.0100560  51.2272038  41.2111480  43.5923196
  52.8721962  42.5597571  43.3127323  52.7276069  43.3148219  42.5400290
  52.5111483  43.1733810  44.6713014  51.8680090  42.4063067  45.1026576
  53.4447045  43.2214535  45.2318920  51.8055319  44.5272600  44.7404243
  50.7981812  44.4398174  44.3333628  51.7276335  44.9704112  46.2023350
  52.7346892  45.0585285  46.6099782  51.2256535  45.9360022  46.2635801
  51.1669677  44.2329455  46.7767030  52.4884310  45.6027193  43.9079218
  52.5085069  45.2954541  42.8623194  51.9378219  46.5388631  44.0004732
  53.5087756  45.7452164  44.2638577  54.3786158  42.2957253  43.2582424
  55.1146927  43.0567394  42.6293312  54.8367731  41.2335691  43.9182038
  54.2228698  40.7079623  44.5239757  56.2694752  40.9105869  43.9289795
  56.7985579  41.5951614  43.2660100  56.8647487  41.0371117  45.3438869
  57.8875047  40.6646123  45.2863223  56.8788433  42.1006318  45.5822696
  56.1160967  40.2886979  46.4238138  55.1296175  40.7432033  46.5153805
  56.0101772  39.2550472  46.0944974  56.8185206  40.3212669  47.7782472
  57.8204206  39.8987259  47.7023891  56.8829258  41.3424724  48.1538678
  56.0455373  39.5238821  48.7230415  56.2319585  38.5314602  48.7441434
  55.1089498  40.0114123  49.5330429  54.8542371  41.3166586  49.5672556
  55.3756989  41.9455662  48.9734097  54.1405635  41.6727279  50.1869202
  54.4391376  39.1924138  50.3277486  54.6422062  38.2031190  50.3151398
  53.7279087  39.5603665  50.9432670  56.6042804  39.5635784  43.2731729
  57.6948550  39.0128652  43.4786363  55.6700085  39.0533377  42.4704216
  54.7666162  39.5010295  42.4108086  55.8922724  37.8312164  41.6932781
  56.3639616  37.0738744  42.3194104  54.5577913  37.2790525  41.1776645
  53.9275692  37.1095431  42.0506971  54.1138922  38.0558586  40.5550684
  54.6713717  35.9875850  40.3746751  55.2581510  36.1877704  39.4781726
  55.1766491  35.2335015  40.9781275  53.3159468  35.4460465  39.9565011
  53.0225626  35.3358188  38.7667542  52.4788499  35.1132790  40.9341311
  51.5644300  34.7480134  40.7093671  52.7611261  35.2272492  41.8971639
  56.8379022  38.1140605  40.5175615  56.5581367  38.9866978  39.6923582
  57.9675135  37.3859751  40.4409856  58.4548850  36.3552752  41.3762523
  57.9291802  35.4176173  41.1958855  58.2793272  36.6780651  42.4024516
  59.9162409  36.2695650  41.0454625  60.3002483  35.2785269  41.2872906
  60.4739559  37.0210763  41.6042882  59.9839197  36.5372258  39.5792039
  59.7419726  35.6249635  39.0339169  60.9527910  36.9114338  39.2485131
  58.9014605  37.5958142  39.3309407  59.2706831  38.6192774  39.3964855
  58.2616239  37.3737010  37.9652468  57.3837432  36.5200877  37.8242548
  58.7040608  38.1492962  36.9812963  59.3473131  38.8968441  37.1992364
  58.2864145  37.9782068  35.5925148  57.5411431  37.1872809  35.5082174
  57.6937192  39.2827216  34.9997759  58.4235967  40.0844352  35.1121737
  57.3612256  39.1018430  33.5223593  56.6310048  38.3005488  33.4091956
  56.9467459  40.0290011  33.1265248  58.2679590  38.8465207  32.9739554
  56.4465419  39.7020639  35.7629441  56.7007047  39.8744325  36.8087895
  56.0467662  40.6194014  35.3307741  55.6971678  38.9132792  35.6969285
  59.5249065  37.5577377  34.8095401  60.3231126  38.4055732  34.4073512
  59.6701509  36.2450930  34.6124565  58.9597724  35.6291990  34.9814232
  60.8652414  35.6440881  34.0018684  60.8080387  34.5588697  34.0862964
  60.9798824  36.0168367  32.5102502  59.9932059  35.8917754  32.0642362
  61.2744794  37.0646205  32.4514149  61.9924893  35.1604912  31.7533271
  62.6314583  34.2777128  32.3677723  62.1459334  35.3822333  30.5313241
  62.1171222  36.0189624  34.8088093  62.3328948  35.4677234  35.8899230
  62.9109651  36.9688159  34.3093769  62.7118634  37.3551914  33.3976907
  64.1497296  37.3790315  34.9842953  64.3343014  36.7340802  35.8434054
  65.3416719  37.2708977  34.0252360  65.0496989  37.7292212  33.0803600
  66.1691157  37.8315828  34.4600566  65.7784997  35.8302381  33.7777012
  66.4639381  35.5310713  34.5706540  64.8974854  35.1887692  33.7985196
  66.4684080  35.6956912  32.4377099  67.1449983  36.5382100  32.2945786
  67.0371394  34.7660598  32.4169855  65.5039308  35.6786636  31.3413492
  64.5404991  35.5066692  31.5909820  65.8020465  35.8759103  30.0604301
  67.0527889  36.1107214  29.6808235  67.7895964  36.1406024  30.3709843
  67.2614647  36.2583448  28.7037046  64.8395854  35.8318951  29.1527400
  63.8881839  35.6493379  29.4384111  65.0610575  35.9810694  28.1786784
  64.0833658  38.7681242  35.6347039  65.1031097  39.2954048  36.0885007
  62.8787565  39.3398062  35.6848541  62.1109072  38.9003368  35.1976443
  62.6207193  40.5919532  36.4033740  63.5491826  41.1433433  36.5517787
  61.5928501  41.4970564  35.6684413  60.6421031  40.9685430  35.5987700
  61.3908866  42.8159459  36.4325919  62.3411767  43.3452796  36.5022703
  60.6679901  43.4363538  35.9028603  61.0201185  42.6024984  37.4351239
  62.0277308  41.7769930  34.2275231  62.9343783  42.3804349  34.2716697
  62.2529313  40.8173179  33.7623265  60.9742973  42.5043250  33.4048075
  60.7488992  43.4643612  33.8691630  61.3508912  42.6690981  32.3952897
  60.0674509  41.9012447  33.3598218  62.0819879  40.2888103  37.8028978
  61.0871609  39.5713426  37.9554120  62.7560293  40.8396426  38.8095447
  63.6109951  41.3332785  38.5963395  62.3577309  40.7164085  40.2111683
  61.4991396  40.0505629  40.2981728  63.5135871  40.1365011  41.0369800
  64.3941612  40.7350156  40.8035945  63.2923879  40.2162245  42.1013179
  63.7795090  38.6915390  40.6850964  64.5117307  38.3567689  39.5421160
  64.9082073  39.1563301  38.9163303  64.7378212  37.0250181  39.1978255
  65.3162872  36.7754512  38.3083339  64.2246032  36.0158109  39.9959765
  64.4439978  34.6975256  39.6606216  64.9619819  34.5956524  38.8588025
  63.4881453  36.3181030  41.1298884  63.0853881  35.5244434  41.7591670
  63.2631782  37.6587967  41.4643421  62.6753270  37.9089411  42.3474949
  61.9290608  42.0987973  40.7048250  62.3539135  43.1117906  40.1477678
  61.0776050  42.1432655  41.7260103  60.7617098  41.2922565  42.1688346
  60.4591001  43.4060600  42.1297228  60.8538871  44.2264897  41.5304419
  58.9379072  43.3305186  41.9179313  58.5554506  42.4757966  42.4758530
  58.4253485  44.2354890  42.2441401  58.5544564  43.1133126  40.4837081
  58.3155718  41.8292268  39.9953612  58.3855298  40.9777900  40.6723111
  57.9890844  41.6284958  38.6518505  57.7961126  40.6226075  38.2789545
  57.9106793  42.7159703  37.7900966  57.6519334  42.5634895  36.7422893
  58.1622183  43.9980853  38.2643730  58.1075882  44.8514600  37.5884533
  58.4841724  44.1912969  39.6042912  58.6850390  45.1956333  39.9771999
  60.8149968  43.8703133  43.5356202  60.5517572  43.1765064  44.5197456
  61.4411735  45.0458180  43.6063549  61.7450832  45.4876653  42.7504874
  61.7482133  45.7040928  44.8712747  61.5910917  45.0250756  45.7093365
  63.2117675  46.1833814  44.8938706  63.3821620  46.8713461  44.0657581
  63.4132722  46.6928790  45.8361595  63.8770986  45.3255949  44.7957073
  60.7820341  46.8769442  45.0552104  59.6588761  46.8453559  44.5425280
  61.2186162  47.9109627  45.7707402  62.1601526  47.9133974  46.1362571
  60.3641565  49.0634639  46.0494737  60.9822397  49.9562081  46.1447638
  59.6587591  49.1964141  45.2292066  59.5910637  48.8594136  47.3363502
  59.1708089  47.7457006  47.6575018  59.3842044  49.9420137  48.0776673
  59.7629206  50.8369997  47.8025790  58.7300390  49.8368692  49.3829540
  59.2553747  49.1302198  50.0254244  58.6666362  51.2050608  50.1012108
  59.6560540  51.6609136  50.0644564  57.6464859  52.1421540  49.4371093
  56.6566783  51.6871516  49.4738962  57.6280400  53.0943112  49.9673503
  57.9298641  52.3108555  48.3981977  58.3282989  51.0086686  51.4834289
  58.2894849  51.8590053  51.9272997  57.3387098  49.1777946  49.3423977
  56.9255277  48.5279831  50.3092423  56.6384212  49.3211405  48.2144181
  57.0208244  49.8740619  47.4606641  55.2929209  48.7654115  48.0544826
  54.6454964  49.1236856  48.8548453  54.6975181  49.1979186  46.7136046
  55.4709983  49.0642478  45.9573244  53.8620383  48.5312954  46.4998593
  54.2109695  50.6464718  46.6936482  53.3964125  50.6958388  45.9710413
  53.8252966  50.8609189  47.6903267  55.2792412  51.6775436  46.3281615
  56.4832953  51.3475006  46.2622873  54.8931772  52.8425417  46.1018453
  55.2500624  47.2444531  48.1728236  54.1911743  46.6741449  48.4491654
  56.4005024  46.5971492  47.9565498  57.2184415  47.1196129  47.6770740
  56.4987298  45.1322839  48.0235652  55.5117566  44.6783252  47.9346574
  57.4086657  44.5641591  46.9023160  57.3964356  43.4757962  46.9607710
  56.9239495  45.0036864  45.5275975  56.9363437  46.0919973  45.4682223
  57.5801730  44.5910274  44.7613191  55.9078129  44.6431546  45.3676481
  58.7609769  44.9980946  47.1009292  59.3168018  44.6425541  46.4036130
  56.9872750  44.5985529  49.3846459  57.1455173  43.3814301  49.5549417
  57.2322477  45.4975838  50.3419796  57.1837721  46.4835005  50.1281627
  57.6562677  45.0977248  51.6891046  58.4100620  44.3201398  51.5655939
  58.2832389  46.2691554  52.4281917  57.5380425  47.0523360  52.5675133
  58.6441536  45.9345981  53.4007719  59.1176475  46.6615497  51.8469101
  56.5125032  44.5050450  52.5165993  55.3352053  44.6992554  52.1986419
  56.8749489  43.7787849  53.5763207  57.8573874  43.6298594  53.7572493
  55.8996795  43.1393919  54.4651689  54.8849703  43.3249652  54.1129944
  56.1177263  41.6083112  54.5627267  55.3535222  41.1886449  55.2169228
  56.0281700  40.9486310  53.1863620  56.7924239  41.3674846  52.5317039
  56.1852405  39.8746847  53.2866975  55.0429073  41.1327548  52.7580437
  57.3961193  41.3405197  55.1501346  57.5285843  40.3915493  55.2093679
  55.9296777  43.7271639  55.8809804  55.1152937  43.3524803  56.7278428
  56.8772185  44.6306081  56.1278892  57.5679312  44.8102869  55.4132349
  57.0021986  45.3360602  57.4102321  56.0321936  45.3690206  57.9063199
  58.0024493  44.6190918  58.3334823  57.7513145  43.5603664  58.3977555
  59.0134579  44.7289930  57.9412028  58.0288667  45.1402916  59.7406152
  59.1900104  45.2243664  60.4779690  58.9185244  45.7143540  61.6749964
  59.7105729  45.8561013  62.4102962  57.6211728  45.9545011  61.7414060
  57.1261334  46.3329837  62.5362561  57.0414154  45.6047217  60.5448506
  55.9681230  45.7301768  60.4020023  57.4288727  46.7719596  57.1211527
  58.4822200  47.0057537  56.5176083  56.5856152  47.7211269  57.5310457
  55.7525076  47.4354282  58.0254214  56.7350382  49.1370391  57.1810535
  55.8299596  49.6714378  57.4697574  57.9374560  49.7856008  57.8920276
  58.8621637  49.2715197  57.6298528  57.9887400  50.8201688  57.5527062
  57.8796298  49.8279090  59.3960103  58.4717593  48.9501156  60.2609395
  59.0286640  48.1261383  59.8148248  58.2218291  49.3185019  61.5655978
  58.5367273  48.8241724  62.3881409  57.4678859  50.4648116  61.5648245
  56.9660613  51.2178833  62.6351834  57.1842093  50.8836627  63.6494844
  56.2257915  52.3374744  62.3371002  55.8239268  52.9490793  63.1449023
  55.9724756  52.7157313  61.0018258  55.3815209  53.6024413  60.7724407
  56.4720488  51.9642656  59.9320600  56.2399049  52.2912299  58.9184997
  57.2341404  50.8191709  60.2100591  56.7918761  49.3917394  55.6615173
  57.5397749  50.2527484  55.1877907  55.9964936  48.6401960  54.8996406
  55.5787606  47.7938315  55.2591760  55.7296171  49.0091843  53.5076282
  56.6582247  48.9703171  52.9381753  54.7193939  48.0539367  52.8628585
  55.1357547  47.0466758  52.8758305  53.7996232  48.0738861  53.4474301
  54.4360319  48.4329592  51.5193594  53.8022710  47.8193339  51.1406631
  55.1900561  50.4386888  53.4627755  54.3326540  50.8008504  54.2721460
  55.6966879  51.2320538  52.5192878  56.3623550  50.8476301  51.8641504
  55.3296631  52.6450035  52.3885096  55.1824794  52.8621702  51.3305518
  54.3945918  52.8051122  52.9252650  56.3891466  53.5883179  52.9457121
  56.3712740  54.7972592  52.6627290  57.3268514  53.0177932  53.7070571
  57.3191629  52.0112772  53.7905192  58.3583357  53.7671847  54.4301993
  58.1744214  54.8381487  54.3446966  58.3331073  53.3817101  55.9180188
  58.4217147  52.2971191  55.9805508  59.2198443  53.8437942  56.3519264
  57.1028229  53.8330945  56.6821553  55.8421686  53.2920360  56.4133945
  55.7468895  52.5336847  55.6362685  54.7115476  53.7105143  57.1256523
  53.7289265  53.2940502  56.9040326  54.8514997  54.6646093  58.1219681
  53.7477090  55.0845432  58.8343435  52.9363394  54.6519661  58.5583799
  56.0930213  55.2054675  58.4130649  56.1971356  55.9565767  59.1960691
  57.2098012  54.7852210  57.7002622  58.1913208  55.1991639  57.9312831
  59.7589247  53.4797442  53.8787780  59.9557081  52.5412121  53.1002604
  60.7343688  54.2726182  54.3152325  60.5133090  55.1070289  54.8396280
  62.1403161  54.0076050  53.9898583  62.2756833  54.0077948  52.9082970
  63.0421199  55.0854773  54.5957768  62.8674468  55.0868111  55.6716889
  64.0735006  54.7948757  54.3960155  62.7913196  56.4810691  54.0392845
  62.9069593  56.4425765  52.9561194  61.7688695  56.7679572  54.2850346
  63.9303253  57.7077766  54.7143790  63.2662704  57.9376961  56.3562919
  63.2853584  56.9889773  56.8926382  63.8689345  58.6702208  56.8932315
  62.2386593  58.2944130  56.2865077  62.5568468  52.6075142  54.4693883
  63.2950676  51.9021524  53.7727494  62.0624790  52.1992171  55.6374808
  61.5451520  52.8521959  56.2085243  62.3051463  50.8505643  56.1675046
  63.3716336  50.7038638  56.3383347  61.5637638  50.6648216  57.5015858
  62.0700689  51.3056021  58.2234962  60.5497127  51.0305944  57.3403074
  61.5093713  49.2239567  58.0438760  60.7892941  49.2209500  58.8621551
  61.1485984  48.5813641  57.2407466  62.8548215  48.7024386  58.5477487
  62.9545987  47.4828845  58.7960760  63.8013838  49.5034622  58.7040757
  61.9016561  49.7609759  55.1716217  62.6899779  48.8549855  54.8645480
  60.6731729  49.8612094  54.6676364  60.0677736  50.6049326  54.9846012
  60.1595759  48.9290300  53.6638247  60.1650875  47.9287055  54.0967446
  59.1350228  49.2165785  53.4278032  60.9792759  48.9181167  52.3806038
  61.1337504  47.8762252  51.7348672  61.5009586  50.0809514  52.0012247
  61.2506589  50.9391254  52.4713171  62.3844536  50.1590248  50.8440060
  61.8431217  49.7818038  49.9763866  62.7868321  51.5951183  50.5768283
  63.3378429  51.9839268  51.4331665  63.4185643  51.6369169  49.6895473
  61.8939742  52.1991128  50.4152899  63.6175637  49.2704601  51.0284002
  63.9966398  48.5357336  50.1168502  64.2288913  49.3203045  52.2127747
  63.9403220  49.9898416  52.9117363  65.4105785  48.4872195  52.4901242
  66.1221681  48.5779556  51.6694499  66.1243992  48.8771833  53.8102928
  65.4275815  48.7553055  54.6395636  67.3464863  47.9917559  54.0387739
  68.0440219  48.1134508  53.2100789  67.8352509  48.2793458  54.9696346
  67.0341589  46.9492570  54.1000045  66.5565768  50.3337998  53.7693072
  65.6809159  50.9695968  53.6386082  67.0559688  50.5915757  54.7032552
  67.2432167  50.4863099  52.9366204  65.0504944  47.0027455  52.4822991
  65.7159431  46.2086183  51.8172187  63.9863516  46.6328631  53.1941968
  63.4868056  47.3088636  53.7541757  63.5422332  45.2373760  53.2300243
  64.3021997  44.6250503  53.7154182  62.2315620  45.0987193  54.0087009
  62.3916108  45.5182970  55.0018968  61.4737057  45.6823563  53.4860903
  61.7591861  43.6490843  54.1378532  62.1092869  43.1078961  53.2588506
  62.2244907  43.2310056  55.0304903  60.2565309  43.5180017  54.2446736
  59.6598048  44.1312823  55.1511845  59.6668152  42.7973186  53.4144831
  63.3658125  44.6823051  51.8139039  63.9013783  43.6189917  51.4859039
  62.6438942  45.4246597  50.9781500  62.2776912  46.3100603  51.2976189
  62.2846698  44.9689045  49.6310379  61.8657583  43.9680378  49.7353372
  61.2276353  45.8762916  49.0422563  61.6351205  46.8802349  48.9232874
  60.9191047  45.4923748  48.0698793  60.3657806  45.9111604  49.7086570
  63.4807383  44.8692776  48.6882146  63.5754147  43.9285713  47.8989067
  64.3803303  45.8482674  48.7609546  64.2592686  46.6046416  49.4192413
  65.5596628  45.8615122  47.9008410  65.2397561  45.7867769  46.8615270
  66.0946064  46.7995491  48.0492375  66.4900246  44.7089382  48.2140279
  66.9786267  44.0282185  47.3089849  66.7199968  44.4748757  49.5018572
  66.3709696  45.1151332  50.2006774  67.5955961  43.3842457  49.9351483
  68.4973944  43.3677924  49.3231121  68.0027016  43.5768765  51.4043217
  67.0950247  43.6700034  52.0006013  68.5573975  42.6944528  51.7232901
  68.8710072  44.8231555  51.5989701  69.6808194  44.7514706  50.8729080
  68.2430211  45.6810124  51.3585244  69.4563666  44.9976743  52.9980257
  69.1802593  44.1763732  53.9042174  70.2061150  45.9820747  53.1853416
  66.9741557  42.0058205  49.6629891  67.6708713  41.0818052  49.2289335
  65.6616795  41.8801012  49.8601432  65.1486177  42.6183190  50.3204709
  64.9488131  40.6346919  49.5315475  65.4557643  39.7908887  49.9996244
  63.4930097  40.6780022  50.0387216  63.5434675  40.8877901  51.1071514
  63.0117432  41.5118062  49.5275920  62.6758744  39.3929407  49.8061191
  63.3594084  38.5439214  49.7991544  61.9659135  39.2804316  50.6255087
  61.9159095  39.4476212  48.4758424  62.6280223  39.4699569  47.6509209
  61.2810105  38.5664628  48.3833081  61.0725016  40.6441558  48.4007216
  60.7079975  40.9915659  49.2762456  60.7465473  41.2826493  47.2787956
  61.1810585  40.8610482  46.0939372  61.7694476  40.0420813  46.0374443
  60.9204993  41.3619281  45.2564840  59.9864703  42.3725416  47.3434474
  59.6632687  42.7066285  48.2401228  59.7361012  42.8609078  46.4955604
  65.0128981  40.3117765  48.0321997  65.2822223  39.1689472  47.6540638
  64.7771318  41.3124489  47.1824386  64.5036993  42.2197445  47.5319362
  64.8286161  41.1134704  45.7312973  64.1665023  40.2857102  45.4772942
  64.3574875  42.3594881  44.9895698  65.0161907  43.1949377  45.2267069
  64.3792995  42.1737302  43.9157362  63.3396847  42.6018411  45.2952519
  66.2388717  40.7188376  45.2876599  66.4089621  39.8648402  44.4081949
  67.2404780  41.3478018  45.8997365  67.0415605  42.1064241  46.5361509
  68.6385573  41.0171187  45.6312795  68.8297709  41.1342134  44.5645905
  69.5562745  41.9492151  46.3922501  69.3829611  41.8368252  47.4624982
  70.5937388  41.7040165  46.1649934  69.3540759  42.9791279  46.0981505
  68.9345896  39.5573990  45.9901796  69.6010324  38.8544126  45.2371823
  68.4318877  39.1060331  47.1353458  67.9653193  39.7398976  47.7682984
  68.6455710  37.7194832  47.5702710  69.6842448  37.4383610  47.3964138
  68.3386938  37.5596308  49.0606654  67.3321062  37.9432854  49.2270676
  68.3618424  36.4929097  49.2835339  69.3172439  38.2898601  49.9719957
  70.3335342  37.9804100  49.7280786  69.2180527  39.3642188  49.8170229
  69.0229652  37.9594129  51.4224935  67.9880561  37.6267783  51.5025951
  69.6878363  37.1562480  51.7402543  69.2156783  39.1015567  52.3054562
  70.1689189  39.3950230  52.4645449  68.2354222  39.7811544  52.8949171
  66.9534891  39.4444163  52.7238822  66.7150994  38.6584280  52.1360959
  66.2289145  39.9774540  53.1831883  68.5442750  40.8008937  53.6768119
  69.5128255  41.0506820  53.8168684  67.8103311  41.3257013  54.1306864
  67.8643550  36.6986081  46.7315717  68.2941148  35.5471810  46.5912497
  66.7226132  37.1117570  46.1782620  66.3166811  37.9949262  46.4527261
  65.9881411  36.2757096  45.2188328  65.7361342  35.3232273  45.6850616
  64.6888646  36.9606559  44.7680656  64.9254170  38.0045779  44.5622279
  64.3661037  36.4735359  43.8479354  63.5715419  36.8877337  45.7992680
  63.4501504  35.8439605  46.0889270  63.8921203  37.4692168  46.6636788
  62.2461933  37.4288277  45.2883449  61.2299914  36.7153240  45.4130491
  62.2088382  38.5651949  44.7704374  66.8645405  35.9390698  44.0111198
  66.8900835  34.7909729  43.5513566  67.5835022  36.9451683  43.5135047
  67.3968122  37.8846024  43.8339885  68.5386658  36.7620592  42.4183775
  68.1035200  36.1394309  41.6366605  68.9842723  38.1179233  41.8108535
  69.2339448  38.8009657  42.6227754  70.2108529  37.9349451  40.8993285
  69.9617936  37.2523428  40.0868481  70.5038814  38.8998538  40.4855820
  71.0367860  37.5228674  41.4790918  67.8097095  38.7258428  41.0371415
  67.6774648  38.1195058  40.1410570  66.9307399  38.6281439  41.6742969
  67.9875705  40.1741517  40.6433003  68.8661431  40.2725782  40.0057093
  67.1056031  40.5146432  40.1008078  68.1194206  40.7812162  41.5389498
  69.7381969  35.9019504  42.8366642  70.1300341  35.0015443  42.1018666
  70.3080779  36.1648293  44.0118473  70.0585702  36.9939060  44.5319214
  71.3923074  35.3184700  44.5284828  72.2213012  35.3231198  43.8207774
  71.9020032  35.8229317  45.8832808  70.9822468  35.9000076  46.4631142
  72.5287047  35.0345347  46.3001446  72.6550386  37.1578081  45.9399609
  72.0190126  37.9443230  45.5338009  73.0204611  37.4935065  47.3760559
  73.6569055  36.7076197  47.7827735  73.5546002  38.4432779  47.4030834
  72.1123984  37.5707889  47.9740108  73.9136170  37.1517528  45.0619980
  73.6331556  36.9656276  44.0252732  74.4127911  38.1179848  45.1349500
  74.5901453  36.3673382  45.4012653  70.9729672  33.8453066  44.6090589
  71.7592479  32.9488829  44.2750722  69.7338006  33.5969609  45.0321720
  69.1626183  34.3433872  45.4018990  69.1999114  32.2346163  45.0623623
  69.9187016  31.5766464  45.5507426  67.8751835  32.1677665  45.8292842
  68.0248099  32.3609097  46.8915492  67.1837175  32.9045276  45.4204347
  67.1941643  30.8384508  45.7274295  67.6540419  29.7142939  46.3797123
  66.8683609  28.6903763  46.0955396  67.0656905  27.7052383  46.5182253
  65.9161199  29.1092046  45.2817455  65.1706723  28.5454851  44.8988251
  66.0989926  30.4485796  45.0333219  65.4111070  30.9797524  44.3754692
  69.0301657  31.6502070  43.6599789  69.3278844  30.4741734  43.4391046
  68.5614709  32.4729523  42.7213845  68.2559131  33.3983497  42.9866646
  68.4008642  32.0624476  41.3245390  67.7574873  31.1827797  41.3058385
  67.7361166  33.1697058  40.5135404  68.3728312  34.0544043  40.5153434
  67.5884414  32.8310665  39.4880572  66.7712715  33.4161900  40.9567319
  69.7335814  31.6666816  40.6941303  69.7788841  30.8067672  39.8122161
  70.8091694  32.3025095  41.1536664  70.6870272  33.0421497  41.8305069
  72.1619443  32.0242889  40.6655524  72.1191531  31.7112287  39.6223547
  73.0403763  33.2736113  40.7656165  73.0218234  33.5955612  41.8068193
  74.0534909  32.9751473  40.4961387  72.5963959  34.4202315  39.8733927
  72.6646738  34.0843309  38.8386900  71.5576906  34.6474970  40.1132757
  73.5897112  35.9059774  40.0796253  73.5464153  36.0891995  41.8473620
  73.9794707  35.2052259  42.3154994  74.1196174  36.9702406  42.1359910
  72.5135706  36.2046330  42.1760082  72.8259450  30.8645861  41.4032707
  73.9410486  30.4601051  41.0562475  72.1417750  30.3397396  42.4193325
  71.2464738  30.7366403  42.6663243  72.6362724  29.2033059  43.1992074
  71.7857899  28.7624926  43.7192673  73.0507176  28.4765445  42.5005284
  73.7010510  29.5727787  44.2176515  74.4709223  28.7139136  44.6538784
  73.7383822  30.8478767  44.6025312  73.0979026  31.5079249  44.1851327
  74.7577189  31.3566136  45.5232177  75.6433071  30.7227279  45.4782550
  75.1599471  32.7877666  45.1474326  74.2520844  33.3908267  45.1331784
  75.8279896  33.1560897  45.9259938  75.8550670  32.8845290  43.7943708
  76.6702712  32.1611067  43.7801145  75.1296004  32.6289017  43.0220658
  76.4075471  34.2749044  43.5295070  75.5784433  34.9824456  43.5210667
  77.0971517  34.5336428  44.3329990  77.1403734  34.3342590  42.1915744
  76.4375612  34.0318872  41.4152195  77.4423697  35.3682350  42.0248679
  78.3472277  33.4482057  42.1446910  78.0675529  32.4899998  42.2987144
  78.7890376  33.5287208  41.2400245  78.9987858  33.7284949  42.8637244
  74.3557721  31.2719898  46.9986650  75.2230820  31.2093075  47.8745289
  73.0481687  31.2749064  47.2639153  72.3989876  31.4432503  46.5087175
  72.5099330  31.1142431  48.6234603  73.2162620  30.6128679  49.2851410
  72.0779893  32.4748064  49.2582337  71.6046573  32.2778806  50.2201471
  73.2866226  33.3925235  49.4628455  73.7602360  33.5902895  48.5012429
  72.9586183  34.3328315  49.9059425  74.0025629  32.9086249  50.1272029
  70.9810736  33.1534907  48.4224147  71.4543042  33.5208472  47.5118089
  70.2517003  32.3846425  48.1674902  70.2795401  34.3030753  49.1277805
  71.0082502  35.0725795  49.3826231  69.5210252  34.7256678  48.4688647
  69.8056480  33.9363748  50.0383061  71.3242181  30.1363887  48.6282602
  70.6498318  29.9853867  47.6065932  71.0729832  29.4567351  49.7680312
  71.8772397  29.4251558  51.0049185  72.0873246  30.4457481  51.3248495
  72.8154984  28.9049889  50.8120556  71.0034319  28.6871614  51.9726738
  70.4289422  29.4053779  52.5576744  71.6280404  28.0929039  52.6396249
  70.1207735  27.8202300  51.1649548  69.1720893  27.6728648  51.6810757
  70.5691311  26.8511092  50.9461397  69.8905826  28.5960047  49.8628144
  69.8838708  27.9499149  48.9849641  68.5716257  29.3777348  49.9318718
  68.5742788  30.5831373  50.2052080  67.4651878  28.6789835  49.6875098
  67.5585913  27.7031980  49.4441628  66.1257477  29.2734138  49.6734092
  66.0720441  30.0607205  48.9215028  65.0864865  28.2008159  49.3340159
  65.5210658  27.5807791  48.5499276  64.9482233  27.6027136  50.2347140
  63.7419586  28.7350959  48.8699086  63.3316546  29.3563149  49.6660482
  63.9086210  29.3457796  47.9825596  62.7632226  27.6225184  48.5414391
  62.2888693  26.9421721  49.4801462  62.4682330  27.4285401  47.3430742
  65.7635129  29.9735446  50.9888027  65.1420059  31.0419724  50.9800268
  66.1653756  29.3745133  52.1099333  66.6303333  28.4797984  52.0516330
  65.8330866  29.9001759  53.4381753  64.7891220  30.2131448  53.4551331
  66.0439149  28.8301805  54.5260256  65.8224606  29.2756826  55.4958632
  65.3313897  28.0307418  54.3227877  67.4598112  28.2581645  54.5403635
  68.4292254  28.9981679  54.2775481  67.6046459  27.0531102  54.8395491
  66.5586590  31.2020017  53.8005014  66.2980877  31.7869228  54.8526891
  67.4556728  31.6498265  52.9242508  67.6919432  31.0820067  52.1230915
  68.2019455  32.8890171  53.1401995  68.0834625  33.2122941  54.1743914
  69.6959855  32.6825486  52.8592009  69.7778152  32.0961540  51.9440263
  70.1370701  33.6665619  52.7002602  70.4368811  31.9692567  53.9884667
  70.3403505  32.5818664  54.8848438  69.9409195  31.0118586  54.1481856
  71.9088605  31.7337112  53.6923400  72.5196106  32.5161142  52.9310176
  72.4629617  30.7532427  54.2322727  67.6588120  34.0792231  52.3403227
  68.2007346  35.1793841  52.4301252  66.5942777  33.8571088  51.5679018
  66.2471728  32.9160417  51.4495365  65.9665297  34.9344492  50.7895367
  66.7287428  35.4994807  50.2530017  64.9136805  34.3946462  49.7785297
  64.2481990  33.7058777  50.2989456  64.0953943  35.5393116  49.1804103
  64.7601835  36.2282987  48.6593990  63.3665117  35.1367123  48.4770294
  63.5752849  36.0701430  49.9777832  65.6035421  33.5976684  48.6641099
  66.1007922  34.3211987  48.0180859  66.3508962  32.9649214  49.1428504
  64.6638082  32.7318197  47.8290008  63.9164033  33.3639649  47.3495446
  65.2365402  32.2046652  47.0659900  64.1665053  32.0076888  48.4743101
  65.3535232  35.9872040  51.7222635  65.6016633  37.1856781  51.5669855
  64.5671569  35.5254099  52.6888245  64.3420810  34.5412364  52.7178553
  63.9714302  36.4015741  53.6932392  64.0062773  37.4343957  53.3465918
  62.5100210  36.0197342  53.9477536  62.4453184  34.9732754  54.2458085
  62.0830235  36.6469351  54.7303085  61.6271387  36.1785891  52.7388111
  61.4443478  35.2730278  51.7317102  61.9904979  34.3332905  51.8136470
  60.5695943  35.7720433  50.7925857  60.2770128  35.2982666  49.9499522
  60.1628418  37.0216619  51.1860343  59.2827320  37.9196646  50.5692783
  58.8166504  37.6294196  49.6276709  59.0613451  39.1218049  51.1981316
  58.3817488  39.8457539  50.7485244  59.6924042  39.4423846  52.4122231
  59.5108417  40.3985751  52.9029717  60.5688606  38.5481397  53.0251670
  61.0340110  38.8437138  53.9655774  60.8125470  37.3132686  52.4077342
  64.7901133  36.3080069  54.9740285  64.9508194  35.2202517  55.5318162
  65.3171246  37.4419666  55.4283297  65.1731215  38.3034541  54.9211791
  66.1928472  37.4653032  56.6023294  66.1762974  36.4915361  57.0918219
  67.6334332  37.7848437  56.1980179  67.6067030  38.6346349  55.5159330
  68.1786676  38.0610304  57.1005368  68.3320367  36.6140691  55.5220527
  68.3658491  35.7870905  56.2313227  67.7467819  36.3208489  54.6505019
  69.7483291  36.9261172  55.0727780  70.3442885  37.9400142  55.4664646
  70.2980631  36.0503678  54.2332587  71.2384574  36.2000483  53.8965752
  69.7720223  35.2406059  53.9371708  65.7295803  38.4235241  57.6884392
  65.3635967  39.5717231  57.4084801  65.7511261  37.9352071  58.9274825
  65.9853164  36.9620596  59.0625312  65.4134295  38.7363953  60.1028214
  64.4570788  39.2361848  59.9488637  65.3046509  37.8425410  61.3416542
  64.9788951  38.4508583  62.1854151  64.5661082  37.0644228  61.1488159
  66.5529690  37.2438336  61.6453191  66.4610231  36.6893311  62.4235689
  66.4656396  39.8164307  60.3295826  67.5812098  39.7221433  59.8120316
  66.1043937  40.8420785  61.0976619  65.1642037  40.8853624  61.4640889
  67.0158641  41.9430376  61.3978231  68.0061069  41.7261865  60.9972059
  66.5033133  43.2425869  60.7619424  66.3222218  43.0304612  59.7082310
  65.5595610  43.4844352  61.2507584  67.4583375  44.4275089  60.8853996
  66.9055235  45.3317425  60.6307252  67.7715043  44.4753583  61.9283455
  68.6879255  44.3148487  59.9904677  68.6335588  43.6186177  58.9546257
  69.7136506  44.9407755  60.3246018  67.1723949  42.1255101  62.9077290
  66.1695767  42.2736037  63.6165857  68.4267839  42.1175431  63.4085862
  69.6920945  41.8785093  62.6879976  69.9992495  42.7896443  62.1745885
  69.5534138  41.0803198  61.9587787  70.6361782  41.4907208  63.7881063
  71.6577136  41.7523324  63.5122007  70.5734331  40.4182128  63.9722018
  70.1793272  42.2624851  64.9785940  70.6230593  43.2561388  64.9165198
  70.4352718  41.8100439  65.9366593  68.6535940  42.3624733  64.8374191
  68.1083593  41.6114012  65.4090029  68.1787028  43.7553120  65.2453295
  68.2511769  44.6930929  64.4410936  67.6903516  43.8855330  66.4786529
  67.6074478  43.0769041  67.0781074  67.1970538  45.1701528  66.9748577
  66.5185995  45.6064583  66.2417572  66.4428178  44.9994344  68.3003916
  65.6459438  44.2760822  68.1276125  67.1498533  44.5943309  69.0243336
  65.8407923  46.3034562  68.8472604  66.6641429  46.9777786  69.0828106
  65.2298362  46.7391309  68.0566787  64.9906229  46.0931041  70.0845336
  63.7461029  46.1489740  69.9703338  65.5644269  45.8673786  71.1746153
  68.3332653  46.1714963  67.1400774  69.4201992  45.8213907  67.6147256
  68.0708038  47.4120104  66.7333347  67.2065182  47.5924951  66.2428910
  68.9980551  48.5196597  66.9302669  69.9353424  48.3157366  66.4125729
  68.4032021  49.8143870  66.3727068  68.3754557  49.7479971  65.2850847
  67.3888658  49.9278337  66.7552663  69.1793463  50.9325051  66.7567809
  68.7886411  51.7321001  66.3967850  69.3303848  48.6991911  68.4107099
  68.4463126  48.6259257  69.2660370  70.6085601  48.9151996  68.7055763
  71.3153198  48.8054652  67.9924504  71.0419218  49.2222581  70.0724614
  70.4064143  48.7448490  70.8183232  72.5249346  48.8045537  70.3385458
  72.7777593  49.0447033  71.3712641  72.7181480  47.3143262  70.1030130
  72.4659430  47.0734722  69.0703064  73.7575071  47.0474626  70.2943687
  72.0696474  46.7526082  70.7753384  73.5036981  49.6203438  69.4877611
  73.3974708  50.6788341  69.7252819  74.5240396  49.3013824  69.7005200
  73.2869063  49.4620311  68.4313335  70.8451164  50.7018049  70.4008544
  70.7559827  51.0827450  71.5737520  70.7783965  51.5259351  69.3590694
  70.8305699  51.1386269  68.4277426  70.6721708  52.9770540  69.5012765
  71.1842297  53.3016679  70.4071025  71.3167470  53.6702300  68.3005894
  70.6978478  53.4452315  67.4320051  71.3207923  54.7462974  68.4742633
  72.7328032  53.1944501  68.0481547  72.9757653  52.5788375  66.9886220
  73.5984133  53.4162755  68.9193841  69.2277273  53.4398796  69.6304256
  68.9582032  54.4696019  70.2466745  68.3105558  52.6804351  69.0312573
  68.6076987  51.8647538  68.5150506  66.8881280  53.0267873  69.0231793
  66.6874057  53.8314191  69.7305529  66.3988946  53.4715983  67.6102551
  66.4182303  52.6087483  66.9445109  64.9733330  54.0338807  67.6766442
  64.9532947  54.8971009  68.3418887  64.6549511  54.3370195  66.6792273
  64.2972840  53.2676556  68.0560630  67.3302424  54.5181397  67.0169032
  68.3334639  54.1020273  66.9247126  66.9672711  54.8116585  66.0319168
  67.3581948  55.3915799  67.6683797  66.0724052  51.8363926  69.5412447
  65.4440686  51.1090582  68.7611858  66.0859421  51.6271292  70.8710235
  66.7760851  52.4303797  71.8993679  66.5947885  53.4892653  71.7149956
  67.8471389  52.2327359  71.8560127  66.1586950  51.9551251  73.1796930
  65.2901713  52.5675516  73.4219728  66.8862448  52.0211410  73.9886519
  65.7726872  50.5409702  72.9268430  64.9194089  50.2998124  73.5607657
  66.5708586  49.8198758  73.1030390  65.3529105  50.5067179  71.4528029
  65.6568556  49.5941312  70.9400641  63.8416057  50.6872623  71.3168748
  63.3486802  51.8207539  71.3030461  63.1271300  49.5724100  71.2019407
  63.5979685  48.6789639  71.1891145  61.6800272  49.5933154  71.0304813
  61.3725547  50.6155785  70.8101680  61.2690278  48.6996719  69.8666455
  61.5621132  47.6710210  70.0765938  60.1882645  48.7491109  69.7339552
  61.7622972  49.0387442  68.9557040  60.9632822  49.1639436  72.3017301
  61.0936235  48.0224738  72.7480516  60.1961237  50.0841388  72.8766551
  60.2202666  51.0436436  72.5622240  59.3427149  49.7499115  74.0054136
  59.8691749  49.0647667  74.6698800  58.9615121  51.0060303  74.7986695
  58.2543043  51.5617064  74.1828932  58.4623502  50.6635419  75.7051127
  60.1449448  51.9234452  75.1782352  60.7722131  52.0537543  74.2963878
  59.7282069  52.8866620  75.4725903  61.0119432  51.3970682  76.3205350
  62.2413946  51.4675292  76.2680992  60.3765261  50.8808673  77.3566319
  60.9029933  50.5186314  78.1387565  59.3669923  50.8506701  77.3621867
  58.1065448  49.0341327  73.4596323  57.6266982  49.3694929  72.3652805
  57.5980821  48.0275778  74.1944559  58.0910269  47.5184503  75.4887437
  58.2633390  48.3548149  76.1661676  59.0250144  46.9780956  75.3345256
  56.9819154  46.6222688  75.9510536  56.2957723  47.1894573  76.5800241
  57.3995862  45.7945988  76.5243030  56.3118374  46.1314320  74.7261435
  55.2627962  45.9384796  74.9506002  56.7648806  45.2322398  74.3086450
  56.4266924  47.2883742  73.7253544  56.6236011  46.9543427  72.7066552
  55.1556736  48.1391875  73.7454786  55.0600562  49.0979167  74.5093840
  54.1980041  47.7901250  72.8929261  54.3630256  47.0614190  72.2133272
  52.8993571  48.4589070  72.8896769  52.9678969  49.5026746  73.1961909
  52.2036712  48.3712936  71.5041676  52.0643507  47.3211262  71.2475771
  50.8401741  49.0769023  71.5293308  50.9787374  50.1272939  71.7854134
  50.3732474  49.0014161  70.5473013  50.1992348  48.6036118  72.2731669
  53.1097504  48.9136601  70.3826810  53.9836008  48.2629490  70.3501053
  52.5468625  48.8119455  69.4548282  53.5613637  50.3649717  70.5478994
  54.1247544  50.4673781  71.4753711  54.1937449  50.6473148  69.7061895
  52.6880153  51.0163747  70.5800963  52.0229846  47.8059394  73.9513145
  51.8198120  46.5918429  73.9216550  51.5230385  48.6101544  74.8869223
  51.7234269  49.5993573  74.8492195  50.7232673  48.1055599  76.0061937
  50.5894952  47.0278827  75.9122998  51.3881882  48.4060291  77.3797058
  50.7598424  47.9926569  78.1686324  52.7829323  47.7895087  77.4646194
  53.4120322  48.2027701  76.6762363  53.2225029  48.0163608  78.4359149
  52.7110811  46.7087688  77.3423924  51.4842622  49.8211726  77.5779802
  51.8953968  49.9981075  78.4272521  49.3219564  48.7041113  75.9922307
  49.0963649  49.7549073  75.3893664  48.3877880  48.0172158  76.6463851
  48.6253607  47.1107858  77.0232714  47.0245239  48.5169247  76.8455807
  46.9718195  49.5713813  76.5745774  45.9988667  47.7376622  75.9961184
  44.9970899  48.0780441  76.2581943  46.2384151  47.9623656  74.5061634
  47.2398938  47.6217720  74.2432258  45.5017823  47.4018236  73.9306082
  46.1449514  49.0242623  74.2786980  46.0985578  46.3366934  76.2902463
  45.4601958  45.8524952  75.7614304  46.6349533  48.3737405  78.3141358
  47.2307469  47.5716665  79.0384977  45.6423483  49.1477754  78.7493464
  45.2691672  49.8750089  78.1560787  45.1076020  49.0158494  80.1050197
  45.8567851  48.5698212  80.7591472  44.6738327  50.3744483  80.7044546
  44.3326081  50.2125272  81.7269259  45.8334357  51.3679525  80.7065291
  46.1749192  51.5307447  79.6842829  45.5009723  52.3143413  81.1330446
  46.6533393  50.9689592  81.3037418  43.5800889  50.9104638  79.9500331
  43.3147249  51.7530898  80.3257508  43.9279582  48.0467938  80.1124126
  43.3694826  47.7228868  79.0547518  43.5608242  47.5815617  81.3073187
  44.1276051  47.7989818  82.1145282  42.3995180  46.7130870  81.4896750
  42.5431289  45.7836704  80.9386216  42.2077935  46.3781361  82.9741192
  43.1189578  45.9388500  83.3802061  41.9614386  47.2821847  83.5309903
  41.1004669  45.3942610  83.2388826  41.3247963  44.0266024  83.1200616
  42.3143784  43.6741497  82.8291935  40.3024377  43.1095452  83.3679488
  40.4911418  42.0399214  83.2763163  39.0395473  43.5642150  83.7329474
  38.2356943  42.8528404  83.9223317  38.8037126  44.9278876  83.8559800
  37.8162382  45.2878706  84.1447823  39.8312060  45.8353538  83.6097190
  39.6479543  46.9054997  83.7061890  41.1264746  47.3448228  80.9251121
  40.3602068  46.6766609  80.2267087  40.9193389  48.6267353  81.2267662
  41.5658420  49.0961115  81.8446813  39.7343089  49.3581204  80.7770799
  38.8409065  48.7768845  81.0053254  39.6245427  50.7210265  81.4752744
  40.6301354  51.1228627  81.3511367  38.9193388  51.3253816  80.9047112
  39.2402167  50.7537335  82.9629278  39.9153470  50.1044279  83.5203344
  39.3421013  52.1743560  83.5023213  38.6668659  52.8242023  82.9456745
  39.0672427  52.1836666  84.5570568  40.3652183  52.5333827  83.3908239
  37.8454062  50.1863768  83.2105047  37.8092155  49.1500899  82.8745002
  37.6184358  50.2305492  84.2756969  37.1108589  50.7726606  82.6584082
  39.7035061  49.5224661  79.2571899  38.6503515  49.3706117  78.6412332
  40.8579773  49.8180362  78.6611735  41.6751325  50.0256096  79.2172940
  40.9611229  49.9355408  77.2033537  40.2464404  50.6760226  76.8441674
  42.3707147  50.3743729  76.7899940  43.0772352  49.7833969  77.3728106
  42.4857652  50.1378983  75.7321929  42.6460212  51.8625444  77.0123024
  42.0583712  52.4102792  76.2755833  42.3005828  52.1174913  78.0141874
  44.1147213  52.2389273  76.8710755  44.9766756  51.3319635  76.8091024
  44.4068990  53.4546251  76.8296046  40.5721381  48.6259207  76.5144377
  39.8928226  48.6283506  75.4834777  40.9931624  47.5092399  77.1035103
  41.5843228  47.5744497  77.9198292  40.7055084  46.1832032  76.5604764
  40.8872071  46.1761527  75.4857509  41.6058818  45.1297373  77.2165208
  41.6116142  45.3323353  78.2875112  41.1497237  44.1567945  77.0337586
  43.0350186  45.1258010  76.6937077  42.9964374  45.0285854  75.6087370
  43.4923667  46.0796829  76.9564701  43.8663992  43.9848034  77.2776467
  43.2095308  43.1385845  77.4789834  44.6222906  43.6920102  76.5489494
  44.5371586  44.3646024  78.5225598  45.2267725  45.0997234  78.4583019
  44.2986999  43.8197309  79.7134341  43.4044287  42.8478324  79.8440520
  42.8997801  42.5178534  79.0337781  43.2326354  42.4426540  80.7531269
  44.9642907  44.2460962  80.7788817  45.6489533  44.9822153  80.6815886
  44.7832923  43.8326133  81.6824137  39.2383600  45.7516837  76.6815405
  38.7087383  45.1063883  75.7741593  38.5878811  46.1098710  77.7881515
  39.0364352  46.7050346  78.4698251  37.2849342  45.5187099  78.1285747
  36.9790520  44.8191149  77.3506916  37.3789819  44.7625934  79.4575397
  37.6689217  45.4544317  80.2483582  36.4259460  44.2990547  79.7124011
  38.3995270  43.6676965  79.4510199  38.2653221  42.5309903  78.6810360
  39.3163185  41.7517095  78.8662171  39.4003872  40.7995642  78.3423366
  40.1255056  42.3409762  79.7287651  41.0056648  41.9756198  80.0633310
  39.5773133  43.5431261  80.1049937  40.1034979  44.1846461  80.8118763
  36.0553543  46.4374834  78.1253488  34.9269739  45.9422680  78.1907976
  36.2583062  47.7523464  78.0465277  37.1902544  48.1375821  78.1027885
  35.1253680  48.6807155  77.9761431  34.4438619  48.4776358  78.8022226
  35.5825019  50.1414773  78.0659015  36.5125206  50.1353450  77.4974589
  34.8485122  50.7638440  77.5540239  35.8445179  50.7087945  79.4702974
  36.4858789  50.0198270  80.0199161  36.5250540  52.0633075  79.3705414
  35.8840467  52.7529929  78.8214125  36.7052495  52.4545867  80.3718060
  37.4748530  51.9556037  78.8467265  34.5644871  50.8086355  80.3062362
  34.1258592  49.8172733  80.4198402  34.8026678  51.2148200  81.2892852
  33.8529537  51.4649464  79.8051619  34.3057448  48.4333816  76.7077872
  34.8730412  48.1606215  75.6475860  32.9665099  48.5009738  76.8160613
  32.1683172  48.8369606  78.0121864  32.5684223  49.7397420  78.4737079
  32.2171874  48.0131945  78.7243100  30.7850255  49.0355907  77.4600198
  30.6388450  50.0831905  77.1968374  30.0443924  48.7415842  78.2037430
  30.7105333  48.1619045  76.2651254  29.9858717  48.5722060  75.5618351
  30.4471791  47.1298589  76.4966982  32.1172368  48.2190639  75.6569363
  32.4499944  47.2748053  75.2259532  32.1718918  49.3120374  74.5907104
  32.5457161  50.4476532  74.8805002  31.8075586  48.9483816  73.3626303
  31.7036824  47.9675615  73.1451423  31.5374156  49.9215731  72.3117496
  32.3447694  50.6520115  72.2594175  31.4343530  49.2110198  70.9645484
  31.2923045  49.9579976  70.1835582  32.3614422  48.6674790  70.7824246
  30.3439601  48.3027508  70.9539339  30.2979465  47.8680115  70.0992501
  30.2118930  50.6078907  72.6277733  29.5224939  50.2111957  73.5737078
  29.8530125  51.6222182  71.8402090  30.5272304  52.0222234  71.2034002
  28.5563720  52.2917155  71.9910392  28.3787957  52.5643903  73.0313345
  28.4373114  53.5784825  71.1097241  28.6896586  53.3206226  70.0811676
  27.0215208  54.1524195  71.1580384  26.7686130  54.4109654  72.1862858
  26.9697303  55.0460053  70.5360074  26.3151310  53.4101626  70.7863265
  29.4476107  54.6341590  71.5569918  30.4573264  54.2346385  71.4623366
  29.3482205  55.5210888  70.9312308  29.2589453  54.9008193  72.5968949
  27.3824938  51.3072274  71.7754397  26.5234687  51.1898149  72.6498110
  27.3525254  50.5814650  70.6322775  28.2356505  50.6271577  69.4500515
  29.2748627  50.6865460  69.7734883  27.9927107  51.5022049  68.8472484
  27.9263024  49.3464910  68.7456208  28.5912616  48.5626206  69.1082163
  28.0709017  49.4776124  67.6732405  26.5072406  49.0397453  69.0553491
  26.3543445  47.9605413  69.0489793  25.8153914  49.5083401  68.3554467
  26.2759893  49.5903594  70.4669145  25.3260670  50.1171090  70.5579125
  26.3325922  48.4596428  71.4979102  25.2935652  47.9050801  71.8609793
  27.5373089  48.1349232  71.9631380  28.3561000  48.5646587  71.5569263
  27.7252175  47.1737559  73.0469718  27.3016021  46.2173652  72.7404331
  28.7940264  47.0565105  73.2258585  27.0547406  47.6214422  74.3344254
  26.4119079  46.8150179  75.0086405  27.2050591  48.9044625  74.6681473
  27.8378927  49.4810576  74.1322752  26.5443853  49.4965767  75.8343844
  26.7432064  48.8864339  76.7154605  27.0616918  50.9198054  76.0957368
  28.1351225  50.7574304  76.1931029  26.8637727  51.5106412  75.2013984
  26.5435882  51.6724030  77.3315428  25.4550753  51.6159256  77.3386803
  27.0916097  51.0737769  78.6220176  28.1801239  51.1303214  78.6158161
  26.7042053  51.6311074  79.4748958  26.7828949  50.0312723  78.6993465
  26.8777425  53.1564290  77.2488778  26.4142950  53.5847880  76.3601572
  26.4995593  53.6645075  78.1359714  27.9587983  53.2833117  77.1912740
  25.0212967  49.5001571  75.6709264  24.2909686  49.2210328  76.6253437
  24.5569197  49.8071936  74.4590652  25.2087218  50.0893548  73.7409856
  23.1244857  49.8355797  74.1476600  22.6005076  50.4335594  74.8932915
  22.8755995  50.4501656  72.7625156  23.5529960  49.8733134  72.1328532
  21.8450227  50.2257159  72.4874997  23.1434474  51.9491495  72.5629716
  24.1359878  52.1865501  72.9458625  23.0700351  52.3099373  71.0879025
  22.0775696  52.0732344  70.7043886  23.2622076  53.3756848  70.9639963
  23.8176200  51.7399272  70.5362635  22.1844663  52.8207476  73.3708911
  22.2949074  52.5963481  74.4318091  22.4137232  53.8720197  73.1966224
  21.1593056  52.6168775  73.0617287  22.4884033  48.4455171  74.2392853
  21.3491647  48.3090539  74.6881998  23.2312460  47.4229784  73.8121152
  24.1036476  47.6045066  73.3366551  22.8004076  46.0329798  73.9644439
  21.8085943  45.9107252  73.5291745  23.7651842  45.0735837  73.2611664
  24.7642445  45.4940214  73.3761009  23.7073583  44.1246350  73.7943198
  23.4789862  44.8437214  71.7852694  22.4149757  44.9908185  71.5999456
  24.0523440  45.5578064  71.1941303  23.8727287  43.4226716  71.3884961
  24.9453584  43.3057389  71.5430641  23.3354651  42.7238173  72.0296278
  23.5634830  43.1110383  69.9925885  22.6039416  43.2282906  69.6999597
  24.4562997  42.6982634  69.0938754  25.7306869  42.5331132  69.4353103
  26.0249619  42.7217777  70.3828903  26.3985913  42.2197600  68.7455183
  24.0731612  42.4386280  67.8499485  23.1045752  42.5550189  67.5884250
  24.7519497  42.1258539  67.1705978  22.6872714  45.6605249  75.4407439
  21.7530081  44.9629990  75.8400218  23.6410084  46.1372471  76.2395420
  24.4056428  46.6534320  75.8284620  23.6682021  45.8879112  77.6791101
  23.5509156  44.8219201  77.8740613  25.0038821  46.3499616  78.2713208
  25.6966618  46.1879159  77.4455504  24.9157086  47.4187082  78.4665289
  25.5296886  45.6445047  79.5239449  24.7197447  45.5804985  80.2505775
  26.0375915  44.2387094  79.2022629  26.8479179  44.3019379  78.4759901
  26.4035550  43.7665737  80.1139972  25.2239028  43.6439923  78.7871453
  26.6308530  46.4749994  80.1739506  26.2333068  47.4502744  80.4548334
  26.9962168  45.9621866  81.0636885  27.4513577  46.6070881  79.4686680
  22.4974896  46.5727026  78.3914259  21.9421186  46.0260178  79.3485648
  22.1319075  47.7660861  77.9197921  22.7217270  48.2315117  77.2448170
  20.9537608  48.4785600  78.4209838  20.9268230  48.4352527  79.5097896
  20.9322567  49.9645426  77.9607552  21.0633865  49.9981951  76.8791948
  19.6060674  50.6357384  78.3354380  19.4744453  50.6028846  79.4169632
  19.6167654  51.6736263  78.0026091  18.7826121  50.1086624  77.8535548
  22.1054914  50.7328510  78.5840077  21.8505591  50.9110941  79.6286797
  22.9777687  50.0815023  78.5294476  22.4201031  52.0613466  77.9040108
  21.5483867  52.7134451  77.9585815  23.2614850  52.5375063  78.4074467
  22.6755942  51.8838533  76.8593481  19.6709519  47.7434451  78.0068191
  18.8171413  47.4625295  78.8480159  19.5565310  47.4081566  76.7232758
  20.2781557  47.6776583  76.0700332  18.4068202  46.6523349  76.2162288
  17.5200849  47.2754286  76.3326499  18.5764785  46.4569321  75.1573931
  18.1804301  45.3304471  76.9333511  17.0387987  44.8891657  77.0924724
  19.2737184  44.7088561  77.3714300  20.1747563  45.1180239  77.1694107
  19.2361563  43.4287876  78.0783965  18.5359559  42.7525219  77.5880054
  20.6275135  42.7823942  78.0728383  20.9753821  42.9940471  77.0617549
  21.2283608  43.3438989  78.7882369  20.7650045  41.2839202  78.3563412
  20.1667785  41.0386630  79.2338806  20.2891665  40.4537580  77.1690090
  20.8872695  40.6981438  76.2911438  20.3984829  39.3939057  77.3989303
  19.2411353  40.6749841  76.9670438  22.2100750  40.9479857  78.6987346
  22.5144453  41.5088315  79.5824258  22.2978020  39.8800911  78.8987506
  22.8539468  41.2142040  77.8604889  18.7319545  43.5826414  79.5146860
  17.9039529  42.7921858  79.9754989  19.2416857  44.5978202  80.2115805
  19.9634977  45.1661532  79.7919563  18.8529283  44.8792696  81.5955924
  18.8498437  43.9540133  82.1717786  19.8281252  45.8775048  82.2675139
  19.6718461  46.8646044  81.8324144  19.5952066  45.9434661  83.7745301
  19.7517669  44.9567642  84.2104291  20.2936473  46.6518786  84.2199865
  18.5736334  46.2689256  83.9709093  21.1791065  45.4665047  82.0208959
  21.7830317  46.0855738  82.4375829  17.4155009  45.4056844  81.6668521
  16.6688976  45.0676493  82.5908616  17.0363427  46.2227415  80.6856330
  17.7228200  46.5501321  80.0210553  15.6695336  46.7302148  80.5771533
  15.2033808  46.7496711  81.5622534  15.6364136  48.1641572  79.9844185
  15.7532920  48.0987755  78.9026769  14.3178444  48.8608050  80.3123559
  14.2004737  48.9269765  81.3939959  14.3202944  49.8638041  79.8856407
  13.4901578  48.2896457  79.8918652  16.7212439  48.9347933  80.5186696
  16.6967873  49.8206021  80.1494205  14.8249957  45.7638677  79.7348458
  14.3429304  46.1131003  78.6518357  14.6660687  44.5426090  80.2433331
  15.1362806  44.3100709  81.1064241  13.8934241  43.4973415  79.5706927
  13.0636996  43.9871500  79.0610417  14.7570490  42.7623441  78.5467977
  15.1473824  43.4757362  77.8209796  15.9176499  42.0764055  79.2596217
  15.5280795  41.3624785  79.9853240  16.5341112  41.5518801  78.5295879
  16.5214835  42.8238815  79.7741736  13.9126637  41.7160293  77.8271697
  13.5223358  41.0019685  78.5523332  13.0829382  42.2058381  77.3175203
  14.7746586  40.9824172  76.8052089  15.6043900  40.4919384  77.3142042
  14.1715844  40.2344081  76.2905409  15.1649945  41.6958090  76.0793921
  13.3040247  42.5130620  80.5787032  13.9996320  42.0321874  81.4765534
  12.1103526  42.2227803  80.5423302  61.4998840  55.7205068  45.1789650
  62.0861204  56.6190482  46.2764837  60.3016932  56.3114217  44.5302313
  62.6367472  55.3624526  44.0974188  62.2985254  55.0077678  42.7789190
  63.3480579  55.5972825  41.8484277  63.1539442  55.1038993  40.5420778
  63.2550495  57.1139889  41.7687529  64.5377432  57.6533897  42.0042644
  62.7899904  57.3972321  40.3522984  63.3589157  58.5807484  39.8399516
  63.2606013  56.1571006  39.6089983  62.4886361  55.8284202  38.3978827
  61.1338804  55.9116225  38.1890994  60.8692436  55.4991251  36.9288144
  62.0297379  55.1472413  36.3317468  62.3396716  54.6620587  35.0619480
  61.3851566  54.4190403  34.1668903  63.6576620  54.3906360  34.7471338
  64.6630154  54.5983294  35.6711846  64.3500273  55.0799051  36.9256648
  63.0563982  55.3474646  37.2489998  59.0467349  57.3905866  54.6303623
  59.5595957  57.2427391  55.9054627  60.1137170  56.1940756  56.2220673
  59.4480596  58.2723583  56.8216612  58.8269041  59.4552657  56.4637045
  58.7347063  60.3679476  57.2809855  58.3060765  59.6078112  55.1793597
  57.6770104  60.7856080  54.8187000  57.1276044  60.9330982  53.5609581
  56.8039556  62.2410223  53.2013958  56.9556623  62.6775918  51.8935139
  56.6117642  64.0994248  51.5465501  57.4226626  61.7867780  50.9324455
  57.6103337  62.2305458  49.5190185  57.7327651  60.4731539  51.2728764
  57.5724644  60.0338101  52.5859973  57.9164748  58.7425906  52.9742538
  58.4185699  58.5673318  54.2557354  57.9424528  57.6130128  51.9735739
  59.3639775  57.2180242  51.5568229  60.0360958  58.3465582  51.0388055
  59.3190670  56.0800367  50.5323712  58.6352422  54.9795376  51.0952774
  60.6853324  55.5824886  50.0554125  61.5732978  56.6427862  49.7761143
  60.4900448  54.7453974  48.7985644  61.7230714  54.2415532  48.3386868
  61.7413755  53.3276131  47.0149147  63.1501894  53.0777131  46.6392576
  60.9624707  52.0244817  47.2462173  61.0492633  54.0264398  45.9211726
  61.3338856  55.4010355  42.5336509  62.2679403  53.9426707  42.6772195
  64.3030442  55.3183437  42.2431939  62.5879587  57.5439324  42.4864217
  65.1668355  57.2811824  41.3670732  61.7368753  57.5657400  40.2685269
  64.3265098  58.5173312  39.8776458  64.2546863  56.3257978  39.2501749
  60.4358450  56.2341701  38.8777761  60.4445015  54.6109195  34.3860966
  61.6199184  54.0473169  33.2858565  65.6444120  54.3942129  35.4239539
  59.8115354  58.1637888  57.7301237  56.4466303  62.8929191  53.9173234
  56.2743100  64.6096359  52.4248515  55.8364960  64.1093762  50.8088230
  57.4790292  64.5917121  51.1586898  57.3285214  63.2588091  49.4281431
  56.9992251  61.6343197  48.8742513  58.6378382  62.1166209  49.2430557
  58.0824816  59.8224596  50.5517853  57.4026253  57.9169340  51.1008860
  57.4953959  56.7603197  52.4405210  59.9025576  56.8663396  52.4124785
  59.5596608  58.6778981  50.2617189  58.8229767  56.4887086  49.6769557
  59.1281512  54.6509914  51.8632644  61.1182155  55.0000473  50.8412932
  61.2087080  57.1915441  49.0641893  60.0529163  55.3548464  48.0347191
  59.8468003  53.9225797  49.0299464  53.5785702  61.1668857  59.6520570
  52.5076308  60.2240354  60.1293643  51.6991327  60.6013047  61.2184027
  50.6775007  59.7674638  61.6989882  49.8693095  60.1915391  62.8614167
  48.5063467  59.9920690  62.6753922  47.6411333  60.3423180  63.6796115
  46.2801292  60.1374872  63.4447154  45.3450431  60.4714733  64.4266789
  45.7705493  61.0082078  65.6442415  47.1290257  61.2103531  65.8768140
  47.4751923  61.7382987  67.0901352  48.0628480  60.8778444  64.8927963
  49.4992222  61.0740594  65.0965457  49.9519535  61.5343820  66.1421256
  50.4068502  60.6957814  63.9886327  51.7624034  60.8721197  64.1956815
  50.4813862  58.5292838  61.0800680  51.2735998  58.1413086  59.9952958
  52.2899004  58.9767675  59.5035767  53.1270002  58.5224940  58.3269580
  54.3533888  58.0601634  58.6974096  53.3663254  59.5083069  57.4156725
  52.5403470  57.5110829  57.6246030  54.4389187  61.1215891  60.3363607
  53.8993034  60.8767140  58.6404812  53.1817182  62.1927003  59.6301951
  51.8719905  61.5733933  61.7040734  45.9448606  59.7136825  62.4865137
  44.2726854  60.3117676  64.2413713  45.0342839  61.2708312  66.4175146
  48.1283266  62.4090367  67.1395430  52.0617378  61.4917808  64.8310303
  49.6958201  57.8543411  61.4498644  51.0978891  57.1653751  59.5193245
  69.0144288  61.3265156 105.7405627  57.7572100 108.7844404  43.0387573
  36.7279996  75.4508646  37.9140108  44.9712758  77.1865953  18.1074868
  18.8427769  58.0372596  60.5750443  56.1754220  40.9256819 112.0705946
  55.5015919  41.2288516 112.6790904  56.5620042  41.7285899 111.7211403
  60.0811106  38.2107075 110.3433393  60.0024738  37.8766938 111.2369151
  60.9020773  38.7028843 110.3424865  57.6515058  35.5275070 109.9643371
  58.3550908  35.7325073 110.5801027  56.9277707  36.0951832 110.2292455
  60.8562552  48.2890155 118.0355424  60.2927417  48.1980092 117.2671711
  60.7414947  47.4690059 118.5157916  66.4362111  51.9561123 113.3469888
  65.7850091  52.5415203 112.9603902  67.2306474  52.4867318 113.4064926
  60.3617738  49.0450260 113.7457023  61.1348614  48.4979247 113.6069899
  60.7143137  49.9094509 113.9571484  62.6984016  45.2042926 111.3775473
  62.9509537  44.6824447 110.6158936  61.7608575  45.0409071 111.4802156
  67.7427299  44.2078704 119.1850216  68.5290388  43.7898127 118.8340633
  68.0066003  45.1124796 119.3531864  67.9137376  49.6451555 113.8838873
  67.2783209  49.7186181 114.5959777  67.5834783  50.2345153 113.2057952
  62.4180305  47.1071032 113.5799848  62.3016563  46.4315935 114.2480932
  62.5282565  46.6203406 112.7632001  64.7611846  46.5681179 117.2846537
  64.3970053  46.0411800 117.9959458  65.6178962  46.1779648 117.1113022
  64.4017333  41.5971079 112.2807885  64.5691735  42.4651315 112.6478356
  64.2114502  41.7598360 111.3569175  64.3806553  44.0528736 113.2654552
  64.2606179  44.4985787 114.1040033  63.6859142  44.4014054 112.7068090
  70.0791620  44.5250209 114.0934886  70.9909476  44.7577596 113.9182584
  69.5701267  45.1087254 113.5309965  64.2389164  49.2450436 118.7498553
  64.7027509  49.5238139 117.9603175  63.9745962  48.3433880 118.5671644
  63.1758050  45.3673588 115.5588118  63.8782093  45.8194632 116.0262044
  62.8438678  44.7257407 116.1868011  64.4151814  52.1814531 115.6350223
  64.2797489  53.0266067 116.0635071  64.9561627  52.3833809 114.8716157
  57.8681212  49.6989969 116.2078148  58.3805732  50.4933219 116.3583713
  58.5203925  49.0016259 116.1411750  59.6776097  52.8155725 118.2900901
  59.8542725  53.7373690 118.1021885  60.4732930  52.5014144 118.7195281
  67.7294561  45.6953704 112.6721552  67.2141184  46.4658309 112.9109939
  67.4571869  45.0218840 113.2954613  72.7028835  48.4486059 114.6074725
  71.9258278  48.1097218 114.1629887  73.3820316  48.4538682 113.9329690
  67.5180864  43.5680796 114.4981333  67.2131000  43.8826945 115.3491476
  68.4711306  43.6462216 114.5408666  65.9627296  49.7271019 116.1474287
  65.4348657  48.9923779 115.8347524  65.4614799  50.5045696 115.9014255
  61.0215611  42.4195147 112.5276784  60.1852923  42.7569833 112.8486058
  60.8820380  42.2844126 111.5903921  64.1079896  47.5451230 109.1509260
  63.2006958  47.3140483 109.3500409  64.6050928  46.7488849 109.3383242
  67.0147975  56.2548737 112.0705946  66.3409674  56.5580433 112.6790904
  67.4013797  57.0577817 111.7211403  67.0141479  45.1505284 116.6906296
  67.7613298  45.6626681 116.3813418  67.2833069  44.8289336 117.5510689
  65.2868129  47.6463824 113.6733250  64.3779349  47.3622857 113.7705720
  65.3163213  48.0662903 112.8136557  69.4620316  42.1862400 118.6725085
  68.7243073  41.6739786 119.0035328  69.7147090  41.7462782 117.8608362
  64.9844217  49.1872568 111.0121329  64.5463647  48.4708427 110.5526966
  65.7254658  49.4148683 110.4506420  62.0419762  50.7490291 119.2629652
  62.8360361  50.2540611 119.0612227  61.3311454  50.2208154 118.8997357
  58.3502526  44.8933372 115.3389404  57.4200114  44.8317828 115.5559367
  58.4459998  44.3709325 114.5426046  69.1055445  48.0456950 110.6053386
  68.4884615  47.3203778 110.5086439  68.6371933  48.8066310 110.2620461
  60.8953991  42.2642374 109.7274691  60.0183457  42.1431175 109.3636937
  61.3711744  41.4728452 109.4753579  68.4744348  49.1834981 117.1909840
  67.5400626  49.3036444 117.0214544  68.6521016  48.2807448 116.9269850
  71.8616899  45.0252300 117.7259874  72.3277351  45.8580292 117.6520177
  72.3124399  44.5597282 118.4305132  69.9293130  51.3696122 114.7246026
  70.2052974  51.2552716 115.6339900  69.0597629  50.9713606 114.6858199
  62.4530496  40.3245918 113.8595692  63.1738859  40.7027171 113.3559409
  61.8295801  41.0434795 113.9630670  66.5961619  41.0291067 114.7954024
  66.8125234  41.9115705 114.4942852  66.1155687  40.6377281 114.0659666
  57.0429138  53.5417450 119.2352981  57.8687158  53.2421222 118.8551625
  56.6923190  52.7725072 119.6842770  61.5724179  51.4447841 114.7809116
  61.7212299  52.1283306 114.1275788  62.3790622  51.4252932 115.2958571
  59.3276812  47.4713019 115.7870184  59.0822853  46.5675349 115.9850395
  59.4972726  47.4730170 114.8449662  58.5972459  43.2041377 113.2856346
  57.9041704  43.2785732 112.6296382  58.3524211  42.4401720 113.8077863
  65.0719584  53.9395972 112.2520863  64.4993551  54.5586159 111.7991335
  65.6452378  54.4895334 112.7860785  68.2916844  54.2233122 113.3829445
  69.2247517  54.1578684 113.5862321  68.2040057  55.0589389 112.9243978
  70.9204861  53.5398992 110.3433393  70.8418492  53.2058856 111.2369151
  71.7414527  54.0320760 110.3424865  65.4566383  45.2756785 109.5936915
  66.4025487  45.1462993 109.6625333  65.0780627  44.5371447 110.0706344
  63.6409300  43.2006761 109.5291801  62.7340755  42.9039874 109.6054514
  63.9185281  42.9036579 108.6626087  62.4108084  40.0593696 109.6703780
  63.2727248  40.3848595 109.9299597  62.5958428  39.2725192 109.1576846
  70.5640721  38.9322223 116.8139003  69.9839390  39.5907027 116.4317055
  70.2976653  38.1099567 116.4026420  69.3465599  41.0922313 115.8695351
  68.4591454  41.3771964 115.6515546  69.7619588  40.9316076 115.0222628
  68.4908812  50.8566988 109.9643371  69.1944662  51.0616990 110.5801027
  67.7671461  51.4243750 110.2292455  69.3206623  46.6076849 116.0845641
  69.2641824  47.0645400 115.2453274  69.8734965  45.8467534 115.9068484
  73.1311428  42.3966581 116.9095761  72.8748363  41.9963217 117.7403968
  72.5064297  43.1110375 116.7845900  70.3995510  51.2949517 112.0141831
  71.2341114  50.8630715 111.8319306  70.2379853  51.1231531 112.9418726
  70.0541402  47.7981630 113.3798170  69.9990206  47.6325902 112.4386615
  69.4287457  48.5057663 113.5360360  63.3637527  37.2989739 112.9583489
  63.3516197  38.2431579 113.1151760  64.2560949  37.1159885 112.6642950
  71.7347745  57.5934292 109.7274691  70.8577212  57.4723092 109.3636937
  72.2105498  56.8020370 109.4753579  74.4803054  58.5298679 109.5291801
  73.5734510  58.2331791 109.6054514  74.7579035  58.2328497 108.6626087
  73.2501839  55.3885614 109.6703780  74.1121003  55.7140512 109.9299597
  73.4352183  54.6017110 109.1576846  56.1754222  17.9318942  98.7951253
  55.5015920  18.2350638  99.4036211  56.5620044  18.7348022  98.4456710
  60.0811107  15.2169197  97.0678699  60.0024739  14.8829061  97.9614457
  60.9020774  15.7090965  97.0670172  57.6515059  12.5337193  96.6888678
  58.3550909  12.7387195  97.3046333  56.9277708  13.1013955  96.9537761
  60.8562554  25.2952278 104.7600730  60.2927419  25.2042214 103.9917018
  60.7414949  24.4752182 105.2403223  66.4362112  28.9623245 100.0715195
  65.7850092  29.5477326  99.6849209  67.2306475  29.4929440 100.1310233
  60.3617739  26.0512382 100.4702329  61.1348615  25.5041369 100.3315205
  60.7143138  26.9156632 100.6816791  62.6984017  22.2105049  98.1020779
  62.9509538  21.6886570  97.3404242  61.7608576  22.0471194  98.2047463
  67.7427300  21.2140827 105.9095523  68.5290389  20.7960250 105.5585940
  68.0066004  22.1186919 106.0777171  67.9137377  26.6513677 100.6084179
  67.2783210  26.7248304 101.3205084  67.5834784  27.2407276  99.9303259
  73.1435727  21.1516060 106.8128501  73.8760899  20.5815277 107.0466331
  72.3875083  20.7637661 107.2535007  62.4180306  24.1133154 100.3045154
  62.3016564  23.4378058 100.9726239  62.5282566  23.6265528  99.4877307
  64.7611847  23.5743302 104.0091844  64.3970054  23.0473923 104.7204765
  65.6178963  23.1841771 103.8358329  64.4017334  18.6033201  99.0053192
  64.5691736  19.4713438  99.3723663  64.2114503  18.7660483  98.0814481
  64.3806555  21.0590859  99.9899859  64.2606180  21.5047910 100.8285339
  63.6859143  21.4076176  99.4313397  62.1413447  33.8294501 103.6389990
  62.0637477  34.7802326 103.7178471  61.5375090  33.4840373 104.2964916
  70.0791621  21.5312332 100.8180193  70.9909477  21.7639719 100.6427890
  69.5701268  22.1149376 100.2555272  68.6861203  26.5138150 108.2093774
  68.0570066  26.6783865 107.5069842  68.2986865  26.9279760 108.9804738
  72.5650435  27.4492588 105.5638138  71.8801473  27.8291490 105.0135171
  72.6494284  28.0587915 106.2970086  64.2389165  26.2512558 105.4743860
  64.7027511  26.5300261 104.6848482  63.9745963  25.3496003 105.2916950
  63.1758051  22.3735711 102.2833425  63.8782094  22.8256755 102.7507351
  62.8438680  21.7319530 102.9113318  70.9347195  27.9724503 110.3355839
  71.7564638  27.5704690 110.0538521  70.9309598  27.8692737 111.2871955
  64.4151816  29.1876653 102.3595530  64.2797491  30.0328189 102.7880378
  64.9561628  29.3895931 101.5961464  57.8681213  26.7052092 102.9323455
  58.3805734  27.4995342 103.0829020  58.5203926  26.0078382 102.8657056
  59.6776098  29.8217848 105.0146208  59.8542726  30.7435812 104.8267192
  60.4732931  29.5076267 105.4440588  67.7294562  22.7015826  99.3966858
  67.2141185  23.4720431  99.6355246  67.4571870  22.0280963 100.0199920
  72.7028836  25.4548181 101.3320032  71.9258279  25.1159341 100.8875194
  73.3820317  25.4600804 100.6574997  67.5180865  20.5742919 101.2226640
  67.2131001  20.8889068 102.0736783  68.4711307  20.6524338 101.2653973
  65.9627297  26.7333142 102.8719594  65.4348659  25.9985901 102.5592831
  65.4614800  27.5107818 102.6259562  70.9420143  24.9282162 107.9886640
  70.2843818  25.6181424 108.0766769  71.7460542  25.3178594 108.3320626
  69.7525602  23.2826535 106.0390582  70.2657484  23.9156527 106.5412291
  70.4026826  22.6827731 105.6733942  61.0215612  19.4257269  99.2522090
  60.1852924  19.7631956  99.5731365  60.8820381  19.2906249  98.3149227
  64.1079897  24.5513352  95.8754567  63.2006959  24.3202606  96.0745716
  64.6050929  23.7550971  96.0628548  67.0147976  33.2610859  98.7951253
  66.3409675  33.5642556  99.4036211  67.4013798  34.0639940  98.4456710
  67.0141481  22.1567406 103.4151602  67.7613299  22.6688803 103.1058724
  67.2833070  21.8351459 104.2755996  65.2868131  24.6525947 100.3978557
  64.3779350  24.3684980 100.4951026  65.3163214  25.0725026  99.5381864
  70.5187398  28.2632537 104.1669724  70.0649725  27.4223446 104.2234915
  69.8881365  28.8993935 104.5044504  69.4620318  19.1924523 105.3970392
  68.7243074  18.6801909 105.7280634  69.7147091  18.7524904 104.5853669
  68.9620337  30.1009033 105.1019542  69.2543312  30.6614090 104.3831908
  69.4718958  30.3937594 105.8572702  64.9844218  26.1934691  97.7366635
  64.5463648  25.4770550  97.2772273  65.7254659  26.4210805  97.1751727
  63.9253963  30.8789384 106.1912996  63.8830141  31.1050231 105.2621528
  64.8416661  30.6452759 106.3398797  73.1017333  24.4691888 103.7942954
  72.9635232  24.6593484 102.8664143  72.7453552  25.2311271 104.2511005
  73.1286713  26.5368415 108.8054225  73.5623220  26.4443704 109.6537279
  73.8418294  26.5125915 108.1674241  62.0419763  27.7552413 105.9874958
  62.8360362  27.2602733 105.7857533  61.3311456  27.2270276 105.6242664
  66.8614608  30.1370509 110.3387326  66.9151630  30.7061445 111.1065042
  65.9929389  30.3072394 109.9741363  58.3502527  21.8995495 102.0634711
  57.4200115  21.8379951 102.2804673  58.4459999  21.3771448 101.2671352
  65.2139191  33.4290532 101.0098332  65.3890947  32.9578575 101.8243955
  64.5271979  34.0556298 101.2379593  66.1696254  27.7063038 107.0561633
  65.8346087  27.6663808 107.9519283  65.6700200  27.0407754 106.5832043
  69.1055446  25.0519072  97.3298693  68.4884617  24.3265900  97.2331746
  68.6371935  25.8128433  96.9865767  59.7800277  36.5779895 107.7838192
  60.0196875  37.2098419 108.4617211  58.9369473  36.2267935 108.0703551
  60.8953992  19.2704497  96.4519997  60.0183458  19.1493297  96.0882244
  61.3711745  18.4790575  96.1998886  64.2928138  32.3859017 110.1879696
  64.2198310  33.1913988 110.6999001  63.8505532  32.5850983 109.3627718
  64.0817918  31.6230787 103.6982518  63.2985440  32.1652467 103.7920742
  64.7810663  32.1404767 104.0976759  66.7526822  32.2845851 112.3437855
  67.4654794  32.9193316 112.2713756  66.2616851  32.3809717 111.5277857
  68.4744349  26.1897104 103.9155146  67.5400628  26.3098566 103.7459851
  68.6521017  25.2869570 103.6515156  71.8616900  22.0314423 104.4505181
  72.3277352  22.8642415 104.3765483  72.3124401  21.5659405 105.1550439
  69.9293131  28.3758244 101.4491333  70.2052975  28.2614839 102.3585207
  69.0597630  27.9775729 101.4103506  66.5647195  32.6244595 105.0924146
  66.7469590  31.8066251 105.5551899  67.3880181  32.8412287 104.6549036
  66.8989361  31.5512780 102.3539195  67.4277127  31.0405235 101.7409357
  67.1617580  31.2355310 103.2184728  60.2545109  32.6027897 105.1136971
  59.5855484  33.0874025 104.6301011  60.1157978  32.8497117 106.0280349
  64.3950377  34.6371640 111.7119629  64.9468685  34.8003262 112.4768714
  64.7356571  35.2276078 111.0399654  67.5318765  32.5853616 108.6983311
  67.4069904  31.7843356 108.1894257  68.1897856  33.0799809 108.2097281
  69.5953673  30.3862636 110.3262861  68.6484009  30.2667987 110.2541188
  69.9436446  29.4985134 110.4089123  66.6000106  30.1815352 106.5267214
  66.4525069  29.2532060 106.7074784  67.4253600  30.2035443 106.0424289
  70.2034228  31.0043911 107.6132086  71.1280776  30.7986772 107.4756537
  70.0349532  30.7560312 108.5221428  62.4530498  17.3308041 100.5840998
  63.1738860  17.7089294 100.0804715  61.8295802  18.0496918 100.6875976
  66.5961621  18.0353190 101.5199331  66.8125235  18.9177828 101.2188159
  66.1155688  17.6439403 100.7904973  69.9929544  31.5229578 102.9694178
  70.1666422  30.9576001 102.2168030  70.4858436  32.3230473 102.7873668
  75.8468936  24.2866001 104.5884477  76.2900082  23.5373327 104.1903601
  74.9695446  24.2776138 104.2058209  70.9804717  30.8396343 100.0691076
  71.6755621  31.4603036 100.2878391  71.3227867  29.9891694 100.3443454
  72.8796140  28.2896048 101.5978407  73.4047464  28.6283321 100.8727727
  72.7918493  27.3543064 101.4141541  64.5636801  34.3568032 105.9573660
  64.1241791  33.8644410 106.6506517  65.3144918  33.8140999 105.7165735
  57.0429140  30.5479572 105.9598288  57.8687160  30.2483344 105.5796932
  56.6923192  29.7787195 106.4088077  62.0110673  29.9006041 108.0295962
  61.3890682  29.2376746 107.7298189  62.6815540  29.9267173 107.3469609
  61.5724180  28.4509964 101.5054422  61.7212300  29.1345428 100.8521095
  62.3790623  28.4315054 102.0203878  75.3901800  25.7571240 106.9806925
  76.2248692  26.1961044 107.1444485  75.5260929  25.2809893 106.1615171
  59.3276813  24.4775142 102.5115491  59.0822855  23.5737472 102.7095701
  59.4972727  24.4792292 101.5694969  58.5972460  20.2103499 100.0101653
  57.9041705  20.2847854  99.3541689  58.3524212  19.4463843 100.5323169
  65.0719585  30.9458094  98.9766170  64.4993552  31.5648282  98.5236641
  65.6452379  31.4957456  99.5106092  68.2916845  31.2295245 100.1074752
  69.2247518  31.1640806 100.3107627  68.2040058  32.0651511  99.6489285
  70.9204862  30.5461115  97.0678699  70.8418493  30.2120979  97.9614457
  71.7414529  31.0382883  97.0670172  65.4566384  22.2818907  96.3182222
  66.4025489  22.1525115  96.3870640  65.0780629  21.5433569  96.7951650
  63.6409301  20.2068884  96.2537107  62.7340756  19.9101996  96.3299821
  63.9185282  19.9098702  95.3871394  62.4108086  17.0655819  96.3949087
  63.2727250  17.3910717  96.6544904  62.5958430  16.2787315  95.8822152
  70.5640722  15.9384345 103.5384310  69.9839391  16.5969149 103.1562362
  70.2976655  15.1161690 103.1271727  69.3465600  18.0984436 102.5940658
  68.4591455  18.3834086 102.3760853  69.7619589  17.9378199 101.7467935
  57.3549851  32.6792187 107.6812102  57.2204318  31.9192588 107.1150101
  56.9381913  33.4033087 107.2140891  68.4908814  27.8629110  96.6888678
  69.1944664  28.0679113  97.3046333  67.7671462  28.4305872  96.9537761
  69.3206624  23.6138972 102.8090948  69.2641825  24.0707523 101.9698580
  69.8734966  22.8529656 102.6313791  73.1311430  19.4028704 103.6341067
  72.8748364  19.0025339 104.4649275  72.5064298  20.1172497 103.5091207
  60.5118976  33.5761504 107.8930545  60.3951361  34.5206936 107.7909235
  59.6911423  33.2735065 108.2816344  70.3995511  28.3011640  98.7387138
  71.2341115  27.8692838  98.5564613  70.2379854  28.1293653  99.6664032
  70.0541403  24.8043753 100.1043477  69.9990207  24.6388024  99.1631921
  69.4287458  25.5119786 100.2605667  63.3637529  14.3051862  99.6828796
  63.3516198  15.2493702  99.8397066  64.2560950  14.1222007  99.3888257
  61.5373491  34.2289766 111.1086474  62.4400737  34.2613376 111.4252968
  61.3110861  33.2990217 111.1232809  63.2927093  32.9820752 107.7696552
  62.3422724  32.9822614 107.6560924  63.5959579  32.2353487 107.2532587
  79.0279786  38.8181291 108.8342315  79.6658196  38.6988038 108.1305655
  78.9100629  39.7662135 108.8930267  75.8369492  38.7708719 108.7703839
  75.4988004  38.6549783 107.8824374  76.7059261  38.3699884 108.7504845
  71.6956308  40.6244195 104.7600730  71.1321173  40.5334132 103.9917018
  71.5808703  39.8044100 105.2403223  76.3189275  39.9243571 114.7290045
  76.3077916  39.5296369 113.8570548  76.4809915  39.1909643 115.3223816
  69.2420740  42.1195387 107.5984951  70.0342032  41.7786211 107.1831250
  69.4817390  42.2290362 108.5187104  77.2755867  44.2915163 100.0715195
  76.6243846  44.8769243  99.6849209  78.0700230  44.8221358 100.1310233
  71.2011494  41.3804300 100.4702329  71.9742370  40.8333287 100.3315205
  71.5536893  42.2448549 100.6816791  73.0396536  42.7080682 113.6769229
  72.7486402  43.6126313 113.5615895  73.6753521  42.7497210 114.3913298
  73.9652743  40.0857531 110.2670588  74.5616316  39.8613553 109.5527551
  74.0227715  39.3442276 110.8696036  73.5377772  37.5396966  98.1020779
  73.7903292  37.0178487  97.3404242  72.6002331  37.3763112  98.2047463
  78.5821055  36.5432745 105.9095523  79.3684144  36.1252168 105.5585940
  78.8459759  37.4478837 106.0777171  78.7531132  41.9805595 100.6084179
  78.1176965  42.0540221 101.3205084  78.4228538  42.5699194  99.9303259
  83.9829482  36.4807978 106.8128501  84.7154654  35.9107195 107.0466331
  83.2268837  36.0929578 107.2535007  73.2574060  39.4425072 100.3045154
  73.1410319  38.7669976 100.9726239  73.3676320  38.9557446  99.4877307
  75.6005601  38.9035219 104.0091844  75.2363809  38.3765840 104.7204765
  76.4572717  38.5133688 103.8358329  75.2411088  33.9325119  99.0053192
  75.4085491  34.8005355  99.3723663  75.0508257  34.0952401  98.0814481
  77.9986422  42.3942098 110.6719022  77.6987145  43.2967137 110.5634830
  77.6537481  42.1274281 111.5240175  71.4498903  38.8455895 106.7055727
  70.5249399  38.7132109 106.9133419  71.6983316  39.6250114 107.2025669
  81.3983565  34.9124638 108.3516460  80.4900443  34.8440046 108.0575221
  81.3471161  35.3896583 109.1798285  75.2200309  36.3882776  99.9899859
  75.0999934  36.8339827 100.8285339  74.5252898  36.7368094  99.4313397
  68.8107714  38.4889168 107.5399516  68.9400095  38.7423647 108.4538928
  68.1305165  39.0816876 107.2204171  72.9807201  49.1586418 103.6389990
  72.9031231  50.1094243 103.7178471  72.3768845  48.8132291 104.2964916
  80.9185375  36.8604250 100.8180193  81.8303232  37.0931636 100.6427890
  80.4095022  37.4441294 100.2555272  73.7270803  39.1399737 115.8569324
  74.4685488  39.6784781 115.5804148  73.0207789  39.7666026 116.0140876
  79.2026143  41.2828877 114.4541486  79.6109499  40.8411288 113.7096118
  78.4803405  40.7081505 114.7075678  75.5557213  36.2201484 111.8275042
  76.4018408  36.6440898 111.9709691  75.4955851  35.5635109 112.5213606
  79.5254958  41.8430068 108.2093774  78.8963820  42.0075782 107.5069842
  79.1380620  42.2571678 108.9804738  83.4044190  42.7784506 105.5638138
  82.7195228  43.1583407 105.0135171  83.4888039  43.3879833 106.2970086
  80.6595121  40.4244465 112.1633482  80.8712016  41.0676225 111.4867863
  80.6124869  39.5906781 111.6955412  78.2621350  33.0362286 109.0670054
  77.4005829  33.3343539 109.3586791  78.2883785  33.2532684 108.1351086
  75.0782920  41.5804476 105.4743860  75.5421265  41.8592179 104.6848482
  74.8139718  40.6787921 105.2916950  71.9707001  41.1275958 108.4123623
  72.5408358  41.5563226 107.7741107  72.5615112  40.8458542 109.1107808
  74.0151806  37.7027629 102.2833425  74.7175849  38.1548672 102.7507351
  73.6832434  37.0611447 102.9113318  72.4632167  36.2939385 116.6584634
  71.8330828  36.9755666 116.8920031  72.3568255  36.1822467 115.7137772
  67.7577140  35.9611181 107.5850558  66.9676194  36.2168710 107.1090669
  68.2488387  36.7759519 107.6902599  81.7740949  43.3016420 110.3355839
  82.5958393  42.8996608 110.0538521  81.7703352  43.1984655 111.2871955
  69.7091885  36.3255760 104.5434035  68.9123048  36.4374455 105.0617531
  69.4817477  36.6642413 103.6774925  75.5397553  42.8500464 112.4916550
  75.6041985  43.3120871 113.3274721  74.8308476  42.2197829 112.6198859
  66.0414843  36.2141672 110.0165549  66.2922881  37.0988682 110.2823125
  66.5774391  36.0346273 109.2440641  75.2545570  44.5168571 102.3595530
  75.1191245  45.3620107 102.7880378  75.7955383  44.7187849 101.5961464
  68.7074968  42.0344009 102.9323455  69.2199488  42.8287259 103.0829020
  69.3597680  41.3370300 102.8657056  70.5169852  45.1509765 105.0146208
  70.6936481  46.0727730 104.8267192  71.3126686  44.8368185 105.4440588
  69.8022209  37.1974397 114.8908371  69.6875724  36.2959655 115.1915470
  68.9466727  37.4438094 114.5393188  76.8814047  45.1392138 116.4895872
  76.4377901  44.3528516 116.1716776  77.5431260  45.3271288 115.8239763
  71.6401168  46.6687939 111.0156550  72.1908593  46.5405003 110.2433544
  70.8012644  46.9682828 110.6651443  78.9795285  45.4194938 114.5177273
  78.9613760  46.2403819 114.0257542  79.9015205  45.2949013 114.7427414
  75.4368339  42.9339067 115.3600782  75.9696676  42.1727355 115.1300090
  74.9082420  42.6412719 116.1024936  66.6723884  40.3632663 103.7083025
  67.5099106  40.7729672 103.4916733  66.8502152  39.4232106 103.6783219
  78.5688317  38.0307744  99.3966858  78.0534940  38.8012349  99.6355246
  78.2965625  37.3572880 100.0199920  76.1535428  32.8757445 104.4552097
  75.2977024  32.4864295 104.2757736  76.5662379  32.9549406 103.5951882
  77.6834574  30.4103788 108.8543657  77.1799370  30.3733923 108.0411462
  77.9765181  31.3196531 108.9140313  73.9277460  30.4942518 107.8609838
  74.7930457  30.2985327 107.5015728  73.9954969  30.2652870 108.7879195
  83.5422591  40.7840099 101.3320032  82.7652033  40.4451258 100.8875194
  84.2214072  40.7892722 100.6574997  78.3574620  35.9034836 101.2226640
  78.0524755  36.2180985 102.0736783  79.3105062  35.9816256 101.2653973
  76.8021052  42.0625060 102.8719594  76.2742413  41.3277819 102.5592831
  76.3008554  42.8399736 102.6259562  81.7813898  40.2574080 107.9886640
  81.1237572  40.9473341 108.0766769  82.5854297  40.6470512 108.3320626
  71.5339779  32.7244726 105.2326205  72.1083531  32.5019907 104.4999398
  72.1210762  32.7933420 105.9854806  80.5919356  38.6118453 106.0390582
  81.1051238  39.2448445 106.5412291  81.2420580  38.0119648 105.6733942
  71.8609366  34.7549187  99.2522090  71.0246679  35.0923873  99.5731365
  71.7214136  34.6198167  98.3149227  73.8362447  29.5985975 103.9601275
  73.1826859  29.2834992 103.3357889  73.7942921  28.9761715 104.6861097
  74.9473652  39.8805270  95.8754567  74.0400713  39.6494523  96.0745716
  75.4444684  39.0842889  96.0628548  77.8541731  48.5902777  98.7951253
  77.1803429  48.8934474  99.4036211  78.2407553  49.3931857  98.4456710
  77.0700187  36.0867908 108.2848922  76.1522749  36.3082855 108.1270610
  77.4860331  36.1614219 107.4260630  77.8535235  37.4859324 103.4151602
  78.6007054  37.9980721 103.1058724  78.1226825  37.1643377 104.2755996
  76.1261885  39.9817865 100.3978557  75.2173104  39.6976897 100.4951026
  76.1556969  40.4016943  99.5381864  81.3581153  43.5924454 104.1669724
  80.9043480  42.7515364 104.2234915  80.7275119  44.2285853 104.5044504
  80.3014072  34.5216440 105.3970392  79.5636829  34.0093826 105.7280634
  80.5540846  34.0816822 104.5853669  79.8014092  45.4300951 105.1019542
  80.0937066  45.9906008 104.3831908  80.3112712  45.7229512 105.8572702
  66.6950056  37.7023379 104.3793759  66.4974455  37.1092740 103.6544826
  66.1396720  37.3975589 105.0969698  74.6746779  37.5946485 106.4988352
  74.7295389  36.6420322 106.4230829  73.8637981  37.7505924 106.9829650
  75.8237973  41.5226608  97.7366635  75.3857403  40.8062467  97.2772273
  76.5648414  41.7502723  97.1751727  72.6139139  36.2123545 104.2578731
  71.8007005  36.5117716 104.6643923  73.1098133  35.8179234 104.9753213
  74.7647717  46.2081302 106.1912996  74.7223896  46.4342148 105.2621528
  75.6810416  45.9744677 106.3398797  83.9411088  39.7983805 103.7942954
  83.8028986  39.9885401 102.8664143  83.5847307  40.5603188 104.2511005
  72.1053214  33.7841901 109.8739966  72.7452593  33.6430660 109.1762929
  71.2730744  33.4976414 109.4978568  83.9680467  41.8660332 108.8054225
  84.4016974  41.7735621 109.6537279  84.6812048  41.8417833 108.1674241
  72.8813518  43.0844331 105.9874958  73.6754116  42.5894651 105.7857533
  72.1705210  42.5562194 105.6242664  77.7008362  45.4662427 110.3387326
  77.7545385  46.0353363 111.1065042  76.8323144  45.6364312 109.9741363
  69.1896281  37.2287413 102.0634711  68.2593869  37.1671868 102.2804673
  69.2853753  36.7063365 101.2671352  69.1081830  33.7542226 104.6512953
  69.3688648  34.6687559 104.5422113  69.9299003  33.2866668 104.8009566
  70.5806756  35.1679983 111.8211777  71.2529809  34.9597345 111.1724426
  69.7536542  34.9702069 111.3817010  76.6596462  39.6322689 111.8974258
  77.5888522  39.7833848 111.7243225  76.2387492  39.7206709 111.0422904
  75.4584794  43.6573353 109.6672795  75.3195879  43.2892137 110.5398734
  74.6699390  44.1720992 109.4956753  76.0532946  48.7582449 101.0098332
  76.2284701  48.2870493 101.8243955  75.3665734  49.3848216 101.2379593
  77.0090009  43.0354956 107.0561633  76.6739842  42.9955726 107.9519283
  76.5093955  42.3699672 106.5832043  70.9834253  38.4422586 112.5814214
  70.8454051  37.7102825 113.1825753  71.8939176  38.3531486 112.2998402
  79.9449201  40.3810990  97.3298693  79.3278371  39.6557818  97.2331746
  79.4765689  41.1420350  96.9865767  73.6116554  38.1542545 112.0697894
  74.3216172  37.5135737 112.0284512  73.5685862  38.4055440 112.9924075
  72.3245488  35.1407763 113.8893534  71.7882845  34.6898501 114.5415130
  71.7362196  35.2753672 113.1463998  70.6194031  51.9071812 107.7838192
  70.8590629  52.5390336 108.4617211  69.7763228  51.5559852 108.0703551
  71.7347747  34.5996414  96.4519997  70.8577213  34.4785215  96.0882244
  72.2105500  33.8082493  96.1998886  63.2549887  39.3873574 106.5461504
  63.9420926  39.0735304 105.9582520  63.0998015  40.2914939 106.2728756
  68.0584609  34.2763771 110.9746528  67.9742798  33.6689440 110.2396938
  67.2367315  34.7672789 110.9756024  75.1321893  47.7150935 110.1879696
  75.0592064  48.5205906 110.6999001  74.6899286  47.9142900 109.3627718
  74.9211673  46.9522705 103.6982518  74.1379194  47.4944385 103.7920742
  75.6204418  47.4696684 104.0976759  78.2308323  32.7617334 106.3416723
  78.7277022  32.0087296 106.0217793  77.4595304  32.7981651 105.7759932
  77.5920576  47.6137769 112.3437855  78.3048549  48.2485233 112.2713756
  77.1010605  47.7101635 111.5277857  79.3138103  41.5189021 103.9155146
  78.3794382  41.6390484 103.7459851  79.4914772  40.6161488 103.6515156
  74.8143291  34.9034717 106.0688408  74.4441079  34.3505757 106.7569313
  75.3102384  34.2992851 105.5163408  82.7010655  37.3606341 104.4505181
  83.1671107  38.1934332 104.3765483  83.1518155  36.8951322 105.1550439
  72.6432490  45.3632212 113.1643426  73.3441949  45.9968695 113.3172820
  72.1727605  45.7046944 112.4039065  80.7686886  43.7050162 101.4491333
  81.0446730  43.5906756 102.3585207  79.8991385  43.3067647 101.4103506
  80.4433776  37.9176820 110.9895976  79.7905226  38.1652727 110.3348429
  80.8214156  37.1040958 110.6558453  77.4040950  47.9536513 105.0924146
  77.5863344  47.1358169 105.5551899  78.2273936  48.1704205 104.6549036
  77.7383115  46.8804698 102.3539195  78.2670882  46.3697152 101.7409357
  78.0011335  46.5647228 103.2184728  68.2400208  44.8968567 110.0974528
  68.8253645  44.1512255 110.2302432  68.0425046  45.2072524 110.9811192
  71.0938863  47.9319815 105.1136971  70.4249239  48.4165942 104.6301011
  70.9551733  48.1789035 106.0280349  62.8317863  37.4674167 108.8178971
  62.8701962  36.9337758 109.6116090  62.3258156  36.9409373 108.1989949
  75.2344132  49.9663558 111.7119629  75.7862440  50.1295180 112.4768714
  75.5750325  50.5567996 111.0399654  70.2108625  32.3138708 112.3141514
  70.2749952  33.1753539 111.9018911  70.1475745  31.7012710 111.5813872
  66.4626440  36.1938270 101.8932903  66.7579881  35.2848948 101.8399957
  65.5614476  36.1726009 101.5713905  78.3712519  47.9145534 108.6983311
  78.2463659  47.1135273 108.1894257  79.0291610  48.4091727 108.2097281
  69.9920687  34.2694266 107.8760451  69.2707273  34.8830234 107.7367925
  70.7813943  34.8052031 107.7977097  80.4347428  45.7154554 110.3262861
  79.4877763  45.5959905 110.2541188  80.7830201  44.8277052 110.4089123
  68.1914282  33.8752367 102.0172228  67.8626988  32.9949746 101.8347334
  68.5453653  33.8200036 102.9048617  77.4393861  45.5107270 106.5267214
  77.2918823  44.5823977 106.7074784  78.2647354  45.5327361 106.0424289
  71.3056105  34.1625337 102.3847706  71.6452178  34.6911258 101.6626314
  71.7528226  34.5005743 103.1606272  81.0427983  46.3335829 107.6132086
  81.9674530  46.1278690 107.4756537  80.8743286  46.0852230 108.5221428
  73.9999546  32.5462388 111.8350774  73.6596366  31.7470201 112.2371454
  73.2938552  32.8464099 111.2627607  74.6516018  29.6311700 110.2878097
  75.4742087  29.1572178 110.1656987  74.8954081  30.4102184 110.7876783
  73.2924252  32.6599959 100.5840998  74.0132615  33.0381211 100.0804715
  72.6689556  33.3788835 100.6875976  77.4355375  33.3645108 101.5199331
  77.6518990  34.2469745 101.2188159  76.9549442  32.9731321 100.7904973
  72.1754596  36.3230821 108.0970075  72.0299177  36.6371124 108.9894357
  71.6979800  36.9415721 107.5440974  74.0350979  33.3133369 108.1450965
  74.0212548  32.4174462 107.8083263  74.7523407  33.3204033 108.7789251
  75.8877110  33.7470709 110.1904092  75.6294888  34.6687780 110.1888423
  75.3562150  33.3501144 110.8804556  80.8323299  46.8521496 102.9694178
  81.0060176  46.2867919 102.2168030  81.3252190  47.6522391 102.7873668
  66.6500259  38.8636165 111.0357737  66.1053727  39.6395973 111.1678011
  67.5279609  39.2106970 110.8776858  73.4387875  32.1947749 103.4138535
  73.5603787  31.2664395 103.6129423  73.1489918  32.2086435 102.5016850
  76.3079066  29.8802659 106.5505255  76.3300763  29.9441993 105.5957234
  76.7247125  29.0407168 106.7445761  86.6862690  39.6157919 104.5884477
  87.1293836  38.8665244 104.1903601  85.8089200  39.6068055 104.2058209
  81.8198471  46.1688261 100.0691076  82.5149376  46.7894953 100.2878391
  82.1621621  45.3183612 100.3443454  67.4366281  37.9906061 113.9287893
  66.6948017  38.1388697 114.5152524  67.1159025  38.2514327 113.0654643
  83.7189894  43.6187966 101.5978407  84.2441219  43.9575239 100.8727727
  83.6312247  42.6834981 101.4141541  75.3809943  47.5322040 113.7268283
  75.6897070  47.2871186 114.5990983  76.1785425  47.7368678 113.2387154
  75.4030555  49.6859949 105.9573660  74.9635546  49.1936328 106.6506517
  76.1538672  49.1432917 105.7165735  67.8822894  45.8771490 105.9598288
  68.7080914  45.5775262 105.5796932  67.5316946  45.1079113 106.4088077
  72.8504427  45.2297958 108.0295962  72.2284437  44.5668663 107.7298189
  73.5209294  45.2559090 107.3469609  66.0831499  43.7957817 106.9187222
  65.2463408  43.3679991 106.7371223  66.0555145  43.9890260 107.8558013
  72.4117934  43.7801882 101.5054422  72.5606055  44.4637346 100.8521095
  73.2184378  43.7606972 102.0203878  86.2295555  41.0863157 106.9806925
  87.0642446  41.5252961 107.1444485  86.3654684  40.6101811 106.1615171
  70.1670567  39.8067059 102.5115491  69.9216609  38.9029389 102.7095701
  70.3366482  39.8084210 101.5694969  69.4366215  35.5395417 100.0101653
  68.7435460  35.6139772  99.3541689  69.1917967  34.7755761 100.5323169
  75.9113340  46.2750012  98.9766170  75.3387307  46.8940199  98.5236641
  76.4846133  46.8249374  99.5106092  79.1310600  46.5587162 100.1074752
  80.0641273  46.4932724 100.3107627  79.0433812  47.3943429  99.6489285
  81.7598616  45.8753033  97.0678699  81.6812248  45.5412896  97.9614457
  82.5808283  46.3674801  97.0670172  76.2960138  37.6110825  96.3182222
  77.2419243  37.4817033  96.3870640  75.9174383  36.8725487  96.7951650
  74.4803055  35.5360801  96.2537107  73.5734511  35.2393914  96.3299821
  74.7579036  35.2390619  95.3871394  65.3980996  36.8567165 106.7036154
  65.0783780  36.0032473 106.4110528  64.8514424  37.0715743 107.4594121
  69.1760903  39.5729606 110.4205660  69.3946913  40.5046714 110.4393694
  69.5886677  39.2137580 111.2060464  76.0965121  30.0797691 102.4081349
  75.2865849  29.7344776 102.7836595  76.7849538  29.7705235 102.9968960
  78.0255669  29.1575738 104.0305645  78.5786708  29.5771191 104.6895668
  78.2625756  28.2311486 104.0728601  73.2501840  32.3947737  96.3949087
  74.1121004  32.7202635  96.6544904  73.4352184  31.6079232  95.8822152
  65.2669256  40.4770076 108.6729275  64.5732727  40.0624029 108.1599230
  66.0142247  40.5190613 108.0762694  81.4034477  31.2676263 103.5384310
  80.8233146  31.9261067 103.1562362  81.1370409  30.4453608 103.1271727
  79.8538043  30.6681321 105.7405630  80.3537821  30.7797855 104.9319949
  80.4973651  30.3642374 106.3806438  67.1805998  40.4088330 106.5495290
  67.1576686  40.5076017 105.5977173  67.4906635  41.2553481 106.8712456
  69.8393376  42.4664485 110.6641905  70.7936630  42.4348427 110.5971836
  69.6405900  42.0055109 111.4792131  70.4292758  41.0365601 113.2312702
  71.2485647  41.5309680 113.2547540  70.7029566  40.1197569 113.2030270
  80.1859355  33.4276353 102.5940658  79.2985210  33.7126004 102.3760853
  80.6013344  33.2670117 101.7467935  68.1943605  48.0084105 107.6812102
  68.0598073  47.2484505 107.1150101  67.7775667  48.7325004 107.2140891
  79.3302568  43.1921028  96.6888678  80.0338418  43.3971031  97.3046333
  78.6065217  43.7597790  96.9537761  80.1600378  38.9430889 102.8090948
  80.1035580  39.3999441 101.9698580  80.7128721  38.1821574 102.6313791
  83.9705184  34.7320621 103.6341067  83.7142118  34.3317257 104.4649275
  83.3458052  35.4464415 103.5091207  71.3512731  48.9053422 107.8930545
  71.2345115  49.8498854 107.7909235  70.5305177  48.6026983 108.2816344
  81.2389265  43.6303557  98.7387138  82.0734869  43.1984756  98.5564613
  81.0773608  43.4585571  99.6664032  80.8935158  40.1335671 100.1043477
  80.8383961  39.9679942  99.1631921  80.2681213  40.8411703 100.2605667
  74.2031283  29.6343780  99.6828796  74.1909953  30.5785619  99.8397066
  75.0954705  29.4513925  99.3888257  72.3767245  49.5581683 111.1086474
  73.2794492  49.5905294 111.4252968  72.1504615  48.6282134 111.1232809
  74.1320847  48.3112670 107.7696552  73.1816478  48.3114532 107.6560924
  74.4353333  47.5645405 107.2532587  78.0183403  26.2286556 103.9374732
  77.2515798  25.6745043 104.0831415  78.4294108  26.3008425 104.7988884
  82.5350063  55.9536113 104.7600730  81.9714928  55.8626050 103.9917018
  82.4202458  55.1336017 105.2403223  88.1149621  59.6207081 100.0715195
  87.4637601  60.2061161  99.6849209  88.9093984  60.1513275 100.1310233
  82.0405248  56.7096218 100.4702329  82.8136124  56.1625205 100.3315205
  82.3930647  57.5740467 100.6816791  84.3771526  52.8688884  98.1020779
  84.6297047  52.3470405  97.3404242  83.4396085  52.7055029  98.2047463
  89.4214809  51.8724662 105.9095523  90.2077898  51.4544085 105.5585940
  89.6853513  52.7770754 106.0777171  89.5924886  57.3097513 100.6084179
  88.9570719  57.3832139 101.3205084  89.2622293  57.8991111  99.9303259
  84.0967815  54.7716990 100.3045154  83.9804073  54.0961893 100.9726239
  84.2070075  54.2849364  99.4877307  86.4399356  54.2327137 104.0091844
  86.0757563  53.7057758 104.7204765  87.2966472  53.8425606 103.8358329
  86.0804843  49.2617037  99.0053192  86.2479245  50.1297273  99.3723663
  85.8902012  49.4244318  98.0814481  82.2892657  54.1747812 106.7055727
  81.3643154  54.0424026 106.9133419  82.5377071  54.9542032 107.2025669
  86.0594064  51.7174694  99.9899859  85.9393689  52.1631745 100.8285339
  85.3646652  52.0660012  99.4313397  79.6501469  53.8181086 107.5399516
  79.7793850  54.0715565 108.4538928  78.9698920  54.4108794 107.2204171
  91.7579130  52.1896167 100.8180193  92.6696986  52.4223554 100.6427890
  91.2488777  52.7733212 100.2555272  89.1015105  48.3654203 109.0670054
  88.2399584  48.6635457 109.3586791  89.1277539  48.5824602 108.1351086
  85.9176674  56.9096394 105.4743860  86.3815020  57.1884097 104.6848482
  85.6533472  56.0079838 105.2916950  84.8545560  53.0319546 102.2833425
  85.5569603  53.4840590 102.7507351  84.5226189  52.3903365 102.9113318
  78.5970894  51.2903099 107.5850558  77.8069948  51.5460627 107.1090669
  79.0882141  52.1051437 107.6902599  80.5485639  51.6547678 104.5434035
  79.7516803  51.7666372 105.0617531  80.3211232  51.9934330 103.6774925
  76.8808597  51.5433589 110.0165549  77.1316635  52.4280599 110.2823125
  77.4168145  51.3638191 109.2440641  86.0939325  59.8460489 102.3595530
  85.9585000  60.6912025 102.7880378  86.6349137  60.0479766 101.5961464
  79.5468722  57.3635927 102.9323455  80.0593243  58.1579177 103.0829020
  80.1991435  56.6662217 102.8657056  81.3563607  60.4801683 105.0146208
  81.5330235  61.4019648 104.8267192  82.1520440  60.1660102 105.4440588
  77.5117639  55.6924581 103.7083025  78.3492861  56.1021590 103.4916733
  77.6895907  54.7524023 103.6783219  89.4082071  53.3599662  99.3966858
  88.8928694  54.1304266  99.6355246  89.1359379  52.6864798 100.0199920
  86.9929182  48.2049363 104.4552097  86.1370778  47.8156213 104.2757736
  87.4056134  48.2841323 103.5951882  88.5228329  45.7395706 108.8543657
  88.0193124  45.7025841 108.0411462  88.8158936  46.6488449 108.9140313
  84.7671215  45.8234436 107.8609838  85.6324211  45.6277244 107.5015728
  84.8348723  45.5944787 108.7879195  94.3816345  56.1132016 101.3320032
  93.6045788  55.7743176 100.8875194  95.0607826  56.1184640 100.6574997
  89.1968374  51.2326754 101.2226640  88.8918510  51.5472903 102.0736783
  90.1498816  51.3108174 101.2653973  87.6414806  57.3916977 102.8719594
  87.1136168  56.6569737 102.5592831  87.1402309  58.1691654 102.6259562
  82.3733534  48.0536644 105.2326205  82.9477286  47.8311825 104.4999398
  82.9604516  48.1225338 105.9854806  82.7003121  50.0841105  99.2522090
  81.8640433  50.4215791  99.5731365  82.5607890  49.9490084  98.3149227
  84.6756201  44.9277892 103.9601275  84.0220614  44.6126910 103.3357889
  84.6336676  44.3053633 104.6861097  85.7867406  55.2097187  95.8754567
  84.8794468  54.9786441  96.0745716  86.2838438  54.4134807  96.0628548
  88.6935485  63.9194695  98.7951253  88.0197184  64.2226391  99.4036211
  89.0801307  64.7223775  98.4456710  87.9093942  51.4159826 108.2848922
  86.9916503  51.6374773 108.1270610  88.3254085  51.4906136 107.4260630
  88.6928989  52.8151242 103.4151602  89.4400808  53.3272639 103.1058724
  88.9620579  52.4935294 104.2755996  86.9655640  55.3109782 100.3978557
  86.0566859  55.0268815 100.4951026  86.9950723  55.7308861  99.5381864
  91.1407827  49.8508358 105.3970392  90.4030583  49.3385744 105.7280634
  91.3934600  49.4108739 104.5853669  77.5343810  53.0315296 104.3793759
  77.3368210  52.4384657 103.6544826  76.9790474  52.7267507 105.0969698
  85.5140534  52.9238403 106.4988352  85.5689143  51.9712239 106.4230829
  84.7031736  53.0797842 106.9829650  86.6631727  56.8518526  97.7366635
  86.2251157  56.1354385  97.2772273  87.4042168  57.0794641  97.1751727
  83.4532894  51.5415463 104.2578731  82.6400759  51.8409633 104.6643923
  83.9491888  51.1471151 104.9753213  82.9446968  49.1133818 109.8739966
  83.5846348  48.9722577 109.1762929  82.1124499  48.8268332 109.4978568
  83.7207272  58.4136249 105.9874958  84.5147871  57.9186569 105.7857533
  83.0098965  57.8854112 105.6242664  80.0290036  52.5579330 102.0634711
  79.0987624  52.4963786 102.2804673  80.1247508  52.0355283 101.2671352
  79.9475585  49.0834143 104.6512953  80.2082402  49.9979476 104.5422113
  80.7692757  48.6158586 104.8009566  90.7842955  55.7102908  97.3298693
  90.1672126  54.9849736  97.2331746  90.3159444  56.4712268  96.9865767
  82.5741501  49.9288332  96.4519997  81.6970967  49.8077133  96.0882244
  83.0499254  49.1374410  96.1998886  74.0943641  54.7165492 106.5461504
  74.7814681  54.4027222 105.9582520  73.9391770  55.6206856 106.2728756
  78.8978363  49.6055688 110.9746528  78.8136552  48.9981358 110.2396938
  78.0761070  50.0964707 110.9756024  89.0702077  48.0909252 106.3416723
  89.5670777  47.3379214 106.0217793  88.2989059  48.1273568 105.7759932
  90.1531858  56.8480939 103.9155146  89.2188137  56.9682401 103.7459851
  90.3308526  55.9453406 103.6515156  85.6537046  50.2326635 106.0688408
  85.2834833  49.6797675 106.7569313  86.1496138  49.6284768 105.5163408
  93.5404409  52.6898258 104.4505181  94.0064861  53.5226250 104.3765483
  93.9911910  52.2243240 105.1550439  91.6080640  59.0342080 101.4491333
  91.8840484  58.9198674 102.3585207  90.7385139  58.6359564 101.4103506
  73.6711617  52.7966085 108.8178971  73.7095717  52.2629676 109.6116090
  73.1651910  52.2701291 108.1989949  81.0502380  47.6430626 112.3141514
  81.1143706  48.5045456 111.9018911  80.9869500  47.0304627 111.5813872
  77.3020195  51.5230187 101.8932903  77.5973636  50.6140866 101.8399957
  76.4008231  51.5017927 101.5713905  80.8314442  49.5986184 107.8760451
  80.1101028  50.2122152 107.7367925  81.6207698  50.1343949 107.7977097
  79.0308036  49.2044285 102.0172228  78.7020743  48.3241664 101.8347334
  79.3847407  49.1491954 102.9048617  82.1449860  49.4917255 102.3847706
  82.4845932  50.0203176 101.6626314  82.5921980  49.8297661 103.1606272
  85.4909772  44.9603618 110.2878097  86.3135842  44.4864096 110.1656987
  85.7347836  45.7394102 110.7876783  84.1318007  47.9891876 100.5840998
  84.8526369  48.3673129 100.0804715  83.5083311  48.7080753 100.6875976
  88.2749130  48.6937025 101.5199331  88.4912744  49.5761663 101.2188159
  87.7943197  48.3023239 100.7904973  83.0148351  51.6522738 108.0970075
  82.8692932  51.9663042 108.9894357  82.5373555  52.2707639 107.5440974
  84.8744734  48.6425286 108.1450965  84.8606303  47.7466380 107.8083263
  85.5917162  48.6495950 108.7789251  84.2781630  47.5239667 103.4138535
  84.3997541  46.5956313 103.6129423  83.9883672  47.5378353 102.5016850
  87.1472820  45.2094577 106.5505255  87.1694517  45.2733910 105.5957234
  87.5640879  44.3699086 106.7445761  78.7216649  61.2063408 105.9598288
  79.5474669  60.9067180 105.5796932  78.3710701  60.4371030 106.4088077
  76.9225254  59.1249734 106.9187222  76.0857162  58.6971909 106.7371223
  76.8948899  59.3182178 107.8558013  83.2511689  59.1093799 101.5054422
  83.3999809  59.7929264 100.8521095  84.0578132  59.0898889 102.0203878
  81.0064322  55.1358977 102.5115491  80.7610364  54.2321307 102.7095701
  81.1760236  55.1376127 101.5694969  80.2759969  50.8687335 100.0101653
  79.5829214  50.9431690  99.3541689  80.0311721  50.1047678 100.5323169
  86.7507094  61.6041930  98.9766170  86.1781061  62.2232117  98.5236641
  87.3239888  62.1541292  99.5106092  89.9704354  61.8879080 100.1074752
  90.9035027  61.8224642 100.3107627  89.8827567  62.7235347  99.6489285
  92.5992371  61.2044950  97.0678699  92.5206002  60.8704814  97.9614457
  93.4202038  61.6966718  97.0670172  87.1353893  52.9402743  96.3182222
  88.0812998  52.8108951  96.3870640  86.7568138  52.2017405  96.7951650
  85.3196810  50.8652719  96.2537107  84.4128265  50.5685832  96.3299821
  85.5972791  50.5682537  95.3871394  76.2374750  52.1859082 106.7036154
  75.9177535  51.3324391 106.4110528  75.6908179  52.4007661 107.4594121
  86.9358876  45.4089609 102.4081349  86.1259604  45.0636694 102.7836595
  87.6243293  45.0997152 102.9968960  88.8649424  44.4867656 104.0305645
  89.4180463  44.9063109 104.6895668  89.1019510  43.5603404 104.0728601
  84.0895595  47.7239654  96.3949087  84.9514759  48.0494553  96.6544904
  84.2745939  46.9371150  95.8822152  76.1063010  55.8061994 108.6729275
  75.4126482  55.3915947 108.1599230  76.8536001  55.8482530 108.0762694
  92.2428231  46.5968181 103.5384310  91.6626900  47.2552985 103.1562362
  91.9764164  45.7745525 103.1271727  90.6931797  45.9973238 105.7405630
  91.1931576  46.1089773 104.9319949  91.3367405  45.6934291 106.3806438
  78.0199753  55.7380248 106.5495290  77.9970441  55.8367935 105.5977173
  78.3300389  56.5845398 106.8712456  91.0253109  48.7568271 102.5940658
  90.1378964  49.0417922 102.3760853  91.4407098  48.5962034 101.7467935
  90.1696323  58.5212946  96.6888678  90.8732173  58.7262948  97.3046333
  89.4458971  59.0889708  96.9537761  90.9994133  54.2722807 102.8090948
  90.9429334  54.7291358 101.9698580  91.5522475  53.5113492 102.6313791
  94.8098939  50.0612539 103.6341067  94.5535873  49.6609175 104.4649275
  94.1851807  50.7756333 103.5091207  92.0783020  58.9595475  98.7387138
  92.9128624  58.5276673  98.5564613  91.9167363  58.7877489  99.6664032
  91.7328912  55.4627588 100.1043477  91.6777716  55.2971860  99.1631921
  91.1074967  56.1703621 100.2605667  85.0425038  44.9635697  99.6828796
  85.0303707  45.9077537  99.8397066  85.9348459  44.7805843  99.3888257
  88.8577157  41.5578474 103.9374732  88.0909553  41.0036961 104.0831415
  89.2687862  41.6300343 104.7988884  93.4135255  65.2580250  96.4519997
  92.5364722  65.1369050  96.0882244  93.8893009  64.4666328  96.1998886
  96.1590564  66.1944637  96.2537107  95.2522020  65.8977749  96.3299821
  96.4366545  65.8974455  95.3871394  94.9289349  63.0531572  96.3949087
  95.7908513  63.3786470  96.6544904  95.1139693  62.2663068  95.8822152
  60.8562555   2.3014400  91.4846037  60.2927420   2.2104337  90.7162325
  60.7414950   1.4814305  91.9648529  66.4362114   5.9685368  86.7960502
  65.7850093   6.5539448  86.4094516  67.2306476   6.4991563  86.8555539
  60.3617741   3.0574505  87.1947636  61.1348617   2.5103492  87.0560512
  60.7143140   3.9218754  87.4062097  67.9137379   3.6575800  87.3329486
  67.2783212   3.7310426  88.0450391  67.5834785   4.2469399  86.6548565
  62.4180307   1.1195277  87.0290461  62.3016565   0.4440180  87.6971545
  62.5282567   0.6327651  86.2122614  62.1413448  10.8356623  90.3635297
  62.0637478  11.7864448  90.4423777  61.5375092  10.4902496  91.0210223
  68.6861204   3.5200273  94.9339081  68.0570067   3.6845987  94.2315149
  68.2986867   3.9341883  95.7050045  72.5650436   4.4554711  92.2883445
  71.8801475   4.8353612  91.7380478  72.6494286   5.0650037  93.0215393
  64.2389166   3.2574681  92.1989166  64.7027512   3.5362384  91.4093789
  63.9745964   2.3558126  92.0162257  70.9347196   4.9786625  97.0601146
  71.7564640   4.5766813  96.7783827  70.9309599   4.8754859  98.0117261
  64.4151817   6.1938776  89.0840836  64.2797492   7.0390312  89.5125684
  64.9561630   6.3958054  88.3206770  57.8681214   3.7114214  89.6568762
  58.3805735   4.5057464  89.8074326  58.5203927   3.0140505  89.5902363
  59.6776099   6.8279970  91.7391515  59.8542727   7.7497935  91.5512499
  60.4732933   6.5138390  92.1685895  65.9627298   3.7395264  89.5964900
  65.4348660   3.0048024  89.2838138  65.4614801   4.5169941  89.3504869
  64.1079899   1.5575475  82.5999873  63.2006960   1.3264728  82.7991022
  64.6050930   0.7613094  82.7873855  67.0147977  10.2672982  85.5196559
  66.3409676  10.5704679  86.1281517  67.4013799  11.0702062  85.1702016
  65.2868132   1.6588070  87.1223863  64.3779351   1.3747102  87.2196333
  65.3163216   2.0787148  86.2627170  70.5187399   5.2694659  90.8915031
  70.0649726   4.4285569  90.9480221  69.8881366   5.9056057  91.2289811
  68.9620339   7.1071156  91.8264849  69.2543313   7.6676213  91.1077215
  69.4718959   7.3999717  92.5818008  64.9844220   3.1996813  84.4611942
  64.5463650   2.4832672  84.0017579  65.7254661   3.4272928  83.8997033
  63.9253964   7.8851507  92.9158302  63.8830143   8.1112353  91.9866834
  64.8416663   7.6514881  93.0644103  62.0419765   4.7614536  92.7120265
  62.8360363   4.2664856  92.5102840  61.3311457   4.2332399  92.3487971
  66.8614609   7.1432631  97.0632633  66.9151631   7.7123568  97.8310349
  65.9929390   7.3134516  96.6986670  65.2139193  10.4352654  87.7343639
  65.3890948   9.9640698  88.5489261  64.5271981  11.0618421  87.9624899
  66.1696256   4.7125161  93.7806940  65.8346088   4.6725931  94.6764590
  65.6700201   4.0469876  93.3077350  59.7800278  13.5842017  94.5083499
  60.0196876  14.2160541  95.1862517  58.9369474  13.2330057  94.7948858
  64.2928140   9.3921140  96.9125003  64.2198311  10.1976111  97.4244307
  63.8505533   9.5913105  96.0873024  64.0817919   8.6292910  90.4227824
  63.2985441   9.1714590  90.5166049  64.7810664   9.1466889  90.8222065
  66.7526823   9.2907974  99.0683161  67.4654795   9.9255438  98.9959063
  66.2616852   9.3871840  98.2523163  68.4744350   3.1959226  90.6400453
  67.5400629   3.3160689  90.4705157  68.6521019   2.2931693  90.3760463
  69.9293133   5.3820367  88.1736639  70.2052976   5.2676961  89.0830513
  69.0597631   4.9837852  88.1348812  66.5647197   9.6306718  91.8169453
  66.7469591   8.8128374  92.2797205  67.3880183   9.8474410  91.3794343
  66.8989362   8.5574903  89.0784501  67.4277129   8.0467357  88.4654663
  67.1617582   8.2417433  89.9430034  60.2545110   9.6090019  91.8382277
  59.5855485  10.0936147  91.3546317  60.1157980   9.8559240  92.7525656
  64.3950379  11.6433763  98.4364936  64.9468687  11.8065385  99.2014021
  64.7356572  12.2338201  97.7644961  67.5318766   9.5915739  95.4228618
  67.4069905   8.7905478  94.9139563  68.1897857  10.0861932  94.9342588
  69.5953674   7.3924759  97.0508168  68.6484010   7.2730110  96.9786495
  69.9436447   6.5047257  97.1334429  66.6000108   7.1877475  93.2512520
  66.4525070   6.2594182  93.4320090  67.4253601   7.2097566  92.7669595
  70.2034229   8.0106034  94.3377393  71.1280777   7.8048895  94.2001844
  70.0349533   7.7622435  95.2466734  69.9929546   8.5291701  89.6939484
  70.1666423   7.9638123  88.9413337  70.4858437   9.3292596  89.5118974
  70.9804718   7.8458465  86.7936383  71.6755623   8.4665158  87.0123697
  71.3227868   6.9953817  87.0688761  72.8796141   5.2958171  88.3223713
  73.4047465   5.6345444  87.5973033  72.7918494   4.3605186  88.1386848
  64.5636802  11.3630154  92.6818967  64.1241792  10.8706533  93.3751823
  65.3144919  10.8203122  92.4411042  57.0429141   7.5541695  92.6843595
  57.8687161   7.2545467  92.3042238  56.6923193   6.7849318  93.1333383
  62.0110674   6.9068163  94.7541268  61.3890683   6.2438868  94.4543496
  62.6815541   6.9329295  94.0714916  61.5724181   5.4572087  88.2299729
  61.7212301   6.1407551  87.5766402  62.3790624   5.4377177  88.7449185
  59.3276814   1.4837264  89.2360798  59.0822856   0.5799594  89.4341008
  59.4972729   1.4854415  88.2940276  65.0719587   7.9520217  85.7011476
  64.4993554   8.5710404  85.2481948  65.6452380   8.5019579  86.2351398
  68.2916846   8.2357367  86.8320058  69.2247520   8.1702929  87.0352934
  68.2040059   9.0713634  86.3734591  70.9204863   7.5523238  83.7924006
  70.8418495   7.2183101  84.6859764  71.7414530   8.0445005  83.7915478
  57.3549852   9.6854309  94.4057409  57.2204320   8.9254710  93.8395407
  56.9381914  10.4095209  93.9386198  68.4908815   4.8691233  83.4133984
  69.1944665   5.0741235  84.0291640  67.7671464   5.4367995  83.6783068
  60.5118978  10.5823626  94.6175852  60.3951362  11.5269059  94.5154542
  59.6911424  10.2797188  95.0061651  70.3995512   5.3073762  85.4632444
  71.2341116   4.8754961  85.2809919  70.2379855   5.1355776  86.3909339
  61.5373492  11.2351888  97.8331780  62.4400738  11.2675499  98.1498275
  61.3110862  10.3052339  97.8478116  63.2927094   9.9882875  94.4941859
  62.3422725   9.9884737  94.3806231  63.5959580   9.2415609  93.9777893
  79.0279787  15.8243413  95.5587621  79.6658197  15.7050161  94.8550961
  78.9100630  16.7724257  95.6175573  75.8369494  15.7770841  95.4949146
  75.4988005  15.6611906  94.6069681  76.7059262  15.3762006  95.4750152
  71.6956309  17.6306318  91.4846037  71.1321174  17.5396255  90.7162325
  71.5808704  16.8106222  91.9648529  76.3189277  16.9305693 101.4535351
  76.3077917  16.5358491 100.5815855  76.4809916  16.1971766 102.0469123
  69.2420741  19.1257509  94.3230257  70.0342033  18.7848334  93.9076557
  69.4817391  19.2352484  95.2432411  77.2755868  21.2977286  86.7960502
  76.6243848  21.8831366  86.4094516  78.0700231  21.8283480  86.8555539
  71.2011495  18.3866423  87.1947636  71.9742371  17.8395410  87.0560512
  71.5536894  19.2510672  87.4062097  73.0396538  19.7142805 100.4014535
  72.7486404  20.6188436 100.2861202  73.6753522  19.7559333 101.1158605
  73.9652745  17.0919653  96.9915895  74.5616317  16.8675676  96.2772858
  74.0227716  16.3504399  97.5941343  73.5377773  14.5459089  84.8266086
  73.7903294  14.0240610  84.0649549  72.6002332  14.3825234  84.9292770
  78.5821056  13.5494867  92.6340829  79.3684145  13.1314290  92.2831246
  78.8459760  14.4540959  92.8022478  78.7531133  18.9867717  87.3329486
  78.1176966  19.0602344  88.0450391  78.4228540  19.5761316  86.6548565
  83.9829483  13.4870100  93.5373808  84.7154655  12.9169317  93.7711637
  83.2268839  13.0991701  93.9780313  73.2574062  16.4487195  87.0290461
  73.1410320  15.7732098  87.6971545  73.3676322  15.9619569  86.2122614
  75.6005603  15.9097342  90.7337150  75.2363810  15.3827963  91.4450072
  76.4572719  15.5195811  90.5603636  75.2411090  10.9387242  85.7298499
  75.4085492  11.8067478  86.0968970  75.0508259  11.1014523  84.8059788
  77.9986423  19.4004220  97.3964329  77.6987146  20.3029259  97.2880136
  77.6537482  19.1336404  98.2485482  71.4498904  15.8518017  93.4301033
  70.5249401  15.7194231  93.6378725  71.6983317  16.6312237  93.9270976
  81.3983567  11.9186761  95.0761766  80.4900444  11.8502169  94.7820527
  81.3471162  12.3958706  95.9043592  75.2200310  13.3944899  86.7145166
  75.0999936  13.8401950  87.5530646  74.5252899  13.7430217  86.1558704
  68.8107715  15.4951291  94.2644823  68.9400096  15.7485770  95.1784234
  68.1305167  16.0878999  93.9449478  72.9807203  26.1648541  90.3635297
  72.9031232  27.1156366  90.4423777  72.3768846  25.8194413  91.0210223
  80.9185377  13.8666372  87.5425500  81.8303233  14.0993759  87.3673197
  80.4095024  14.4503416  86.9800578  73.7270805  16.1461860 102.5814631
  74.4685489  16.6846904 102.3049454  73.0207790  16.7728148 102.7386182
  79.2026144  18.2891000 101.1786792  79.6109500  17.8473411 100.4341425
  78.4803406  17.7143628 101.4320985  75.5557214  13.2263607  98.5520349
  76.4018410  13.6503020  98.6954998  75.4955852  12.5697231  99.2458912
  79.5254959  18.8492191  94.9339081  78.8963821  19.0137905  94.2315149
  79.1380621  19.2633800  95.7050045  83.4044191  19.7846629  92.2883445
  82.7195229  20.1645530  91.7380478  83.4888040  20.3941955  93.0215393
  80.6595122  17.4306588  98.8878788  80.8712018  18.0738347  98.2113169
  80.6124871  16.5968904  98.4200718  78.2621351  10.0424408  95.7915360
  77.4005830  10.3405662  96.0832098  78.2883786  10.2594807  94.8596393
  75.0782921  18.5866599  92.1989166  75.5421266  18.8654302  91.4093789
  74.8139719  17.6850043  92.0162257  71.9707002  18.1338080  95.1368929
  72.5408359  18.5625349  94.4986414  72.5615114  17.8520665  95.8353115
  74.0151807  14.7089751  89.0078731  74.7175850  15.1610795  89.4752658
  73.6832435  14.0673570  89.6358624  72.4632168  13.3001508 103.3829941
  71.8330829  13.9817789 103.6165337  72.3568256  13.1884589 102.4383079
  67.7577141  12.9673304  94.3095865  66.9676195  13.2230832  93.8335975
  68.2488388  13.7821642  94.4147905  81.7740950  20.3078543  97.0601146
  82.5958394  19.9058730  96.7783827  81.7703353  20.2046777  98.0117261
  69.7091886  13.3317883  91.2679342  68.9123050  13.4436577  91.7862837
  69.4817478  13.6704535  90.4020232  75.5397554  19.8562586  99.2161856
  75.6041986  20.3182993 100.0520028  74.8308478  19.2259951  99.3444166
  66.0414844  13.2203794  96.7410856  66.2922882  14.1050804  97.0068432
  66.5774392  13.0408396  95.9685947  75.2545572  21.5230694  89.0840836
  75.1191246  22.3682229  89.5125684  75.7955384  21.7249971  88.3206770
  68.7074969  19.0406132  89.6568762  69.2199489  19.8349382  89.8074326
  69.3597682  18.3432422  89.5902363  70.5169854  22.1571888  91.7391515
  70.6936482  23.0789853  91.5512499  71.3126687  21.8430307  92.1685895
  69.8022210  14.2036520 101.6153678  69.6875725  13.3021777 101.9160777
  68.9466728  14.4500217 101.2638495  76.8814048  22.1454260 103.2141179
  76.4377902  21.3590639 102.8962083  77.5431261  22.3333411 102.5485069
  71.6401169  23.6750062  97.7401857  72.1908594  23.5467125  96.9678851
  70.8012645  23.9744951  97.3896750  78.9795286  22.4257060 101.2422580
  78.9613761  23.2465941 100.7502849  79.9015206  22.3011135 101.4672721
  75.4368340  19.9401190 102.0846088  75.9696677  19.1789478 101.8545396
  74.9082421  19.6474841 102.8270243  66.6723886  17.3694786  90.4328332
  67.5099108  17.7791794  90.2162040  66.8502153  16.4294228  90.4028526
  78.5688318  15.0369867  86.1212165  78.0534941  15.8074471  86.3600552
  78.2965626  14.3635003  86.7445227  76.1535429   9.8819568  91.1797403
  75.2977025   9.4926418  91.0003042  76.5662381   9.9611528  90.3197189
  77.6834575   7.4165911  95.5788963  77.1799371   7.3796046  94.7656768
  77.9765182   8.3258653  95.6385620  73.9277461   7.5004641  94.5855145
  74.7930458   7.3047449  94.2261034  73.9954970   7.2714992  95.5124502
  83.5422592  17.7902221  88.0565339  82.7652035  17.4513381  87.6120501
  84.2214073  17.7954845  87.3820304  78.3574621  12.9096959  87.9471946
  78.0524757  13.2243108  88.7982089  79.3105063  12.9878379  87.9899279
  76.8021053  19.0687182  89.5964900  76.2742414  18.3339942  89.2838138
  76.3008556  19.8461858  89.3504869  81.7813899  17.2636203  94.7131947
  81.1237573  17.9535464  94.8012075  82.5854298  17.6532635  95.0565933
  71.5339780   9.7306848  91.9571512  72.1083532   9.5082030  91.2244705
  72.1210763   9.7995543  92.7100113  80.5919358  15.6180575  92.7635888
  81.1051239  16.2510567  93.2657598  81.2420582  15.0181771  92.3979248
  71.8609368  11.7611309  85.9767397  71.0246680  12.0985996  86.2976672
  71.7214137  11.6260289  85.0394534  73.8362448   6.6048097  90.6846581
  73.1826860   6.2897115  90.0603196  73.7942922   5.9823838  91.4106404
  74.9473653  16.8867392  82.5999873  74.0400715  16.6556646  82.7991022
  75.4444685  16.0905012  82.7873855  77.8541732  25.5964900  85.5196559
  77.1803431  25.8996596  86.1281517  78.2407554  26.3993980  85.1702016
  77.0700188  13.0930031  95.0094229  76.1522750  13.3144978  94.8515917
  77.4860332  13.1676341  94.1505936  77.8535236  14.4921447  90.1396909
  78.6007055  15.0042844  89.8304031  78.1226826  14.1705499  91.0001303
  76.1261886  16.9879987  87.1223863  75.2173106  16.7039020  87.2196333
  76.1556970  17.4079066  86.2627170  81.3581154  20.5986577  90.8915031
  80.9043481  19.7577487  90.9480221  80.7275121  21.2347975  91.2289811
  80.3014073  11.5278563  92.1215698  79.5636830  11.0155949  92.4525941
  80.5540847  11.0878944  91.3098975  79.8014093  22.4363073  91.8264849
  80.0937067  22.9968131  91.1077215  80.3112714  22.7291634  92.5818008
  66.6950057  14.7085501  91.1039066  66.4974457  14.1154862  90.3790132
  66.1396721  14.4037712  91.8215004  74.6746780  14.6008608  93.2233659
  74.7295390  13.6482444  93.1476135  73.8637983  14.7568047  93.7074957
  75.8237974  18.5288731  84.4611942  75.3857404  17.8124590  84.0017579
  76.5648415  18.7564846  83.8997033  72.6139140  13.2185668  90.9824038
  71.8007006  13.5179838  91.3889230  73.1098135  12.8241356  91.6998520
  74.7647718  23.2143425  92.9158302  74.7223897  23.4404271  91.9866834
  75.6810417  22.9806799  93.0644103  83.9411089  16.8045928  90.5188260
  83.8028988  16.9947524  89.5909450  83.5847308  17.5665311  90.9756312
  72.1053215  10.7904023  96.5985273  72.7452594  10.6492782  95.9008236
  71.2730746  10.5038537  96.2223875  83.9680469  18.8722455  95.5299532
  84.4016975  18.7797744  96.3782586  84.6812049  18.8479955  94.8919548
  72.8813519  20.0906454  92.7120265  73.6754118  19.5956774  92.5102840
  72.1705211  19.5624317  92.3487971  77.7008364  22.4724549  97.0632633
  77.7545386  23.0415485  97.8310349  76.8323145  22.6426434  96.6986670
  69.1896283  14.2349535  88.7880018  68.2593871  14.1733991  89.0049980
  69.2853755  13.7125488  87.9916659  69.1081832  10.7604348  91.3758259
  69.3688649  11.6749681  91.2667420  69.9299004  10.2928791  91.5254872
  70.5806757  12.1742105  98.5457084  71.2529810  11.9659467  97.8969733
  69.7536543  11.9764191  98.1062316  76.6596463  16.6384811  98.6219564
  77.5888523  16.7895971  98.4488532  76.2387493  16.7268832  97.7668211
  75.4584795  20.6635476  96.3918102  75.3195881  20.2954260  97.2644040
  74.6699391  21.1783115  96.2202060  76.0532947  25.7644572  87.7343639
  76.2284703  25.2932615  88.5489261  75.3665735  26.3910338  87.9624899
  77.0090010  20.0417078  93.7806940  76.6739843  20.0017848  94.6764590
  76.5093956  19.3761794  93.3077350  70.9834254  15.4484708  99.3059521
  70.8454052  14.7164947  99.9071060  71.8939178  15.3593608  99.0243709
  79.9449202  17.3873113  84.0544000  79.3278372  16.6619941  83.9577052
  79.4765690  18.1482473  83.7111074  73.6116555  15.1604668  98.7943201
  74.3216173  14.5197860  98.7529819  73.5685863  15.4117562  99.7169381
  72.3245489  12.1469885 100.6138840  71.7882846  11.6960624 101.2660436
  71.7362197  12.2815794  99.8709304  70.6194032  28.9133935  94.5083499
  70.8590631  29.5452459  95.1862517  69.7763229  28.5621975  94.7948858
  71.7347748  11.6058537  83.1765304  70.8577214  11.4847338  82.8127550
  72.2105501  10.8144615  82.9244192  63.2549888  16.3935697  93.2706811
  63.9420928  16.0797427  92.6827826  63.0998017  17.2977061  92.9974062
  68.0584610  11.2825893  97.6991835  67.9742799  10.6751563  96.9642245
  67.2367316  11.7734911  97.7001331  75.1321894  24.7213057  96.9125003
  75.0592066  25.5268029  97.4244307  74.6899287  24.9205023  96.0873024
  74.9211674  23.9584827  90.4227824  74.1379196  24.5006507  90.5166049
  75.6204419  24.4758807  90.8222065  78.2308324   9.7679457  93.0662030
  78.7277023   9.0149419  92.7463100  77.4595305   9.8043773  92.5005239
  77.5920578  24.6199891  99.0683161  78.3048550  25.2547356  98.9959063
  77.1010606  24.7163757  98.2523163  79.3138105  18.5251144  90.6400453
  78.3794383  18.6452606  90.4705157  79.4914773  17.6223611  90.3760463
  74.8143293  11.9096840  92.7933714  74.4441080  11.3567880  93.4814620
  75.3102385  11.3054973  92.2408714  82.7010656  14.3668463  91.1750487
  83.1671108  15.1996455  91.1010790  83.1518156  13.9013445  91.8795746
  72.6432491  22.3694335  99.8888732  73.3441951  23.0030818 100.0418126
  72.1727606  22.7109066  99.1284372  80.7686887  20.7112285  88.1736639
  81.0446731  20.5968879  89.0830513  79.8991386  20.3129769  88.1348812
  80.4433777  14.9238942  97.7141283  79.7905227  15.1714850  97.0593735
  80.8214157  14.1103080  97.3803760  77.4040951  24.9598635  91.8169453
  77.5863346  24.1420291  92.2797205  78.2273937  25.1766328  91.3794343
  77.7383117  23.8866820  89.0784501  78.2670883  23.3759275  88.4654663
  78.0011336  23.5709351  89.9430034  68.2400209  21.9030690  96.8219835
  68.8253646  21.1574378  96.9547739  68.0425048  22.2134646  97.7056499
  71.0938865  24.9381937  91.8382277  70.4249240  25.4228065  91.3546317
  70.9551734  25.1851158  92.7525656  62.8317864  14.4736290  95.5424278
  62.8701964  13.9399881  96.3361396  62.3258157  13.9471495  94.9235255
  75.2344133  26.9725681  98.4364936  75.7862441  27.1357302  99.2014021
  75.5750327  27.5630119  97.7644961  70.2108626   9.3200830  99.0386820
  70.2749953  10.1815661  98.6264218  70.1475747   8.7074832  98.3059179
  66.4626442  13.2000392  88.6178209  66.7579883  12.2911071  88.5645263
  65.5614477  13.1788132  88.2959212  78.3712520  24.9207656  95.4228618
  78.2463660  24.1197396  94.9139563  79.0291611  25.4153850  94.9342588
  69.9920689  11.2756389  94.6005758  69.2707274  11.8892356  94.4613231
  70.7813944  11.8114154  94.5222404  80.4347429  22.7216676  97.0508168
  79.4877764  22.6022027  96.9786495  80.7830202  21.8339174  97.1334429
  68.1914283  10.8814490  88.7417535  67.8626989  10.0011869  88.5592641
  68.5453654  10.8262158  89.6293924  77.4393862  22.5169393  93.2512520
  77.2918824  21.5886100  93.4320090  78.2647356  22.5389483  92.7669595
  71.3056106  11.1687460  89.1093012  71.6452179  11.6973381  88.3871621
  71.7528227  11.5067866  89.8851579  81.0427984  23.3397951  94.3377393
  81.9674531  23.1340813  94.2001844  80.8743287  23.0914352  95.2466734
  73.9999547   9.5524510  98.5596080  73.6596368   8.7532323  98.9616760
  73.2938553   9.8526221  97.9872914  74.6516019   6.6373823  97.0123403
  75.4742088   6.1634301  96.8902294  74.8954083   7.4164306  97.5122090
  73.2924253   9.6662081  87.3086305  74.0132616  10.0443334  86.8050022
  72.6689558  10.3850958  87.4121283  77.4355376  10.3707230  88.2444637
  77.6518991  11.2531868  87.9433466  76.9549444   9.9793444  87.5150279
  72.1754598  13.3292943  94.8215382  72.0299178  13.6433246  95.7139663
  71.6979801  13.9477844  94.2686281  74.0350981  10.3195491  94.8696272
  74.0212549   9.4236585  94.5328569  74.7523409  10.3266155  95.5034558
  75.8877111  10.7532832  96.9149399  75.6294889  11.6749902  96.9133729
  75.3562152  10.3563266  97.6049863  80.8323300  23.8583619  89.6939484
  81.0060178  23.2930041  88.9413337  81.3252191  24.6584514  89.5118974
  66.6500260  15.8698288  97.7603043  66.1053728  16.6458096  97.8923317
  67.5279610  16.2169092  97.6022165  73.4387877   9.2009872  90.1383842
  73.5603788   8.2726518  90.3374729  73.1489919   9.2148558  89.2262157
  76.3079067   6.8864782  93.2750562  76.3300764   6.9504115  92.3202541
  76.7247126   6.0469291  93.4691068  86.6862691  16.6220042  91.3129784
  87.1293837  15.8727367  90.9148907  85.8089202  16.6130178  90.9303516
  81.8198473  23.1750383  86.7936383  82.5149377  23.7957076  87.0123697
  82.1621623  22.3245734  87.0688761  67.4366282  14.9968184 100.6533200
  66.6948018  15.1450819 101.2397830  67.1159026  15.2576450  99.7899949
  83.7189896  20.6250089  88.3223713  84.2441220  20.9637361  87.5973033
  83.6312248  19.6897104  88.1386848  75.3809944  24.5384162 100.4513590
  75.6897071  24.2933309 101.3236290  76.1785426  24.7430801  99.9632460
  75.4030556  26.6922072  92.6818967  74.9635547  26.1998451  93.3751823
  76.1538673  26.1495040  92.4411042  67.8822895  22.8833613  92.6843595
  68.7080915  22.5837385  92.3042238  67.5316947  22.1141235  93.1333383
  72.8504429  22.2360081  94.7541268  72.2284438  21.5730786  94.4543496
  73.5209296  22.2621213  94.0714916  66.0831500  20.8019939  93.6432528
  65.2463409  20.3742114  93.4616530  66.0555146  20.9952383  94.5803319
  72.4117936  20.7864004  88.2299729  72.5606056  21.4699469  87.5766402
  73.2184379  20.7669094  88.7449185  86.2295556  18.0925280  93.7052232
  87.0642447  18.5315084  93.8689792  86.3654685  17.6163933  92.8860477
  70.1670569  16.8129182  89.2360798  69.9216610  15.9091512  89.4341008
  70.3366483  16.8146332  88.2940276  69.4366216  12.5457540  86.7346959
  68.7435461  12.6201895  86.0786995  69.1917968  11.7817883  87.2568476
  75.9113341  23.2812135  85.7011476  75.3387308  23.9002322  85.2481948
  76.4846135  23.8311496  86.2351398  79.1310601  23.5649285  86.8320058
  80.0641274  23.4994847  87.0352934  79.0433814  24.4005552  86.3734591
  81.7598618  22.8815155  83.7924006  81.6812249  22.5475019  84.6859764
  82.5808284  23.3736923  83.7915478  76.2960140  14.6172948  83.0427529
  77.2419244  14.4879156  83.1115947  75.9174385  13.8787609  83.5196957
  74.4803057  12.5422924  82.9782414  73.5734512  12.2456037  83.0545128
  74.7579038  12.2452742  82.1116700  65.3980997  13.8629287  93.4281460
  65.0783781  13.0094596  93.1355834  64.8514425  14.0777865  94.1839428
  69.1760905  16.5791728  97.1450967  69.3946914  17.5108836  97.1639001
  69.5886678  16.2199703  97.9305771  76.0965122   7.0859814  89.1326655
  75.2865851   6.7406899  89.5081901  76.7849539   6.7767357  89.7214267
  73.2501841   9.4009859  83.1194393  74.1121005   9.7264757  83.3790210
  73.4352185   8.6141355  82.6067459  65.2669257  17.4832199  95.3974582
  64.5732729  17.0686152  94.8844536  66.0142248  17.5252735  94.8008001
  81.4034478   8.2738386  90.2629616  80.8233147   8.9323190  89.8807669
  81.1370410   7.4515730  89.8517034  79.8538044   7.6743443  92.4650936
  80.3537823   7.7859978  91.6565255  80.4973652   7.3704496  93.1051745
  67.1806000  17.4150453  93.2740597  67.1576688  17.5138140  92.3222480
  67.4906636  18.2615603  93.5957763  69.8393377  19.4726608  97.3887211
  70.7936631  19.4410550  97.3217143  69.6405901  19.0117231  98.2037437
  70.4292760  18.0427724  99.9558009  71.2485649  18.5371802  99.9792846
  70.7029567  17.1259692  99.9275576  80.1859356  10.4338476  89.3185964
  79.2985211  10.7188127  89.1006159  80.6013345  10.2732239  88.4713241
  68.1943606  25.0146227  94.4057409  68.0598074  24.2546628  93.8395407
  67.7775669  25.7387127  93.9386198  79.3302569  20.1983151  83.4133984
  80.0338419  20.4033153  84.0291640  78.6065218  20.7659913  83.6783068
  80.1600380  15.9493012  89.5336255  80.1035581  16.4061563  88.6943887
  80.7128722  15.1883697  89.3559097  83.9705185  11.7382744  90.3586374
  83.7142120  11.3379379  91.1894582  83.3458054  12.4526538  90.2336513
  71.3512732  25.9115544  94.6175852  71.2345116  26.8560977  94.5154542
  70.5305178  25.6089106  95.0061651  81.2389267  20.6365680  85.4632444
  82.0734871  20.2046878  85.2809919  81.0773610  20.4647694  86.3909339
  80.8935159  17.1397793  86.8288784  80.8383963  16.9742065  85.8877228
  80.2681214  17.8473826  86.9850973  74.2031284   6.6405902  86.4074102
  74.1909954   7.5847742  86.5642373  75.0954706   6.4576048  86.1133563
  72.3767246  26.5643806  97.8331780  73.2794493  26.5967416  98.1498275
  72.1504616  25.6344257  97.8478116  74.1320848  25.3174793  94.4941859
  73.1816479  25.3176654  94.3806231  74.4353334  24.5707527  93.9777893
  89.8673542  31.1535331  95.5587621  90.5051952  31.0342078  94.8550961
  89.7494385  32.1016175  95.6175573  86.6763248  31.1062759  95.4949146
  86.3381760  30.9903824  94.6069681  87.5453016  30.7053924  95.4750152
  82.5350064  32.9598235  91.4846037  81.9714929  32.8688172  90.7162325
  82.4202459  32.1398140  91.9648529  87.1583031  32.2597611 101.4535351
  87.1471672  31.8650409 100.5815855  87.3203671  31.5263683 102.0469123
  80.0814496  34.4549427  94.3230257  80.8735788  34.1140252  93.9076557
  80.3211146  34.5644402  95.2432411  88.1149622  36.6269203  86.7960502
  87.4637602  37.2123284  86.4094516  88.9093985  37.1575398  86.8555539
  82.0405250  33.7158340  87.1947636  82.8136126  33.1687327  87.0560512
  82.3930649  34.5802590  87.4062097  83.8790292  35.0434723 100.4014535
  83.5880158  35.9480353 100.2861202  84.5147277  35.0851250 101.1158605
  84.8046499  32.4211571  96.9915895  85.4010071  32.1967594  96.2772858
  84.8621471  31.6796317  97.5941343  84.3771527  29.8751006  84.8266086
  84.6297048  29.3532528  84.0649549  83.4396087  29.7117152  84.9292770
  89.4214810  28.8786785  92.6340829  90.2077900  28.4606208  92.2831246
  89.6853515  29.7832877  92.8022478  89.5924888  34.3159635  87.3329486
  88.9570721  34.3894262  88.0450391  89.2622294  34.9053234  86.6548565
  94.8223237  28.8162018  93.5373808  95.5548409  28.2461235  93.7711637
  94.0662593  28.4283618  93.9780313  84.0967816  31.7779112  87.0290461
  83.9804074  31.1024016  87.6971545  84.2070076  31.2911486  86.2122614
  86.4399357  31.2389260  90.7337150  86.0757564  30.7119880  91.4450072
  87.2966473  30.8487729  90.5603636  86.0804844  26.2679159  85.7298499
  86.2479246  27.1359396  86.0968970  85.8902013  26.4306441  84.8059788
  88.8380177  34.7296138  97.3964329  88.5380900  35.6321177  97.2880136
  88.4931237  34.4628321  98.2485482  82.2892659  31.1809935  93.4301033
  81.3643155  31.0486149  93.6378725  82.5377072  31.9604154  93.9270976
  92.2377321  27.2478678  95.0761766  91.3294198  27.1794087  94.7820527
  92.1864917  27.7250623  95.9043592  86.0594065  28.7236817  86.7145166
  85.9393690  29.1693867  87.5530646  85.3646653  29.0722134  86.1558704
  79.6501470  30.8243209  94.2644823  79.7793851  31.0777687  95.1784234
  78.9698921  31.4170917  93.9449478  83.8200957  41.4940458  90.3635297
  83.7424987  42.4448284  90.4423777  83.2162601  41.1486331  91.0210223
  91.7579131  29.1958290  87.5425500  92.6696987  29.4285677  87.3673197
  91.2488778  29.7795334  86.9800578  84.5664559  31.4753777 102.5814631
  85.3079244  32.0138821 102.3049454  83.8601545  32.1020066 102.7386182
  90.0419899  33.6182918 101.1786792  90.4503255  33.1765328 100.4341425
  89.3197160  33.0435545 101.4320985  86.3950969  28.5555524  98.5520349
  87.2412164  28.9794938  98.6954998  86.3349607  27.8989149  99.2458912
  90.3648713  34.1784108  94.9339081  89.7357576  34.3429822  94.2315149
  89.9774376  34.5925718  95.7050045  94.2437945  35.1138546  92.2883445
  93.5588983  35.4937448  91.7380478  94.3281795  35.7233873  93.0215393
  91.4988877  32.7598505  98.8878788  91.7105772  33.4030265  98.2113169
  91.4518625  31.9260822  98.4200718  89.1015106  25.3716326  95.7915360
  88.2399585  25.6697579  96.0832098  89.1277541  25.5886725  94.8596393
  85.9176675  33.9158516  92.1989166  86.3815021  34.1946219  91.4093789
  85.6533473  33.0141961  92.0162257  82.8100756  33.4629998  95.1368929
  83.3802113  33.8917266  94.4986414  83.4008868  33.1812583  95.8353115
  84.8545561  30.0381669  89.0078731  85.5569605  30.4902712  89.4752658
  84.5226190  29.3965488  89.6358624  83.3025923  28.6293425 103.3829941
  82.6724583  29.3109706 103.6165337  83.1962011  28.5176507 102.4383079
  78.5970895  28.2965221  94.3095865  77.8069949  28.5522750  93.8335975
  79.0882143  29.1113559  94.4147905  92.6134705  35.6370461  97.0601146
  93.4352149  35.2350648  96.7783827  92.6097108  35.5338695  98.0117261
  80.5485641  28.6609801  91.2679342  79.7516804  28.7728495  91.7862837
  80.3211233  28.9996453  90.4020232  86.3791308  35.1854504  99.2161856
  86.4435741  35.6474911 100.0520028  85.6702232  34.5551869  99.3444166
  76.8808598  28.5495712  96.7410856  77.1316637  29.4342722  97.0068432
  77.4168147  28.3700313  95.9685947  86.0939326  36.8522611  89.0840836
  85.9585001  37.6974147  89.5125684  86.6349139  37.0541889  88.3206770
  79.5468723  34.3698049  89.6568762  80.0593244  35.1641300  89.8074326
  80.1991436  33.6724340  89.5902363  81.3563608  37.4863806  91.7391515
  81.5330236  38.4081770  91.5512499  82.1520442  37.1722225  92.1685895
  80.6415965  29.5328438 101.6153678  80.5269480  28.6313695 101.9160777
  79.7860482  29.7792134 101.2638495  87.7207802  37.4746178 103.2141179
  87.2771657  36.6882556 102.8962083  88.3825016  37.6625328 102.5485069
  82.4794924  39.0041980  97.7401857  83.0302349  38.8759043  96.9678851
  81.6406399  39.3036869  97.3896750  89.8189040  37.7548978 101.2422580
  89.8007516  38.5757859 100.7502849  90.7408960  37.6303053 101.4672721
  86.2762095  35.2693107 102.0846088  86.8090431  34.5081396 101.8545396
  85.7476176  34.9766759 102.8270243  77.5117640  32.6986704  90.4328332
  78.3492862  33.1083712  90.2162040  77.6895908  31.7586146  90.4028526
  89.4082072  30.3661784  86.1212165  88.8928696  31.1366389  86.3600552
  89.1359381  29.6926921  86.7445227  86.9929183  25.2111485  91.1797403
  86.1370780  24.8218336  91.0003042  87.4056135  25.2903446  90.3197189
  88.5228330  22.7457828  95.5788963  88.0193126  22.7087964  94.7656768
  88.8158937  23.6550571  95.6385620  84.7671216  22.8296558  94.5855145
  85.6324213  22.6339367  94.2261034  84.8348725  22.6006910  95.5124502
  94.3816346  33.1194139  88.0565339  93.6045789  32.7805299  87.6120501
  95.0607827  33.1246762  87.3820304  89.1968375  28.2388877  87.9471946
  88.8918511  28.5535026  88.7982089  90.1498818  28.3170296  87.9899279
  87.6414807  34.3979100  89.5964900  87.1136169  33.6631859  89.2838138
  87.1402310  35.1753776  89.3504869  92.6207653  32.5928120  94.7131947
  91.9631328  33.2827382  94.8012075  93.4248053  32.9824552  95.0565933
  82.3733535  25.0598766  91.9571512  82.9477287  24.8373948  91.2244705
  82.9604517  25.1287461  92.7100113  91.4313112  30.9472493  92.7635888
  91.9444994  31.5802485  93.2657598  92.0814336  30.3473689  92.3979248
  82.7003122  27.0903227  85.9767397  81.8640434  27.4277914  86.2976672
  82.5607892  26.9552207  85.0394534  84.6756203  21.9340015  90.6846581
  84.0220615  21.6189032  90.0603196  84.6336677  21.3115755  91.4106404
  85.7867407  32.2159310  82.5999873  84.8794469  31.9848564  82.7991022
  86.2838439  31.4196929  82.7873855  88.6935486  40.9256817  85.5196559
  88.0197185  41.2288514  86.1281517  89.0801308  41.7285898  85.1702016
  87.9093943  28.4221949  95.0094229  86.9916504  28.6436896  94.8515917
  88.3254087  28.4968259  94.1505936  88.6928991  29.8213364  90.1396909
  89.4400810  30.3334761  89.8304031  88.9620580  29.4997417  91.0001303
  86.9655641  32.3171905  87.1223863  86.0566860  32.0330938  87.2196333
  86.9950725  32.7370984  86.2627170  92.1974908  35.9278494  90.8915031
  91.7437235  35.0869404  90.9480221  91.5668875  36.5639893  91.2289811
  91.1407828  26.8570480  92.1215698  90.4030585  26.3447867  92.4525941
  91.3934601  26.4170862  91.3098975  90.6407848  37.7654991  91.8264849
  90.9330822  38.3260048  91.1077215  91.1506468  38.0583552  92.5818008
  77.5343811  30.0377419  91.1039066  77.3368211  29.4446780  90.3790132
  76.9790475  29.7329629  91.8215004  85.5140535  29.9300526  93.2233659
  85.5689145  28.9774362  93.1476135  84.7031737  30.0859965  93.7074957
  86.6631729  33.8580649  84.4611942  86.2251159  33.1416508  84.0017579
  87.4042170  34.0856763  83.8997033  83.4532895  28.5477585  90.9824038
  82.6400760  28.8471756  91.3889230  83.9491889  28.1533274  91.6998520
  85.6041473  38.5435342  92.9158302  85.5617652  38.7696189  91.9866834
  86.5204172  38.3098717  93.0644103  94.7804844  32.1337846  90.5188260
  94.6422742  32.3239442  89.5909450  94.4241062  32.8957228  90.9756312
  82.9446970  26.1195941  96.5985273  83.5846349  25.9784700  95.9008236
  82.1124500  25.8330454  96.2223875  94.8074223  34.2014373  95.5299532
  95.2410730  34.1089662  96.3782586  95.5205804  34.1771873  94.8919548
  83.7207274  35.4198371  92.7120265  84.5147872  34.9248691  92.5102840
  83.0098966  34.8916234  92.3487971  88.5402118  37.8016467  97.0632633
  88.5939140  38.3707403  97.8310349  87.6716899  37.9718352  96.6986670
  80.0290037  29.5641453  88.7880018  79.0987625  29.5025908  89.0049980
  80.1247509  29.0417406  87.9916659  79.9475586  26.0896266  91.3758259
  80.2082403  27.0041599  91.2667420  80.7692758  25.6220708  91.5254872
  81.4200511  27.5034023  98.5457084  82.0923565  27.2951385  97.8969733
  80.5930298  27.3056109  98.1062316  87.4990218  31.9676729  98.6219564
  88.4282278  32.1187888  98.4488532  87.0781248  32.0560750  97.7668211
  86.2978550  35.9927393  96.3918102  86.1589635  35.6246178  97.2644040
  85.5093146  36.5075033  96.2202060  86.8926702  41.0936490  87.7343639
  87.0678457  40.6224533  88.5489261  86.2059490  41.7202256  87.9624899
  87.8483765  35.3708996  93.7806940  87.5133597  35.3309766  94.6764590
  87.3487710  34.7053712  93.3077350  81.8228009  30.7776626  99.3059521
  81.6847807  30.0456865  99.9071060  82.7332932  30.6885526  99.0243709
  90.7842956  32.7165030  84.0544000  90.1672127  31.9911858  83.9577052
  90.3159445  33.4774391  83.7111074  84.4510309  30.4896585  98.7943201
  85.1609928  29.8489777  98.7529819  84.4079617  30.7409480  99.7169381
  83.1639243  27.4761803 100.6138840  82.6276600  27.0252542 101.2660436
  82.5755952  27.6107712  99.8709304  81.4587787  44.2425852  94.5083499
  81.6984385  44.8744377  95.1862517  80.6156983  43.8913892  94.7948858
  82.5741502  26.9350455  83.1765304  81.6970969  26.8139255  82.8127550
  83.0499255  26.1436533  82.9244192  74.0943642  31.7227614  93.2706811
  74.7814682  31.4089344  92.6827826  73.9391771  32.6268979  92.9974062
  78.8978365  26.6117811  97.6991835  78.8136553  26.0043480  96.9642245
  78.0761071  27.1026829  97.7001331  85.9715649  40.0504975  96.9125003
  85.8985820  40.8559946  97.4244307  85.5293042  40.2496941  96.0873024
  85.7605428  39.2876745  90.4227824  84.9772950  39.8298425  90.5166049
  86.4598173  39.8050725  90.8222065  89.0702078  25.0971374  93.0662030
  89.5670778  24.3441337  92.7463100  88.2989060  25.1335691  92.5005239
  88.4314332  39.9491809  99.0683161  89.1442304  40.5839274  98.9959063
  87.9404361  40.0455675  98.2523163  90.1531859  33.8543062  90.6400453
  89.2188138  33.9744524  90.4705157  90.3308528  32.9515528  90.3760463
  85.6537047  27.2388757  92.7933714  85.2834835  26.6859798  93.4814620
  86.1496140  26.6346891  92.2408714  93.5404410  29.6960381  91.1750487
  94.0064863  30.5288372  91.1010790  93.9911911  29.2305362  91.8795746
  83.4826246  37.6986252  99.8888732  84.1835705  38.3322735 100.0418126
  83.0121361  38.0400984  99.1284372  91.6080642  36.0404202  88.1736639
  91.8840485  35.9260797  89.0830513  90.7385140  35.6421687  88.1348812
  91.2827532  30.2530860  97.7141283  90.6298982  30.5006767  97.0593735
  91.6607912  29.4394998  97.3803760  88.2434706  40.2890553  91.8169453
  88.4257100  39.4712209  92.2797205  89.0667692  40.5058245  91.3794343
  88.5776871  39.2158738  89.0784501  89.1064637  38.7051193  88.4654663
  88.8405091  38.9001268  89.9430034  79.0793964  37.2322607  96.8219835
  79.6647401  36.4866295  96.9547739  78.8818802  37.5426564  97.7056499
  81.9332619  40.2673855  91.8382277  81.2642994  40.7519982  91.3546317
  81.7945489  40.5143075  92.7525656  73.6711619  29.8028208  95.5424278
  73.7095718  29.2691798  96.3361396  73.1651911  29.2763413  94.9235255
  86.0737888  42.3017598  98.4364936  86.6256196  42.4649220  99.2014021
  86.4144081  42.8922036  97.7644961  81.0502381  24.6492748  99.0386820
  81.1143707  25.5107579  98.6264218  80.9869501  24.0366750  98.3059179
  80.5254653  26.7215881 102.6859855  81.1526692  26.3392958 103.2997379
  79.6682572  26.5030083 103.0515547  77.3020196  28.5292310  88.6178209
  77.5973637  27.6202988  88.5645263  76.4008232  28.5080049  88.2959212
  89.2106275  40.2499574  95.4228618  89.0857414  39.4489314  94.9139563
  89.8685366  40.7445767  94.9342588  80.8314443  26.6048306  94.6005758
  80.1101029  27.2184274  94.4613231  81.6207699  27.1406071  94.5222404
  91.2741183  38.0508594  97.0508168  90.3271519  37.9313945  96.9786495
  91.6223956  37.1631092  97.1334429  79.0308038  26.2106407  88.7417535
  78.7020744  25.3303786  88.5592641  79.3847408  26.1554076  89.6293924
  88.2787617  37.8461310  93.2512520  88.1312579  36.9178018  93.4320090
  89.1041110  37.8681401  92.7669595  82.1449861  26.4979377  89.1093012
  82.4845933  27.0265299  88.3871621  82.5921981  26.8359783  89.8851579
  91.8821738  38.6689869  94.3377393  92.8068286  38.4632730  94.2001844
  91.7137042  38.4206270  95.2466734  84.8393302  24.8816428  98.5596080
  84.4990122  24.0824241  98.9616760  84.1332308  25.1818139  97.9872914
  85.4909773  21.9665740  97.0123403  86.3135843  21.4926219  96.8902294
  85.7347837  22.7456224  97.5122090  84.1318008  24.9953999  87.3086305
  84.8526370  25.3735252  86.8050022  83.5083312  25.7142876  87.4121283
  88.2749131  25.6999148  88.2444637  88.4912745  26.5823786  87.9433466
  87.7943198  25.3085361  87.5150279  83.0148352  28.6584861  94.8215382
  82.8692933  28.9725164  95.7139663  82.5373556  29.2769761  94.2686281
  84.8744735  25.6487409  94.8696272  84.8606304  24.7528502  94.5328569
  85.5917163  25.6558073  95.5034558  86.7270866  26.0824749  96.9149399
  86.4688644  27.0041820  96.9133729  86.1955906  25.6855184  97.6049863
  91.6717055  39.1875536  89.6939484  91.8453932  38.6221959  88.9413337
  92.1645946  39.9876431  89.5118974  77.4894014  31.1990205  97.7603043
  76.9447482  31.9750013  97.8923317  78.3673364  31.5461010  97.6022165
  84.2781631  24.5301789  90.1383842  84.3997542  23.6018436  90.3374729
  83.9883673  24.5440475  89.2262157  87.1472821  22.2156700  93.2750562
  87.1694518  22.2796033  92.3202541  87.5640880  21.3761208  93.4691068
  97.5256446  31.9511959  91.3129784  97.9687592  31.2019285  90.9148907
  96.6482956  31.9422096  90.9303516  92.6592227  38.5042301  86.7936383
  93.3543132  39.1248993  87.0123697  93.0015377  37.6537652  87.0688761
  78.2760036  30.3260102 100.6533200  77.5341772  30.4742737 101.2397830
  77.9552781  30.5868367  99.7899949  94.5583650  35.9542006  88.3223713
  95.0834974  36.2929279  87.5973033  94.4706003  35.0189022  88.1386848
  86.2203699  39.8676080 100.4513590  86.5290825  39.6225227 101.3236290
  87.0179181  40.0722718  99.9632460  86.2424311  42.0213990  92.6818967
  85.8029301  41.5290368  93.3751823  86.9932428  41.4786957  92.4411042
  78.7216650  38.2125530  92.6843595  79.5474670  37.9129302  92.3042238
  78.3710702  37.4433153  93.1333383  83.6898183  37.5651999  94.7541268
  83.0678192  36.9022704  94.4543496  84.3603050  37.5913131  94.0714916
  76.9225255  36.1311857  93.6432528  76.0857163  35.7034031  93.4616530
  76.8948900  36.3244300  94.5803319  83.2511690  36.1155922  88.2299729
  83.3999810  36.7991386  87.5766402  84.0578133  36.0961012  88.7449185
  97.0689310  33.4217198  93.7052232  97.9036202  33.8607002  93.8689792
  97.2048439  32.9455851  92.8860477  81.0064323  32.1421100  89.2360798
  80.7610365  31.2383430  89.4341008  81.1760238  32.1438250  88.2940276
  80.2759971  27.8749457  86.7346959  79.5829215  27.9493812  86.0786995
  80.0311722  27.1109801  87.2568476  86.7507096  38.6104052  85.7011476
  86.1781063  39.2294240  85.2481948  87.3239889  39.1603414  86.2351398
  89.9704355  38.8941203  86.8320058  90.9035028  38.8286764  87.0352934
  89.8827568  39.7297469  86.3734591  92.5992372  38.2107073  83.7924006
  92.5206004  37.8766937  84.6859764  93.4202039  38.7028841  83.7915478
  87.1353894  29.9464865  83.0427529  88.0812999  29.8171073  83.1115947
  86.7568139  29.2079527  83.5196957  85.3196811  27.8714842  82.9782414
  84.4128267  27.5747954  83.0545128  85.5972792  27.5744660  82.1116700
  76.2374752  29.1921205  93.4281460  75.9177536  28.3386513  93.1355834
  75.6908180  29.4069783  94.1839428  80.0154659  31.9083646  97.1450967
  80.2340669  32.8400754  97.1639001  80.4280433  31.5491620  97.9305771
  86.9358877  22.4151731  89.1326655  86.1259605  22.0698816  89.5081901
  87.6243294  22.1059275  89.7214267  88.8649425  21.4929778  90.7550952
  89.4180464  21.9125232  91.4140975  89.1019512  20.5665526  90.7973908
  84.0895596  24.7301777  83.1194393  84.9514760  25.0556675  83.3790210
  84.2745940  23.9433273  82.6067459  76.1063012  32.8124116  95.3974582
  75.4126483  32.3978069  94.8844536  76.8536003  32.8544653  94.8008001
  92.2428232  23.6030303  90.2629616  91.6626901  24.2615107  89.8807669
  91.9764165  22.7807648  89.8517034  90.6931799  23.0035361  92.4650936
  91.1931577  23.1151896  91.6565255  91.3367407  22.6996414  93.1051745
  78.0199754  32.7442370  93.2740597  77.9970442  32.8430058  92.3222480
  78.3300391  33.5907521  93.5957763  80.6787132  34.8018525  97.3887211
  81.6330386  34.7702468  97.3217143  80.4799656  34.3409149  98.2037437
  81.2686514  33.3719641  99.9558009  82.0879403  33.8663720  99.9792846
  81.5423322  32.4551609  99.9275576  91.0253110  25.7630394  89.3185964
  90.1378965  26.0480044  89.1006159  91.4407099  25.6024157  88.4713241
  79.0337361  40.3438145  94.4057409  78.8991829  39.5838546  93.8395407
  78.6169423  41.0679045  93.9386198  90.1696324  35.5275068  83.4133984
  90.8732174  35.7325071  84.0291640  89.4458973  36.0951830  83.6783068
  90.9994134  31.2784930  89.5336255  90.9429335  31.7353481  88.6943887
  91.5522477  30.5175614  89.3559097  94.8098940  27.0674661  90.3586374
  94.5535874  26.6671297  91.1894582  94.1851808  27.7818455  90.2336513
  82.1906487  41.2407462  94.6175852  82.0738871  42.1852894  94.5154542
  81.3698933  40.9381023  95.0061651  92.0783021  35.9657598  85.4632444
  92.9128625  35.5338796  85.2809919  91.9167364  35.7939611  86.3909339
  91.7328913  32.4689711  86.8288784  91.6777717  32.3033982  85.8877228
  91.1074969  33.1765744  86.9850973  76.5221428  27.7057775 100.6550206
  77.1680292  27.1956729 101.1437431  76.3138579  28.4426457 101.2293631
  85.0425039  21.9697820  86.4074102  85.0303709  22.9139660  86.5642373
  85.9348461  21.7867965  86.1133563  83.2161001  41.8935724  97.8331780
  84.1188247  41.9259334  98.1498275  82.9898371  40.9636175  97.8478116
  84.9714603  40.6466710  94.4941859  84.0210234  40.6468572  94.3806231
  85.2747089  39.8999445  93.9777893  88.8577158  18.5640596  90.6620039
  88.0909554  18.0099083  90.8076721  89.2687863  18.6362465  91.5234191
 100.7067296  46.4827249  95.5587621 101.3445706  46.3633996  94.8550961
 100.5888139  47.4308093  95.6175573  97.5157003  46.4354677  95.4949146
  97.1775514  46.3195741  94.6069681  98.3846771  46.0345842  95.4750152
  93.3743818  48.2890153  91.4846037  92.8108683  48.1980090  90.7162325
  93.2596213  47.4690058  91.9648529  97.9976786  47.5889528 101.4535351
  97.9865426  47.1942327 100.5815855  98.1597425  46.8555601 102.0469123
  90.9208250  49.7841345  94.3230257  91.7129542  49.4432169  93.9076557
  91.1604900  49.8936320  95.2432411  98.9543377  51.9561121  86.7960502
  98.3031357  52.5415201  86.4094516  99.7487740  52.4867316  86.8555539
  92.8799004  49.0450258  87.1947636  93.6529880  48.4979245  87.0560512
  93.2324403  49.9094507  87.4062097  94.7184047  50.3726640 100.4014535
  94.4273913  51.2772271 100.2861202  95.3541031  50.4143168 101.1158605
  95.6440254  47.7503489  96.9915895  96.2403826  47.5259511  96.2772858
  95.7015225  47.0088234  97.5941343  95.2165282  45.2042924  84.8266086
  95.4690803  44.6824445  84.0649549  94.2789841  45.0409070  84.9292770
 100.2608565  44.2078702  92.6340829 101.0471654  43.7898126  92.2831246
 100.5247269  45.1124795  92.8022478 100.4318642  49.6451553  87.3329486
  99.7964475  49.7186179  88.0450391 100.1016049  50.2345152  86.6548565
 105.6616992  44.1453936  93.5373808 106.3942164  43.5753153  93.7711637
 104.9056348  43.7575536  93.9780313  94.9361571  47.1071030  87.0290461
  94.8197829  46.4315933  87.6971545  95.0463831  46.6203404  86.2122614
  97.2793112  46.5681177  90.7337150  96.9151319  46.0411798  91.4450072
  98.1360228  46.1779646  90.5603636  96.9198599  41.5971077  85.7298499
  97.0873001  42.4651313  86.0968970  96.7295768  41.7598359  84.8059788
  99.6773932  50.0588056  97.3964329  99.3774655  50.9613095  97.2880136
  99.3324991  49.7920239  98.2485482  93.1286413  46.5101853  93.4301033
  92.2036910  46.3778067  93.6378725  93.3770826  47.2896072  93.9270976
 103.0771076  42.5770596  95.0761766 102.1687953  42.5086004  94.7820527
 103.0258671  43.0542541  95.9043592  96.8987819  44.0528734  86.7145166
  96.7787445  44.4985785  87.5530646  96.2040408  44.4014052  86.1558704
  90.4895224  46.1535126  94.2644823  90.6187605  46.4069605  95.1784234
  89.8092676  46.7462834  93.9449478  94.6594712  56.8232376  90.3635297
  94.5818741  57.7740201  90.4423777  94.0556355  56.4778249  91.0210223
 102.5972886  44.5250208  87.5425500 103.5090742  44.7577594  87.3673197
 102.0882533  45.1087252  86.9800578  95.4058314  46.8045695 102.5814631
  96.1472998  47.3430739 102.3049454  94.6995299  47.4311984 102.7386182
 100.8813653  48.9474835 101.1786792 101.2897009  48.5057246 100.4341425
 100.1590915  48.3727463 101.4320985  97.2344723  43.8847442  98.5520349
  98.0805919  44.3086856  98.6954998  97.1743361  43.2281066  99.2458912
 101.2042468  49.5076026  94.9339081 100.5751330  49.6721740  94.2315149
 100.8168130  49.9217636  95.7050045 105.0831700  50.4430464  92.2883445
 104.3982738  50.8229365  91.7380478 105.1675549  51.0525791  93.0215393
 102.3382631  48.0890423  98.8878788 102.5499527  48.7322183  98.2113169
 102.2912380  47.2552739  98.4200718  99.9408860  40.7008244  95.7915360
  99.0793339  40.9989497  96.0832098  99.9671295  40.9178642  94.8596393
  96.7570430  49.2450434  92.1989166  97.2208775  49.5238137  91.4093789
  96.4927228  48.3433879  92.0162257  93.6494511  48.7921916  95.1368929
  94.2195868  49.2209184  94.4986414  94.2402623  48.5104500  95.8353115
  95.6939316  45.3673586  89.0078731  96.3963359  45.8194630  89.4752658
  95.3619944  44.7257405  89.6358624  94.1419677  43.9585343 103.3829941
  93.5118338  44.6401624 103.6165337  94.0355765  43.8468425 102.4383079
  89.4364650  43.6257139  94.3095865  88.6463704  43.8814668  93.8335975
  89.9275897  44.4405477  94.4147905 103.4528459  50.9662378  97.0601146
 104.2745903  50.5642566  96.7783827 103.4490862  50.8630612  98.0117261
  91.3879395  43.9901718  91.2679342  90.5910558  44.1020413  91.7862837
  91.1604987  44.3288371  90.4020232  97.2185063  50.5146422  99.2161856
  97.2829495  50.9766829 100.0520028  96.5095987  49.8843787  99.3444166
  87.7202353  43.8787630  96.7410856  87.9710391  44.7634639  97.0068432
  88.2561901  43.6992231  95.9685947  96.9333080  52.1814529  89.0840836
  96.7978755  53.0266065  89.5125684  97.4742893  52.3833807  88.3206770
  90.3862478  49.6989967  89.6568762  90.8986998  50.4933217  89.8074326
  91.0385191  49.0016258  89.5902363  92.1957363  52.8155723  91.7391515
  92.3723991  53.7373688  91.5512499  92.9914196  52.5014143  92.1685895
  91.4809719  44.8620355 101.6153678  91.3663234  43.9605613 101.9160777
  90.6254237  45.1084052 101.2638495  98.5601557  52.8038096 103.2141179
  98.1165411  52.0174474 102.8962083  99.2218770  52.9917246 102.5485069
  93.3188678  54.3333897  97.7401857  93.8696103  54.2050961  96.9678851
  92.4800154  54.6328786  97.3896750 100.6582795  53.0840896 101.2422580
 100.6401270  53.9049777 100.7502849 101.5802715  52.9594971 101.4672721
  97.1155849  50.5985025 102.0846088  97.6484186  49.8373313 101.8545396
  96.5869930  50.3058677 102.8270243  88.3511395  48.0278621  90.4328332
  89.1886617  48.4375630  90.2162040  88.5289662  47.0878064  90.4028526
 100.2475827  45.6953702  86.1212165  99.7322450  46.4658307  86.3600552
  99.9753135  45.0218838  86.7445227  97.8322938  40.5403403  91.1797403
  96.9764534  40.1510253  91.0003042  98.2449890  40.6195364  90.3197189
  99.3622084  38.0749746  95.5788963  98.8586880  38.0379881  94.7656768
  99.6552691  38.9842489  95.6385620  95.6064970  38.1588476  94.5855145
  96.4717967  37.9631285  94.2261034  95.6742479  37.9298828  95.5124502
 105.2210101  48.4486057  88.0565339 104.4439544  48.1097216  87.6120501
 105.9001582  48.4538680  87.3820304 100.0362130  43.5680794  87.9471946
  99.7312266  43.8826943  88.7982089 100.9892572  43.6462214  87.9899279
  98.4808562  49.7271018  89.5964900  97.9529923  48.9923777  89.2838138
  97.9796065  50.5045694  89.3504869 103.4601408  47.9220038  94.7131947
 102.8025082  48.6119299  94.8012075 104.2641807  48.3116470  95.0565933
  93.2127289  40.3890684  91.9571512  93.7871041  40.1665865  91.2244705
  93.7998272  40.4579378  92.7100113 102.2706867  46.2764411  92.7635888
 102.7838748  46.9094403  93.2657598 102.9208091  45.6765606  92.3979248
  93.5396877  42.4195145  85.9767397  92.7034189  42.7569831  86.2976672
  93.4001646  42.2844125  85.0394534  95.5149957  37.2631933  90.6846581
  94.8614369  36.9480950  90.0603196  95.4730431  36.6407673  91.4106404
  96.6261162  47.5451228  82.5999873  95.7188224  47.3140481  82.7991022
  97.1232194  46.7488847  82.7873855  99.5329241  56.2548735  85.5196559
  98.8590940  56.5580432  86.1281517  99.9195063  57.0577815  85.1702016
  98.7487697  43.7513866  95.0094229  97.8310259  43.9728813  94.8515917
  99.1647841  43.8260177  94.1505936  99.5322745  45.1505282  90.1396909
 100.2794564  45.6626679  89.8304031  99.8014335  44.8289335  91.0001303
  97.8049395  47.6463823  87.1223863  96.8960615  47.3622855  87.2196333
  97.8344479  48.0662901  86.2627170 103.0368663  51.2570412  90.8915031
 102.5830990  50.4161322  90.9480221 102.4062630  51.8931810  91.2289811
 101.9801582  42.1862398  92.1215698 101.2424339  41.6739784  92.4525941
 102.2328356  41.7462780  91.3098975 101.4801602  53.0946909  91.8264849
 101.7724576  53.6551966  91.1077215 101.9900223  53.3875470  92.5818008
  88.3737566  45.3669337  91.1039066  88.1761966  44.7738697  90.3790132
  87.8184230  45.0621547  91.8215004  96.3534289  45.2592443  93.2233659
  96.4082899  44.3066280  93.1476135  95.5425491  45.4151882  93.7074957
  97.5025483  49.1872566  84.4611942  97.0644913  48.4708425  84.0017579
  98.2435924  49.4148681  83.8997033  94.2926649  43.8769503  90.9824038
  93.4794515  44.1763674  91.3889230  94.7885644  43.4825192  91.6998520
  96.4435227  53.8727260  92.9158302  96.4011406  54.0988106  91.9866834
  97.3597926  53.6390634  93.0644103 105.6198598  47.4629763  90.5188260
 105.4816497  47.6531359  89.5909450 105.2634817  48.2249146  90.9756312
  93.7840724  41.4487858  96.5985273  94.4240103  41.3076618  95.9008236
  92.9518255  41.1622372  96.2223875 105.6467978  49.5306290  95.5299532
 106.0804484  49.4381579  96.3782586 106.3599558  49.5063791  94.8919548
  94.5601028  50.7490289  92.7120265  95.3541627  50.2540609  92.5102840
  93.8492720  50.2208152  92.3487971  99.3795873  53.1308384  97.0632633
  99.4332895  53.6999321  97.8310349  98.5110654  53.3010269  96.6986670
  90.8683792  44.8933371  88.7880018  89.9381380  44.8317826  89.0049980
  90.9641263  44.3709323  87.9916659  90.7869341  41.4188183  91.3758259
  91.0476158  42.3333517  91.2667420  91.6086513  40.9512626  91.5254872
  92.2594266  42.8325941  98.5457084  92.9317319  42.6243303  97.8969733
  91.4324052  42.6348027  98.1062316  98.3383972  47.2968646  98.6219564
  99.2676032  47.4479806  98.4488532  97.9175002  47.3852667  97.7668211
  97.1372304  51.3219311  96.3918102  96.9983390  50.9538095  97.2644040
  96.3486900  51.8366950  96.2202060  97.7320456  56.4228407  87.7343639
  97.9072212  55.9516451  88.5489261  97.0453244  57.0494174  87.9624899
  98.6877519  50.7000914  93.7806940  98.3527352  50.6601684  94.6764590
  98.1881465  50.0345630  93.3077350  92.6621763  46.1068544  99.3059521
  92.5241561  45.3748782  99.9071060  93.5726687  46.0177444  99.0243709
 101.6236711  48.0456948  84.0544000 101.0065881  47.3203776  83.9577052
 101.1553199  48.8066308  83.7111074  95.2904064  45.8188503  98.7943201
  96.0003682  45.1781695  98.7529819  95.2473372  46.0701398  99.7169381
  94.0032998  42.8053721 100.6138840  93.4670355  42.3544459 101.2660436
  93.4149706  42.9399630  99.8709304  92.2981541  59.5717770  94.5083499
  92.5378140  60.2036294  95.1862517  91.4550738  59.2205810  94.7948858
  93.4135257  42.2642372  83.1765304  92.5364723  42.1431173  82.8127550
  93.8893010  41.4728451  82.9244192  84.9337397  47.0519532  93.2706811
  85.6208437  46.7381262  92.6827826  84.7785526  47.9560897  92.9974062
  89.7372119  41.9409729  97.6991835  89.6530308  41.3335398  96.9642245
  88.9154825  42.4318747  97.7001331  96.8109403  55.3796893  96.9125003
  96.7379575  56.1851864  97.4244307  96.3686796  55.5788858  96.0873024
  96.5999183  54.6168663  90.4227824  95.8166705  55.1590343  90.5166049
  97.2991928  55.1342642  90.8222065  99.9095833  40.4263292  93.0662030
 100.4064532  39.6733254  92.7463100  99.1382814  40.4627609  92.5005239
  99.2708087  55.2783727  99.0683161  99.9836059  55.9131191  98.9959063
  98.7798115  55.3747593  98.2523163 100.9925614  49.1834979  90.6400453
 100.0581892  49.3036442  90.4705157 101.1702282  48.2807446  90.3760463
  96.4930802  42.5680675  92.7933714  96.1228589  42.0151715  93.4814620
  96.9889894  41.9638809  92.2408714 104.3798165  45.0252299  91.1750487
 104.8458617  45.8580290  91.1010790 104.8305665  44.5597280  91.8795746
  94.3220000  53.0278170  99.8888732  95.0229460  53.6614653 100.0418126
  93.8515115  53.3692902  99.1284372 102.4474396  51.3696120  88.1736639
 102.7234240  51.2552714  89.0830513 101.5778895  50.9713605  88.1348812
 102.1221286  45.5822778  97.7141283 101.4692736  45.8298685  97.0593735
 102.5001666  44.7686916  97.3803760  99.0828460  55.6182471  91.8169453
  99.2650855  54.8004127  92.2797205  99.9061446  55.8350163  91.3794343
  99.4170626  54.5450656  89.0784501  99.9458392  54.0343110  88.4654663
  99.6798845  54.2293186  89.9430034  89.9187718  52.5614525  96.8219835
  90.5041155  51.8158213  96.9547739  89.7212557  52.8718482  97.7056499
  92.7726373  55.5965773  91.8382277  92.1036749  56.0811900  91.3546317
  92.6339243  55.8434993  92.7525656  84.5105373  45.1320125  95.5424278
  84.5489473  44.5983716  96.3361396  84.0045666  44.6055331  94.9235255
  96.9131642  57.6309516  98.4364936  97.4649950  57.7941138  99.2014021
  97.2537836  58.2213954  97.7644961  91.8896135  39.9784666  99.0386820
  91.9537462  40.8399497  98.6264218  91.8263256  39.3658667  98.3059179
  91.3648408  42.0507798 102.6859855  91.9920447  41.6684876 103.2997379
  90.5076327  41.8322000 103.0515547  88.1413951  43.8584227  88.6178209
  88.4367392  42.9494906  88.5645263  87.2401986  43.8371967  88.2959212
 100.0500029  55.5791492  95.4228618  99.9251169  54.7781231  94.9139563
 100.7079120  56.0737685  94.9342588  91.6708198  41.9340224  94.6005758
  90.9494783  42.5476192  94.4613231  92.4601453  42.4697989  94.5222404
 102.1134938  53.3800512  97.0508168 101.1665273  53.2605863  96.9786495
 102.4617711  52.4923010  97.1334429  89.8701792  41.5398325  88.7417535
  89.5414498  40.6595704  88.5592641  90.2241163  41.4845994  89.6293924
  99.1181371  53.1753228  93.2512520  98.9706333  52.2469935  93.4320090
  99.9434865  53.1973319  92.7669595  92.9843615  41.8271295  89.1093012
  93.3239688  42.3557216  88.3871621  93.4315736  42.1651701  89.8851579
 102.7215493  53.9981787  94.3377393 103.6462040  53.7924648  94.2001844
 102.5530796  53.7498188  95.2466734  95.6787056  40.2108346  98.5596080
  95.3383877  39.4116159  98.9616760  94.9726062  40.5110057  97.9872914
  96.3303528  37.2957658  97.0123403  97.1529597  36.8218136  96.8902294
  96.5741592  38.0748142  97.5122090  94.9711762  40.3245917  87.3086305
  95.6920125  40.7027169  86.8050022  94.3477067  41.0434793  87.4121283
  99.1142885  41.0291066  88.2444637  99.3306500  41.9115703  87.9433466
  98.6336952  40.6377279  87.5150279  93.8542107  43.9876779  94.8215382
  93.7086687  44.3017082  95.7139663  93.3767310  44.6061679  94.2686281
  95.7138490  40.9779327  94.8696272  95.7000058  40.0820420  94.5328569
  96.4310918  40.9849990  95.5034558  97.5664620  41.4116667  96.9149399
  97.3082398  42.3333738  96.9133729  97.0349661  41.0147101  97.6049863
 102.5110809  54.5167454  89.6939484 102.6847687  53.9513877  88.9413337
 103.0039700  55.3168349  89.5118974  88.3287769  46.5282123  97.7603043
  87.7841237  47.3041931  97.8923317  89.2067119  46.8752928  97.6022165
  95.1175386  39.8593707  90.1383842  95.2391297  38.9310353  90.3374729
  94.8277428  39.8732393  89.2262157  97.9866576  37.5448617  93.2750562
  98.0088273  37.6087951  92.3202541  98.4034635  36.7053126  93.4691068
 103.4985982  53.8334218  86.7936383 104.1936886  54.4540911  87.0123697
 103.8409132  52.9829570  87.0688761  89.1153791  45.6552019 100.6533200
  88.3735527  45.8034655 101.2397830  88.7946535  45.9160285  99.7899949
 105.3977405  51.2833924  88.3223713 105.9228729  51.6221197  87.5973033
 105.3099757  50.3480939  88.1386848  97.0597453  55.1967998 100.4513590
  97.3684580  54.9517144 101.3236290  97.8572935  55.4014636  99.9632460
  97.0818065  57.3505907  92.6818967  96.6423056  56.8582286  93.3751823
  97.8326182  56.8078875  92.4411042  89.5610404  53.5417448  92.6843595
  90.3868424  53.2421220  92.3042238  89.2104456  52.7725071  93.1333383
  94.5291938  52.8943916  94.7541268  93.9071947  52.2314621  94.4543496
  95.1996804  52.9205048  94.0714916  87.7619009  51.4603775  93.6432528
  86.9250918  51.0325949  93.4616530  87.7342655  51.6536218  94.5803319
  94.0905445  51.4447840  88.2299729  94.2393565  52.1283304  87.5766402
  94.8971888  51.4252930  88.7449185  91.8458077  47.4713017  89.2360798
  91.6004119  46.5675347  89.4341008  92.0153992  47.4730168  88.2940276
  91.1153725  43.2041375  86.7346959  90.4222970  43.2785730  86.0786995
  90.8705477  42.4401719  87.2568476  97.5900850  53.9395970  85.7011476
  97.0174817  54.5586157  85.2481948  98.1633644  54.4895332  86.2351398
 100.8098110  54.2233120  86.8320058 101.7428783  54.1578682  87.0352934
 100.7221323  55.0589387  86.3734591 103.4386126  53.5398991  83.7924006
 103.3599758  53.2058854  84.6859764 104.2595793  54.0320759  83.7915478
  97.9747649  45.2756783  83.0427529  98.9206753  45.1462991  83.1115947
  97.5961893  44.5371445  83.5196957  96.1590566  43.2006759  82.9782414
  95.2522021  42.9039872  83.0545128  96.4366547  42.9036577  82.1116700
  87.0768506  44.5213123  93.4281460  86.7571290  43.6678431  93.1355834
  86.5301934  44.7361701  94.1839428  90.8548414  47.2375564  97.1450967
  91.0734423  48.1692671  97.1639001  91.2674187  46.8783538  97.9305771
  97.7752631  37.7443649  89.1326655  96.9653360  37.3990734  89.5081901
  98.4637048  37.4351193  89.7214267  99.7043180  36.8221696  90.7550952
 100.2574218  37.2417149  91.4140975  99.9413266  35.8957444  90.7973908
  94.9289350  40.0593694  83.1194393  95.7908514  40.3848593  83.3790210
  95.1139694  39.2725190  82.6067459  86.9456766  48.1416034  95.3974582
  86.2520237  47.7269987  94.8844536  87.6929757  48.1836571  94.8008001
 103.0821987  38.9322221  90.2629616 102.5020656  39.5907025  89.8807669
 102.8157919  38.1099566  89.8517034 101.5325553  38.3327279  92.4650936
 102.0325332  38.4443813  91.6565255 102.1761161  38.0288332  93.1051745
  88.8593509  48.0734288  93.2740597  88.8364197  48.1721975  92.3222480
  89.1694145  48.9199439  93.5957763  91.5180886  50.1310443  97.3887211
  92.4724140  50.0994385  97.3217143  91.3193410  49.6701067  98.2037437
  92.1080269  48.7011559  99.9558009  92.9273158  49.1955638  99.9792846
  92.3817076  47.7843527  99.9275576 101.8646865  41.0922311  89.3185964
 100.9772720  41.3771962  89.1006159 102.2800854  40.9316075  88.4713241
  89.8731115  55.6730062  94.4057409  89.7385583  54.9130463  93.8395407
  89.4563178  56.3970962  93.9386198 101.0090078  50.8566986  83.4133984
 101.7125928  51.0616989  84.0291640 100.2852727  51.4243748  83.6783068
 101.8387889  46.6076847  89.5336255 101.7823090  47.0645399  88.6943887
 102.3916231  45.8467532  89.3559097 105.6492694  42.3966579  90.3586374
 105.3929629  41.9963215  91.1894582 105.0245562  43.1110373  90.2336513
  93.0300241  56.5699379  94.6175852  92.9132625  57.5144812  94.5154542
  92.2092687  56.2672941  95.0061651 102.9176776  51.2949515  85.4632444
 103.7522380  50.8630714  85.2809919 102.7561119  51.1231529  86.3909339
 102.5722668  47.7981629  86.8288784 102.5171472  47.6325900  85.8877228
 101.9468723  48.5057661  86.9850973  87.3615183  43.0349693 100.6550206
  88.0074046  42.5248647 101.1437431  87.1532334  43.7718375 101.2293631
  95.8818793  37.2989738  86.4074102  95.8697463  38.2431577  86.5642373
  96.7742215  37.1159883  86.1133563  94.0554755  57.2227641  97.8331780
  94.9582002  57.2551252  98.1498275  93.8292125  56.2928092  97.8478116
  95.8108357  55.9758628  94.4941859  94.8603988  55.9760490  94.3806231
  96.1140843  55.2291362  93.9777893  99.6970913  33.8932514  90.6620039
  98.9303309  33.3391001  90.8076721 100.1081618  33.9654383  91.5234191
 104.2137573  63.6182071  91.4846037 103.6502438  63.5272008  90.7162325
 104.0989968  62.7981975  91.9648529 103.7192759  64.3742176  87.1947636
 104.4923635  63.8271163  87.0560512 104.0718157  65.2386425  87.4062097
 106.0559036  60.5334842  84.8266086 106.3084557  60.0116363  84.0649549
 105.1183596  60.3700987  84.9292770 105.7755325  62.4362948  87.0290461
 105.6591583  61.7607851  87.6971545 105.8857585  61.9495322  86.2122614
 107.7592353  56.9262995  85.7298499 107.9266755  57.7943231  86.0968970
 107.5689522  57.0890276  84.8059788 103.9680168  61.8393770  93.4301033
 103.0430664  61.7069984  93.6378725 104.2164581  62.6187990  93.9270976
 107.7381574  59.3820652  86.7145166 107.6181199  59.8277703  87.5530646
 107.0434162  59.7305970  86.1558704 101.3288979  61.4827044  94.2644823
 101.4581360  61.7361523  95.1784234 100.6486430  62.0754752  93.9449478
 107.5964184  64.5742352  92.1989166 108.0602530  64.8530055  91.4093789
 107.3320982  63.6725796  92.0162257 106.5333070  60.6965504  89.0078731
 107.2357114  61.1486548  89.4752658 106.2013699  60.0549323  89.6358624
 100.2758404  58.9549057  94.3095865  99.4857458  59.2106585  93.8335975
 100.7669652  59.7697395  94.4147905 102.2273150  59.3193636  91.2679342
 101.4304313  59.4312330  91.7862837 101.9998742  59.6580288  90.4020232
  98.5596107  59.2079547  96.7410856  98.8104146  60.0926557  97.0068432
  99.0955656  59.0284149  95.9685947 107.7726835  67.5106447  89.0840836
 107.6372510  68.3557983  89.5125684 108.3136647  67.7125724  88.3206770
 101.2256232  65.0281885  89.6568762 101.7380753  65.8225135  89.8074326
 101.8778945  64.3308175  89.5902363 103.0351117  68.1447641  91.7391515
 103.2117745  69.0665606  91.5512499 103.8307951  67.8306060  92.1685895
  99.1905149  63.3570539  90.4328332 100.0280371  63.7667547  90.2162040
  99.3683417  62.4169981  90.4028526 106.4458725  53.4880394  94.5855145
 107.3111722  53.2923202  94.2261034 106.5136234  53.2590745  95.5124502
 104.0521044  55.7182601  91.9571512 104.6264796  55.4957783  91.2244705
 104.6392026  55.7871296  92.7100113 104.3790631  57.7487062  85.9767397
 103.5427943  58.0861749  86.2976672 104.2395401  57.6136042  85.0394534
 106.3543712  52.5923850  90.6846581 105.7008124  52.2772868  90.0603196
 106.3124186  51.9699591  91.4106404 107.4654916  62.8743145  82.5999873
 106.5581978  62.6432399  82.7991022 107.9625948  62.0780765  82.7873855
  99.2131320  60.6961254  91.1039066  99.0155720  60.1030615  90.3790132
  98.6577984  60.3913465  91.8215004 107.1928044  60.5884361  93.2233659
 107.2476654  59.6358197  93.1476135 106.3819246  60.7443800  93.7074957
 105.1320404  59.2061421  90.9824038 104.3188269  59.5055591  91.3889230
 105.6279398  58.8117109  91.6998520 104.6234479  56.7779776  96.5985273
 105.2633858  56.6368535  95.9008236 103.7912009  56.4914290  96.2223875
 105.3994783  66.0782207  92.7120265 106.1935381  65.5832527  92.5102840
 104.6886475  65.5500070  92.3487971 101.7077546  60.2225288  88.7880018
 100.7775134  60.1609744  89.0049980 101.8035018  59.7001241  87.9916659
 101.6263095  56.7480101  91.3758259 101.8869912  57.6625434  91.2667420
 102.4480267  56.2804544  91.5254872 104.2529011  57.5934290  83.1765304
 103.3758478  57.4723091  82.8127550 104.7286764  56.8020368  82.9244192
  95.7731151  62.3811450  93.2706811  96.4602191  62.0673180  92.6827826
  95.6179280  63.2852814  92.9974062 100.5765874  57.2701646  97.6991835
 100.4924062  56.6627316  96.9642245  99.7548580  57.7610665  97.7001331
 107.3324556  57.8972593  92.7933714 106.9622344  57.3443633  93.4814620
 107.8283649  57.2930726  92.2408714  95.3499127  60.4612043  95.5424278
  95.3883227  59.9275634  96.3361396  94.8439420  59.9347249  94.9235255
 102.7289890  55.3076584  99.0386820 102.7931216  56.1691414  98.6264218
 102.6657010  54.6950585  98.3059179  98.9807705  59.1876145  88.6178209
  99.2761146  58.2786824  88.5645263  98.0795741  59.1663885  88.2959212
 102.5101952  57.2632142  94.6005758 101.7888538  57.8768109  94.4613231
 103.2995208  57.7989907  94.5222404 100.7095547  56.8690243  88.7417535
 100.3808253  55.9887622  88.5592641 101.0634917  56.8137912  89.6293924
 103.8237370  57.1563213  89.1093012 104.1633442  57.6849134  88.3871621
 104.2709490  57.4943619  89.8851579 107.1697282  52.6249576  97.0123403
 107.9923352  52.1510054  96.8902294 107.4135346  53.4040060  97.5122090
 105.8105517  55.6537834  87.3086305 106.5313879  56.0319087  86.8050022
 105.1870821  56.3726711  87.4121283 104.6935861  59.3168696  94.8215382
 104.5480442  59.6308999  95.7139663 104.2161065  59.9353597  94.2686281
 106.5532244  56.3071244  94.8696272 106.5393813  55.4112338  94.5328569
 107.2704672  56.3141908  95.5034558 105.9569140  55.1885625  90.1383842
 106.0785051  54.2602271  90.3374729 105.6671182  55.2024311  89.2262157
 100.4004159  68.8709366  92.6843595 101.2262179  68.5713138  92.3042238
 100.0498211  68.1016988  93.1333383  98.6012764  66.7895692  93.6432528
  97.7644672  66.3617867  93.4616530  98.5736409  66.9828136  94.5803319
 104.9299199  66.7739757  88.2299729 105.0787319  67.4575222  87.5766402
 105.7365642  66.7544847  88.7449185 102.6851832  62.8004935  89.2360798
 102.4397874  61.8967265  89.4341008 102.8547747  62.8022085  88.2940276
 101.9547480  58.5333293  86.7346959 101.2616724  58.6077648  86.0786995
 101.7099231  57.7693636  87.2568476 106.9984320  58.5298677  82.9782414
 106.0915776  58.2331790  83.0545128 107.2760301  58.2328495  82.1116700
  97.9162261  59.8505040  93.4281460  97.5965045  58.9970349  93.1355834
  97.3695689  60.0653619  94.1839428 105.7683105  55.3885612  83.1194393
 106.6302269  55.7140510  83.3790210 105.9533449  54.6017108  82.6067459
  97.7850521  63.4707952  95.3974582  97.0913992  63.0561905  94.8844536
  98.5323512  63.5128488  94.8008001  99.6987263  63.4026206  93.2740597
  99.6757951  63.5013893  92.3222480 100.0087900  64.2491356  93.5957763
 106.7212548  52.6281655  86.4074102 106.7091218  53.5723495  86.5642373
 107.6135970  52.4451801  86.1133563  70.6194034   5.9196057  81.2328805
  70.8590632   6.5514582  81.9107824  69.7763230   5.5684097  81.5194165
  82.5350065   9.9660358  78.2091343  81.9714930   9.8750295  77.4407631
  82.4202460   9.1460263  78.6893836  80.0814497  11.4611550  81.0475564
  80.8735789  11.1202374  80.6321863  80.3211147  11.5706525  81.9677717
  88.1149624  13.6331326  73.5205808  87.4637603  14.2185406  73.1339822
  88.9093987  14.1637521  73.5800846  82.0405251  10.7220463  73.9192943
  82.8136127  10.1749450  73.7805819  82.3930650  11.5864712  74.1307404
  83.8790293  12.0496845  87.1259842  83.5880159  12.9542476  87.0106508
  84.5147278  12.0913373  87.8403912  84.8046500   9.4273694  83.7161202
  85.4010073   9.2029716  83.0018165  84.8621472   8.6858439  84.3186650
  89.5924889  11.3221758  74.0574793  88.9570722  11.3956384  74.7695697
  89.2622295  11.9115357  73.3793872  84.0967817   8.7841235  73.7535768
  83.9804076   8.1086138  74.4216852  84.2070077   8.2973609  72.9367921
  88.8380179  11.7358261  84.1209636  88.5380902  12.6383300  84.0125443
  88.4931238  11.4690444  84.9730789  82.2892660   8.1872058  80.1546340
  81.3643156   8.0548272  80.3624032  82.5377073   8.9666277  80.6516283
  79.6501471   7.8305331  80.9890129  79.7793852   8.0839810  81.9029541
  78.9698922   8.4233039  80.6694784  83.8200958  18.5002581  77.0880603
  83.7424988  19.4510406  77.1669084  83.2162602  18.1548454  77.7455530
  84.5664560   8.4815900  89.3059937  85.3079245   9.0200944  89.0294761
  83.8601546   9.1082189  89.4631489  90.0419900  10.6245040  87.9032099
  90.4503256  10.1827451  87.1586731  89.3197162  10.0497668  88.1566292
  90.3648715  11.1846231  81.6584388  89.7357577  11.3491945  80.9560456
  89.9774377  11.5987840  82.4295352  94.2437947  12.1200669  79.0128751
  93.5588985  12.4999570  78.4625785  94.3281796  12.7295995  79.7460699
  85.9176677  10.9220639  78.9234473  86.3815022  11.2008342  78.1339095
  85.6533475  10.0204084  78.7407563  82.8100758  10.4692121  81.8614236
  83.3802115  10.8979389  81.2231721  83.4008869  10.1874705  82.5598422
  92.6134706  12.6432583  83.7846452  93.4352150  12.2412771  83.5029134
  92.6097109  12.5400817  84.7362568  86.3791310  12.1916627  85.9407163
  86.4435742  12.6537034  86.7765335  85.6702233  11.5613991  86.0689473
  76.8808600   5.5557835  83.4656162  77.1316638   6.4404844  83.7313738
  77.4168148   5.3762436  82.6931254  86.0939327  13.8584734  75.8086143
  85.9585002  14.7036270  76.2370991  86.6349140  14.0604012  75.0452077
  79.5468725  11.3760172  76.3814068  80.0593245  12.1703422  76.5319633
  80.1991437  10.6786463  76.3147670  81.3563609  14.4925928  78.4636821
  81.5330238  15.4143893  78.2757805  82.1520443  14.1784348  78.8931201
  87.7207804  14.4808301  89.9386485  87.2771658  13.6944679  89.6207390
  88.3825017  14.6687451  89.2730376  82.4794925  16.0104102  84.4647164
  83.0302350  15.8821165  83.6924158  81.6406401  16.3098991  84.1142057
  89.8189042  14.7611100  87.9667887  89.8007517  15.5819981  87.4748156
  90.7408962  14.6365176  88.1918028  86.2762096  12.2755230  88.8091395
  86.8090433  11.5143518  88.5790703  85.7476177  11.9828882  89.5515549
  77.5117641   9.7048826  77.1573639  78.3492863  10.1145835  76.9407346
  77.6895909   8.7648269  77.1273833  87.6414809  11.4041222  76.3210207
  87.1136170  10.6693982  76.0083444  87.1402311  12.1815899  76.0750175
  85.7867409   9.2221433  69.3245180  84.8794470   8.9910686  69.5236329
  86.2838441   8.4259052  69.5119161  88.6935488  17.9318940  72.2441866
  88.0197186  18.2350637  72.8526824  89.0801310  18.7348020  71.8947323
  86.9655642   9.3234028  73.8469170  86.0566861   9.0393060  73.9441640
  86.9950726   9.7433106  72.9872477  92.1974910  12.9340617  77.6160338
  91.7437237  12.0931527  77.6725528  91.5668876  13.5702015  77.9535118
  90.6407849  14.7717114  78.5510156  90.9330823  15.3322171  77.8322521
  91.1506469  15.0645675  79.3063315  77.5343813   7.0439542  77.8284372
  77.3368212   6.4508902  77.1035439  76.9790477   6.7391752  78.5460311
  86.6631730  10.8642771  71.1857249  86.2251160  10.1478630  70.7262886
  87.4042171  11.0918886  70.6242340  85.6041474  15.5497465  79.6403609
  85.5617653  15.7758311  78.7112141  86.5204173  15.3160839  79.7889410
  83.7207275  12.4260494  79.4365572  84.5147873  11.9310814  79.2348147
  83.0098967  11.8978357  79.0733277  88.5402119  14.8078589  83.7877939
  88.5939142  15.3769526  84.5555655  87.6716901  14.9780474  83.4231976
  87.4990219   8.9738851  85.3464871  88.4282279   9.1250011  85.1733838
  87.0781249   9.0622872  84.4913518  86.2978551  12.9989516  83.1163409
  86.1589636  12.6308300  83.9889347  85.5093147  13.5137155  82.9447367
  86.8926703  18.0998612  74.4588945  87.0678458  17.6286655  75.2734568
  86.2059491  18.7264378  74.6870206  87.8483766  12.3771119  80.5052247
  87.5133599  12.3371888  81.4009896  87.3487712  11.7115834  80.0322657
  81.8228010   7.7838749  86.0304828  81.6847808   7.0518987  86.6316367
  82.7332933   7.6947649  85.7489015  81.4587788  21.2487975  81.2328805
  81.6984386  21.8806499  81.9107824  80.6156985  20.8976015  81.5194165
  74.0943644   8.7289737  79.9952118  74.7814683   8.4151467  79.4073133
  73.9391772   9.6331102  79.7219369  85.9715650  17.0567097  83.6370309
  85.8985821  17.8622069  84.1489614  85.5293043  17.2559063  82.8118331
  85.7605430  16.2938868  77.1473131  84.9772951  16.8360548  77.2411355
  86.4598175  16.8112847  77.5467372  88.4314333  16.9553932  85.7928468
  89.1442306  17.5901396  85.7204370  87.9404362  17.0517798  84.9768470
  90.1531860  10.8605184  77.3645760  89.2188139  10.9806647  77.1950464
  90.3308529   9.9577651  77.1005770  83.4826247  14.7048375  86.6134039
  84.1835706  15.3384858  86.7663433  83.0121362  15.0463107  85.8529678
  91.6080643  13.0466325  74.8981946  91.8840487  12.9322919  75.8075820
  90.7385142  12.6483810  74.8594119  88.2434707  17.2952676  78.5414760
  88.4257101  16.4774332  79.0042512  89.0667693  17.5120368  78.1039650
  88.5776872  16.2220861  75.8029808  89.1064639  15.7113315  75.1899970
  88.8405092  15.9063391  76.6675341  79.0793965  14.2384730  83.5465142
  79.6647402  13.4928418  83.6793046  78.8818803  14.5488687  84.4301805
  81.9332620  17.2735977  78.5627584  81.2642996  17.7582105  78.0791624
  81.7945490  17.5205198  79.4770962  73.6711620   6.8090330  82.2669585
  73.7095719   6.2753921  83.0606703  73.1651913   6.2825536  81.6480562
  86.0737889  19.3079721  85.1610242  86.6256197  19.4711342  85.9259328
  86.4144082  19.8984159  84.4890267  89.2106276  17.2561696  82.1473924
  89.0857416  16.4551436  81.6384870  89.8685367  17.7507890  81.6587894
  91.2741185  15.0570717  83.7753475  90.3271520  14.9376068  83.7031801
  91.6223958  14.1693215  83.8579736  88.2787618  14.8523433  79.9757827
  88.1312580  13.9240140  80.1565397  89.1041111  14.8743523  79.4914902
  91.8821740  15.6751992  81.0622700  92.8068287  15.4694853  80.9247151
  91.7137043  15.4268393  81.9712041  91.6717056  16.1937659  76.4184791
  91.8453933  15.6284081  75.6658643  92.1645947  16.9938554  76.2364281
  77.4894016   8.2052328  84.4848350  76.9447484   8.9812136  84.6168624
  78.3673366   8.5523133  84.3267471  92.6592228  15.5104423  73.5181689
  93.3543133  16.1311116  73.7369004  93.0015378  14.6599775  73.7934067
  78.2760038   7.3322224  87.3778507  77.5341774   7.4804860  87.9643137
  77.9552782   7.5930490  86.5145256  94.5583651  12.9604129  75.0469020
  95.0834976  13.2991402  74.3218340  94.4706004  12.0251144  74.8632155
  86.2203700  16.8738203  87.1758897  86.5290827  16.6287349  88.0481596
  87.0179182  17.0784841  86.6877767  86.2424312  19.0276112  79.4064273
  85.8029303  18.5352491  80.0997130  86.9932429  18.4849080  79.1656348
  78.7216651  15.2187653  79.4088901  79.5474671  14.9191425  79.0287545
  78.3710703  14.4495275  79.8578690  83.6898184  14.5714121  81.4786575
  83.0678194  13.9084826  81.1788803  84.3603051  14.5975253  80.7960223
  76.9225256  13.1373979  80.3677835  76.0857165  12.7096154  80.1861836
  76.8948902  13.3306423  81.3048626  83.2511691  13.1218045  74.9545035
  83.3999812  13.8053509  74.3011708  84.0578135  13.1023135  75.4694491
  81.0064324   9.1483222  75.9606104  80.7610366   8.2445552  76.1586314
  81.1760239   9.1500373  75.0185582  86.7507097  15.6166175  72.4256783
  86.1781064  16.2356362  71.9727255  87.3239890  16.1665537  72.9596705
  89.9704357  15.9003325  73.5565365  90.9035030  15.8348887  73.7598241
  89.8827569  16.7359592  73.0979898  92.5992373  15.2169196  70.5169313
  92.5206005  14.8829059  71.4105071  93.4202040  15.7090963  70.5160785
  76.2374753   6.1983328  80.1526767  75.9177537   5.3448636  79.8601141
  75.6908181   6.4131906  80.9084734  80.0154660   8.9145769  83.8696274
  80.2340670   9.8462876  83.8884307  80.4280434   8.5553743  84.6551077
  76.1063013   9.8186239  82.1219889  75.4126484   9.4040192  81.6089843
  76.8536004   9.8606776  81.5253307  78.0199755   9.7504493  79.9985903
  77.9970443   9.8492180  79.0467787  78.3300392  10.5969644  80.3203070
  80.6787133  11.8080648  84.1132518  81.6330387  11.7764590  84.0462449
  80.4799657  11.3471272  84.9282744  81.2686515  10.3781764  86.6803316
  82.0879404  10.8725843  86.7038153  81.5423323   9.4613732  86.6520883
  79.0337362  17.3500267  81.1302716  78.8991830  16.5900668  80.5640714
  78.6169424  18.0741167  80.6631505  90.1696325  12.5337191  70.1379291
  90.8732175  12.7387193  70.7536947  89.4458974  13.1013953  70.4028375
  82.1906488  18.2469584  81.3421158  82.0738872  19.1915017  81.2399849
  81.3698934  17.9443146  81.7306958  92.0783022  12.9719720  72.1877751
  92.9128626  12.5400919  72.0055226  91.9167365  12.8001734  73.1154646
  83.2161002  18.8997846  84.5577087  84.1188249  18.9321457  84.8743582
  82.9898372  17.9698297  84.5723423  84.9714604  17.6528833  81.2187165
  84.0210235  17.6530694  81.1051538  85.2747090  16.9061567  80.7023200
 100.7067298  23.4889371  82.2832928 101.3445707  23.3696119  81.5796268
 100.5888140  24.4370215  82.3420880  97.5157004  23.4416799  82.2194453
  97.1775515  23.3257864  81.3314987  98.3846772  23.0407964  82.1995459
  93.3743820  25.2952276  78.2091343  92.8108685  25.2042213  77.4407631
  93.2596215  24.4752180  78.6893836  97.9976787  24.5951651  88.1780658
  97.9865428  24.2004449  87.3061162  98.1597426  23.8617724  88.7714430
  90.9208251  26.7903467  81.0475564  91.7129543  26.4494292  80.6321863
  91.1604902  26.8998442  81.9677717  98.9543378  28.9623243  73.5205808
  98.3031358  29.5477324  73.1339822  99.7487741  29.4929438  73.5800846
  92.8799005  26.0512381  73.9192943  93.6529881  25.5041368  73.7805819
  93.2324404  26.9156630  74.1307404  94.7184048  27.3788763  87.1259842
  94.4273914  28.2834394  87.0106508  95.3541032  27.4205290  87.8403912
  95.6440255  24.7565611  83.7161202  96.2403827  24.5321634  83.0018165
  95.7015226  24.0150357  84.3186650  95.2165283  22.2105047  71.5511393
  95.4690804  21.6886568  70.7894856  94.2789842  22.0471192  71.6538076
 100.2608566  21.2140825  79.3586136 101.0471655  20.7960248  79.0076553
 100.5247270  22.1186917  79.5267784 100.4318643  26.6513675  74.0574793
  99.7964476  26.7248302  74.7695697 100.1016050  27.2407274  73.3793872
 105.6616993  21.1516058  80.2619114 106.3942165  20.5815275  80.4956944
 104.9056349  20.7637659  80.7025620  94.9361572  24.1133153  73.7535768
  94.8197830  23.4378056  74.4216852  95.0463832  23.6265527  72.9367921
  97.2793113  23.5743300  77.4582457  96.9151320  23.0473921  78.1695378
  98.1360229  23.1841769  77.2848942  96.9198600  18.6033199  72.4543805
  97.0873002  19.4713436  72.8214276  96.7295769  18.7660481  71.5305095
  99.6773933  27.0650178  84.1209636  99.3774656  27.9675217  84.0125443
  99.3324993  26.7982362  84.9730789  93.1286415  23.5163975  80.1546340
  92.2036911  23.3840189  80.3624032  93.3770828  24.2958194  80.6516283
 103.0771077  19.5832719  81.8007073 102.1687954  19.5148127  81.5065834
 103.0258673  20.0604664  82.6288899  96.8987821  21.0590857  73.4390472
  96.7787446  21.5047908  74.2775952  96.2040409  21.4076175  72.8804010
  90.4895226  23.1597249  80.9890129  90.6187607  23.4131728  81.9029541
  89.8092677  23.7524957  80.6694784  94.6594713  33.8294499  77.0880603
  94.5818743  34.7802324  77.1669084  94.0556356  33.4840371  77.7455530
 102.5972887  21.5312330  74.2670806 103.5090743  21.7639717  74.0918504
 102.0882534  22.1149374  73.7045885  95.4058315  23.8107818  89.3059937
  96.1472999  24.3492861  89.0294761  94.6995300  24.4374106  89.4631489
 100.8813655  25.9536958  87.9032099 101.2897011  25.5119369  87.1586731
 100.1590916  25.3789586  88.1566292  97.2344725  20.8909565  85.2765656
  98.0805920  21.3148978  85.4200305  97.1743362  20.2343189  85.9704219
 101.2042469  26.5138149  81.6584388 100.5751332  26.6783863  80.9560456
 100.8168131  26.9279758  82.4295352 105.0831701  27.4492586  79.0128751
 104.3982739  27.8291488  78.4625785 105.1675550  28.0587913  79.7460699
 102.3382633  25.0952545  85.6124095 102.5499528  25.7384305  84.9358476
 102.2912381  24.2614862  85.1446025  99.9408862  17.7070366  82.5160667
  99.0793341  18.0051620  82.8077405  99.9671296  17.9240765  81.5841700
  96.7570431  26.2512557  78.9234473  97.2208777  26.5300260  78.1339095
  96.4927229  25.3496001  78.7407563  93.6494512  25.7984038  81.8614236
  94.2195869  26.2271307  81.2231721  94.2402624  25.5166623  82.5598422
  95.6939317  22.3735709  75.7324038  96.3963360  22.8256753  76.1997964
  95.3619946  21.7319528  76.3603931  94.1419679  20.9647466  90.1075247
  93.5118339  21.6463747  90.3410644  94.0355767  20.8530547  89.1628386
  89.4364651  20.6319262  81.0341171  88.6463705  20.8876790  80.5581282
  89.9275898  21.4467600  81.1393212 103.4528461  27.9724501  83.7846452
 104.2745904  27.5704688  83.5029134 103.4490864  27.8692735  84.7362568
  91.3879396  20.9963841  77.9924648  90.5910560  21.1082535  78.5108144
  91.1604989  21.3350493  77.1265539  97.2185064  27.5208544  85.9407163
  97.2829497  27.9828951  86.7765335  96.5095988  26.8905909  86.0689473
  87.7202354  20.8849752  83.4656162  87.9710392  21.7696762  83.7313738
  88.2561902  20.7054354  82.6931254  96.9333082  29.1876652  75.8086143
  96.7978757  30.0328187  76.2370991  97.4742894  29.3895929  75.0452077
  90.3862479  26.7052090  76.3814068  90.8987000  27.4995340  76.5319633
  91.0385192  26.0078380  76.3147670  92.1957364  29.8217846  78.4636821
  92.3723992  30.7435811  78.2757805  92.9914197  29.5076265  78.8931201
  91.4809720  21.8682478  88.3398985  91.3663236  20.9667735  88.6406084
  90.6254238  22.1146175  87.9883801  98.5601558  29.8100218  89.9386485
  98.1165412  29.0236597  89.6207390  99.2218772  29.9979369  89.2730376
  93.3188679  31.3396020  84.4647164  93.8696104  31.2113083  83.6924158
  92.4800155  31.6390909  84.1142057 100.6582796  30.0903018  87.9667887
 100.6401272  30.9111899  87.4748156 101.5802716  29.9657093  88.1918028
  97.1155850  27.6047148  88.8091395  97.6484187  26.8435436  88.5790703
  96.5869931  27.3120799  89.5515549  88.3511396  25.0340744  77.1573639
  89.1886618  25.4437752  76.9407346  88.5289664  24.0940186  77.1273833
 100.2475828  22.7015825  72.8457472  99.7322451  23.4720429  73.0845859
  99.9753136  22.0280961  73.4690533  97.8322939  17.5465525  77.9042710
  96.9764535  17.1572376  77.7248349  98.2449891  17.6257486  77.0442496
  99.3622086  15.0811869  82.3034270  98.8586881  15.0442004  81.4902075
  99.6552693  15.9904611  82.3630927  95.6064972  15.1650598  81.3100452
  96.4717968  14.9693407  80.9506341  95.6742480  14.9360950  82.2369808
 105.2210102  25.4548179  74.7810645 104.4439545  25.1159339  74.3365807
 105.9001583  25.4600802  74.1065610 100.0362131  20.5742917  74.6717253
  99.7312267  20.8889066  75.5227396 100.9892573  20.6524337  74.7144586
  98.4808563  26.7333140  76.3210207  97.9529925  25.9985900  76.0083444
  97.9796066  27.5107816  76.0750175 103.4601409  24.9282161  81.4377253
 102.8025084  25.6181422  81.5257382 104.2641808  25.3178593  81.7811240
  93.2127291  17.3952806  78.6816818  93.7871043  17.1727988  77.9490011
  93.7998273  17.4641501  79.4345420 102.2706868  23.2826533  79.4881195
 102.7838750  23.9156525  79.9902905 102.9208092  22.6827729  79.1224555
  93.5396878  19.4257267  72.7012704  92.7034190  19.7631954  73.0221978
  93.4001647  19.2906247  71.7639841  95.5149958  14.2694055  77.4091888
  94.8614371  13.9543072  76.7848503  95.4730433  13.6469796  78.1351711
  96.6261163  24.5513350  69.3245180  95.7188225  24.3202604  69.5236329
  97.1232195  23.7550970  69.5119161  99.5329242  33.2610858  72.2441866
  98.8590941  33.5642554  72.8526824  99.9195064  34.0639938  71.8947323
  98.7487699  20.7575989  81.7339535  97.8310260  20.9790936  81.5761224
  99.1647842  20.8322299  80.8751243  99.5322746  22.1567405  76.8642216
 100.2794565  22.6688802  76.5549338  99.8014336  21.8351457  77.7246609
  97.8049397  24.6525945  73.8469170  96.8960616  24.3684978  73.9441640
  97.8344480  25.0725024  72.9872477 103.0368664  28.2632535  77.6160338
 102.5830991  27.4223445  77.6725528 102.4062631  28.8993933  77.9535118
 101.9801584  19.1924521  78.8461005 101.2424340  18.6801907  79.1771248
 102.2328357  18.7524902  78.0344282 101.4801603  30.1009031  78.5510156
 101.7724578  30.6614089  77.8322521 101.9900224  30.3937592  79.3063315
  88.3737567  22.3731459  77.8284372  88.1761967  21.7800820  77.1035439
  87.8184231  22.0683670  78.5460311  96.3534291  22.2654566  79.9478965
  96.4082900  21.3128402  79.8721442  95.5425493  22.4214005  80.4320264
  97.5025484  26.1934689  71.1857249  97.0644914  25.4770548  70.7262886
  98.2435925  26.4210804  70.6242340  94.2926651  20.8831626  77.7069344
  93.4794516  21.1825796  78.1134536  94.7885645  20.4887314  78.4243826
  96.4435229  30.8789383  79.6403609  96.4011407  31.1050229  78.7112141
  97.3597927  30.6452757  79.7889410 105.6198599  24.4691886  77.2433567
 105.4816498  24.6593482  76.3154756 105.2634818  25.2311269  77.7001618
  93.7840725  18.4549981  83.3230579  94.4240105  18.3138740  82.6253542
  92.9518256  18.1684494  82.9469181 105.6467979  26.5368413  82.2544839
 106.0804486  26.4443702  83.1027893 106.3599560  26.5125913  81.6164855
  94.5601029  27.7552412  79.4365572  95.3541628  27.2602732  79.2348147
  93.8492722  27.2270275  79.0733277  99.3795874  30.1370507  83.7877939
  99.4332896  30.7061443  84.5555655  98.5110655  30.3072392  83.4231976
  90.8683793  21.8995493  75.5125324  89.9381381  21.8379949  75.7295286
  90.9641265  21.3771446  74.7161966  90.7869342  18.4250306  78.1003566
  91.0476159  19.3395639  77.9912726  91.6086514  17.9574749  78.2500179
  92.2594267  19.8388063  85.2702391  92.9317321  19.6305425  84.6215039
  91.4324054  19.6410149  84.8307623  98.3383974  24.3030769  85.3464871
  99.2676034  24.4541929  85.1733838  97.9175004  24.3914790  84.4913518
  97.1372305  28.3281434  83.1163409  96.9983391  27.9600218  83.9889347
  96.3486902  28.8429073  82.9447367  97.7320457  33.4290530  74.4588945
  97.9072213  32.9578573  75.2734568  97.0453245  34.0556296  74.6870206
  98.6877520  27.7063036  80.5052247  98.3527353  27.6663806  81.4009896
  98.1881466  27.0407752  80.0322657  92.6621764  23.1130666  86.0304828
  92.5241562  22.3810905  86.6316367  93.5726688  23.0239566  85.7489015
 101.6236712  25.0519071  70.7789306 101.0065883  24.3265899  70.6822359
 101.1553201  25.8128431  70.4356380  95.2904065  22.8250626  85.5188507
  96.0003684  22.1843818  85.4775126  95.2473373  23.0763520  86.4414688
  94.0032999  19.8115843  87.3384147  93.4670356  19.3606582  87.9905743
  93.4149707  19.9461752  86.5954611  92.2981543  36.5779893  81.2328805
  92.5378141  37.2098417  81.9107824  91.4550739  36.2267933  81.5194165
  93.4135258  19.2704495  69.9010610  92.5364724  19.1493296  69.5372857
  93.8893011  18.4790573  69.6489499  84.9337398  24.0581655  79.9952118
  85.6208438  23.7443385  79.4073133  84.7785527  24.9623019  79.7219369
  89.7372120  18.9471851  84.4237141  89.6530309  18.3397521  83.6887551
  88.9154827  19.4380869  84.4246638  96.8109404  32.3859015  83.6370309
  96.7379576  33.1913987  84.1489614  96.3686798  32.5850981  82.8118331
  96.5999184  31.6230785  77.1473131  95.8166706  32.1652465  77.2411355
  97.2991929  32.1404765  77.5467372  99.9095834  17.4325415  79.7907336
 100.4064534  16.6795377  79.4708407  99.1382816  17.4689731  79.2250546
  99.2708088  32.2845849  85.7928468  99.9836060  32.9193314  85.7204370
  98.7798117  32.3809715  84.9768470 100.9925615  26.1897102  77.3645760
 100.0581894  26.3098564  77.1950464 101.1702283  25.2869569  77.1005770
  96.4930803  19.5742798  79.5179021  96.1228590  19.0213838  80.2059927
  96.9889895  18.9700931  78.9654021 104.3798166  22.0314421  77.8995794
 104.8458618  22.8642413  77.8256097 104.8305667  21.5659403  78.6041052
  94.3220001  30.0340293  86.6134039  95.0229461  30.6676776  86.7663433
  93.8515116  30.3755024  85.8529678 102.4474397  28.3758242  74.8981946
 102.7234241  28.2614837  75.8075820 101.5778896  27.9775727  74.8594119
 102.1221287  22.5884900  84.4386589 101.4692738  22.8360808  83.7839042
 102.5001667  21.7749038  84.1049067  99.0828461  32.6244593  78.5414760
  99.2650856  31.8066249  79.0042512  99.9061447  32.8412286  78.1039650
  99.4170627  31.5512778  75.8029808  99.9458393  31.0405233  75.1899970
  99.6798846  31.2355309  76.6675341  89.9187720  29.5676648  83.5465142
  90.5041156  28.8220336  83.6793046  89.7212558  29.8780604  84.4301805
  92.7726375  32.6027895  78.5627584  92.1036750  33.0874023  78.0791624
  92.6339244  32.8497116  79.4770962  84.5105374  22.1382248  82.2669585
  84.5489474  21.6045839  83.0606703  84.0045667  21.6117453  81.6480562
  96.9131643  34.6371639  85.1610242  97.4649951  34.8003260  85.9259328
  97.2537837  35.2276076  84.4890267  91.8896137  16.9846788  85.7632127
  91.9537463  17.8461619  85.3509525  91.8263257  16.3720790  85.0304486
  91.3648409  19.0569921  89.4105161  91.9920448  18.6746998  90.0242686
  90.5076328  18.8384123  89.7760854  88.1413952  20.8646350  75.3423516
  88.4367393  19.9557028  75.2890570  87.2401988  20.8434090  75.0204518
 100.0500031  32.5853614  82.1473924  99.9251170  31.7843354  81.6384870
 100.7079122  33.0799808  81.6587894  91.6708199  18.9402347  81.3251065
  90.9494785  19.5538314  81.1858538  92.4601455  19.4760111  81.2467711
 102.1134939  30.3862634  83.7753475 101.1665275  30.2667985  83.7031801
 102.4617712  29.4985132  83.8579736  89.8701793  18.5460448  75.4662841
  89.5414500  17.6657827  75.2837947  90.2241164  18.4908116  76.3539230
  99.1181372  30.1815350  79.9757827  98.9706335  29.2532058  80.1565397
  99.9434866  30.2035441  79.4914902  92.9843617  18.8333418  75.8338319
  93.3239689  19.3619339  75.1116927  93.4315737  19.1713824  76.6096885
 102.7215494  31.0043909  81.0622700 103.6462042  30.7986771  80.9247151
 102.5530798  30.7560310  81.9712041  95.6787057  17.2170468  85.2841387
  95.3383878  16.4178281  85.6862067  94.9726064  17.5172179  84.7118220
  96.3303529  14.3019781  83.7368710  97.1529599  13.8280259  83.6147600
  96.5741593  15.0810264  84.2367396  94.9711764  17.3308039  74.0331612
  95.6920126  17.7089292  73.5295329  94.3477068  18.0496916  74.1366590
  99.1142887  18.0353188  74.9689944  99.3306501  18.9177826  74.6678772
  98.6336954  17.6439402  74.2395586  93.8542108  20.9938901  81.5460689
  93.7086689  21.3079204  82.4384970  93.3767312  21.6123802  80.9931587
  95.7138491  17.9841449  81.5941578  95.7000060  17.0882543  81.2573876
  96.4310919  17.9912113  82.2279864  97.5664622  18.4178790  83.6394706
  97.3082399  19.3395860  83.6379036  97.0349662  18.0209224  84.3295170
 102.5110810  31.5229577  76.4184791 102.6847688  30.9575999  75.6658643
 103.0039702  32.3230472  76.2364281  88.3287770  23.5344246  84.4848350
  87.7841238  24.3104054  84.6168624  89.2067120  23.8815050  84.3267471
  95.1175387  16.8655830  76.8629148  95.2391298  15.9372476  77.0620036
  94.8277429  16.8794516  75.9507464  97.9866577  14.5510740  79.9995868
  98.0088274  14.6150073  79.0447848  98.4034636  13.7115249  80.1936374
 103.4985983  30.8396341  73.5181689 104.1936887  31.4603034  73.7369004
 103.8409133  29.9891692  73.7934067  89.1153792  22.6614142  87.3778507
  88.3735528  22.8096777  87.9643137  88.7946536  22.9222408  86.5145256
 105.3977406  28.2896047  75.0469020 105.9228730  28.6283319  74.3218340
 105.3099759  27.3543062  74.8632155  97.0597455  32.2030120  87.1758897
  97.3684581  31.9579267  88.0481596  97.8572937  32.4076759  86.6877767
  97.0818067  34.3568030  79.4064273  96.6423057  33.8644409  80.0997130
  97.8326184  33.8140998  79.1656348  89.5610406  30.5479571  79.4088901
  90.3868426  30.2483343  79.0287545  89.2104458  29.7787193  79.8578690
  94.5291939  29.9006039  81.4786575  93.9071948  29.2376744  81.1788803
  95.1996806  29.9267171  80.7960223  87.7619011  28.4665897  80.3677835
  86.9250919  28.0388072  80.1861836  87.7342656  28.6598341  81.3048626
  94.0905446  28.4509962  74.9545035  94.2393566  29.1345427  74.3011708
  94.8971889  28.4315052  75.4694491  91.8458079  24.4775140  75.9606104
  91.6004121  23.5737470  76.1586314  92.0153993  24.4792290  75.0185582
  91.1153726  20.2103497  73.4592266  90.4222971  20.2847852  72.8032302
  90.8705478  19.4463841  73.9813783  97.5900851  30.9458093  72.4256783
  97.0174818  31.5648280  71.9727255  98.1633645  31.4957454  72.9596705
 100.8098111  31.2295243  73.5565365 101.7428784  31.1640805  73.7598241
 100.7221324  32.0651510  73.0979898 103.4386128  30.5461113  70.5169313
 103.3599759  30.2120977  71.4105071 104.2595795  31.0382881  70.5160785
  97.9747650  22.2818905  69.7672835  98.9206755  22.1525114  69.8361253
  97.5961895  21.5433567  70.2442264  96.1590567  20.2068882  69.7027721
  95.2522022  19.9101995  69.7790434  96.4366548  19.9098700  68.8362007
  87.0768507  21.5275245  80.1526767  86.7571292  20.6740553  79.8601141
  86.5301936  21.7423823  80.9084734  90.8548415  24.2437686  83.8696274
  91.0734425  25.1754794  83.8884307  91.2674189  23.8845661  84.6551077
  97.7752633  14.7505772  75.8571962  96.9653361  14.4052857  76.2327208
  98.4637050  14.4413315  76.4459573  94.9289352  17.0655817  69.8439700
  95.7908516  17.3910715  70.1035517  95.1139696  16.2787313  69.3312766
  86.9456767  25.1478157  82.1219889  86.2520239  24.7332110  81.6089843
  87.6929758  25.1898693  81.5253307 103.0821988  15.9384344  76.9874923
 102.5020657  16.5969148  76.6052975 102.8157921  15.1161688  76.5762340
 101.5325554  15.3389401  79.1896243 102.0325333  15.4505936  78.3810562
 102.1761162  15.0350454  79.8297052  88.8593510  25.0796411  79.9985903
  88.8364198  25.1784098  79.0467787  89.1694146  25.9261561  80.3203070
  91.5180888  27.1372566  84.1132518  92.4724141  27.1056508  84.0462449
  91.3193411  26.6763189  84.9282744  92.1080270  25.7073682  86.6803316
  92.9273159  26.2017760  86.7038153  92.3817078  24.7905650  86.6520883
 101.8646866  18.0984434  76.0431271 100.9772721  18.3834085  75.8251466
 102.2800855  17.9378197  75.1958548  89.8731117  32.6792185  81.1302716
  89.7385584  31.9192586  80.5640714  89.4563179  33.4033085  80.6631505
 101.0090080  27.8629109  70.1379291 101.7125930  28.0679111  70.7536947
 100.2852728  28.4305871  70.4028375 101.8387890  23.6138970  76.2581561
 101.7823091  24.0707521  75.4189194 102.3916232  22.8529654  76.0804404
 105.6492696  19.4028702  77.0831681 105.3929630  19.0025337  77.9139888
 105.0245564  20.1172496  76.9581820  93.0300242  33.5761502  81.3421158
  92.9132627  34.5206935  81.2399849  92.2092689  33.2735064  81.7306958
 102.9176777  28.3011638  72.1877751 103.7522381  27.8692836  72.0055226
 102.7561120  28.1293651  73.1154646 102.5722669  24.8043751  73.5534090
 102.5171473  24.6388023  72.6122535 101.9468724  25.5119784  73.7096280
  87.3615184  20.0411815  87.3795513  88.0074048  19.5310769  87.8682738
  87.1532335  20.7780497  87.9538938  95.8818795  14.3051860  73.1319409
  95.8697464  15.2493700  73.2887680  96.7742216  14.1222006  72.8378870
  94.0554757  34.2289764  84.5577087  94.9582003  34.2613374  84.8743582
  93.8292127  33.2990215  84.5723423  95.8108359  32.9820751  81.2187165
  94.8603990  32.9822612  81.1051538  96.1140845  32.2353485  80.7023200
 104.2137574  40.6244193  78.2091343 103.6502439  40.5334130  77.4407631
 104.0989969  39.8044098  78.6893836 101.7602006  42.1195385  81.0475564
 102.5523298  41.7786210  80.6321863 101.9998656  42.2290360  81.9677717
 103.7192760  41.3804298  73.9192943 104.4923636  40.8333285  73.7805819
 104.0718159  42.2448548  74.1307404 105.5577802  42.7080681  87.1259842
 105.2667668  43.6126311  87.0106508 106.1934787  42.7497208  87.8403912
 106.4834009  40.0857529  83.7161202 107.0797582  39.8613551  83.0018165
 106.5408981  39.3442275  84.3186650 106.0559038  37.5396964  71.5511393
 106.3084558  37.0178486  70.7894856 105.1183597  37.3763110  71.6538076
 105.7755326  39.4425070  73.7535768 105.6591585  38.7669974  74.4216852
 105.8857586  38.9557444  72.9367921 107.7592354  33.9325117  72.4543805
 107.9266757  34.8005354  72.8214276 107.5689523  34.0952399  71.5305095
 103.9680169  38.8455893  80.1546340 103.0430665  38.7132107  80.3624032
 104.2164582  39.6250112  80.6516283 107.7381575  36.3882775  73.4390472
 107.6181200  36.8339825  74.2775952 107.0434164  36.7368092  72.8804010
 101.3288980  38.4889166  80.9890129 101.4581361  38.7423645  81.9029541
 100.6486431  39.0816874  80.6694784 105.4988467  49.1586416  77.0880603
 105.4212497  50.1094241  77.1669084 104.8950111  48.8132289  77.7455530
 106.2452069  39.1399735  89.3059937 106.9866754  39.6784779  89.0294761
 105.5389055  39.7666024  89.4631489 107.5964186  41.5804474  78.9234473
 108.0602531  41.8592177  78.1339095 107.3320984  40.6787919  78.7407563
 104.4888267  41.1275956  81.8614236 105.0589624  41.5563224  81.2231721
 105.0796378  40.8458541  82.5598422 106.5333072  37.7027627  75.7324038
 107.2357115  38.1548670  76.1997964 106.2013700  37.0611446  76.3603931
 104.9813433  36.2939383  90.1075247 104.3512094  36.9755664  90.3410644
 104.8749521  36.1822465  89.1628386 100.2758406  35.9611179  81.0341171
  99.4857460  36.2168708  80.5581282 100.7669653  36.7759517  81.1393212
 102.2273151  36.3255759  77.9924648 101.4304314  36.4374453  78.5108144
 101.9998743  36.6642411  77.1265539 108.0578819  42.8500462  85.9407163
 108.1223251  43.3120869  86.7765335 107.3489742  42.2197827  86.0689473
  98.5596109  36.2141670  83.4656162  98.8104147  37.0988680  83.7313738
  99.0955657  36.0346271  82.6931254 107.7726836  44.5168569  75.8086143
 107.6372511  45.3620105  76.2370991 108.3136649  44.7187847  75.0452077
 101.2256234  42.0344007  76.3814068 101.7380754  42.8287258  76.5319633
 101.8778946  41.3370298  76.3147670 103.0351118  45.1509764  78.4636821
 103.2117747  46.0727728  78.2757805 103.8307952  44.8368183  78.8931201
 102.3203475  37.1974396  88.3398985 102.2056990  36.2959653  88.6406084
 101.4647993  37.4438092  87.9883801 104.1582434  46.6687937  84.4647164
 104.7089859  46.5405001  83.6924158 103.3193910  46.9682826  84.1142057
  99.1905150  40.3632662  77.1573639 100.0280372  40.7729670  76.9407346
  99.3683418  39.4232104  77.1273833 106.4458726  30.4942516  81.3100452
 107.3111723  30.2985325  80.9506341 106.5136235  30.2652868  82.2369808
 104.0521045  32.7244724  78.6816818 104.6264797  32.5019906  77.9490011
 104.6392028  32.7933419  79.4345420 104.3790632  34.7549185  72.7012704
 103.5427945  35.0923872  73.0221978 104.2395402  34.6198165  71.7639841
 106.3543713  29.5985973  77.4091888 105.7008125  29.2834990  76.7848503
 106.3124187  28.9761713  78.1351711 107.4654918  39.8805268  69.3245180
 106.5581979  39.6494521  69.5236329 107.9625950  39.0842887  69.5119161
  99.2131322  37.7023377  77.8284372  99.0155721  37.1092738  77.1035439
  98.6577986  37.3975587  78.5460311 107.1928045  37.5946484  79.9478965
 107.2476655  36.6420320  79.8721442 106.3819247  37.7505923  80.4320264
 105.1320405  36.2123543  77.7069344 104.3188271  36.5117714  78.1134536
 105.6279399  35.8179232  78.4243826 107.2828983  46.2081300  79.6403609
 107.2405162  46.4342146  78.7112141 108.1991682  45.9744675  79.7889410
 104.6234480  33.7841899  83.3230579 105.2633859  33.6430658  82.6253542
 103.7912010  33.4976412  82.9469181 105.3994784  43.0844329  79.4365572
 106.1935382  42.5894649  79.2348147 104.6886476  42.5562192  79.0733277
 101.7077547  37.2287411  75.5125324 100.7775135  37.1671866  75.7295286
 101.8035019  36.7063364  74.7161966 101.6263096  33.7542224  78.1003566
 101.8869914  34.6687557  77.9912726 102.4480269  33.2866666  78.2500179
 103.0988022  35.1679981  85.2702391 103.7711075  34.9597343  84.6215039
 102.2717808  34.9702067  84.8307623 107.9766060  43.6573351  83.1163409
 107.8377145  43.2892136  83.9889347 107.1880656  44.1720991  82.9447367
 103.5015519  38.4422584  86.0304828 103.3635317  37.7102823  86.6316367
 104.4120442  38.3531484  85.7489015 106.1297820  38.1542543  85.5188507
 106.8397438  37.5135735  85.4775126 106.0867128  38.4055438  86.4414688
 104.8426754  35.1407761  87.3384147 104.3064111  34.6898500  87.9905743
 104.2543462  35.2753670  86.5954611 103.1375297  51.9071810  81.2328805
 103.3771895  52.5390335  81.9107824 102.2944494  51.5559850  81.5194165
 104.2529012  34.5996413  69.9010610 103.3758479  34.4785213  69.5372857
 104.7286766  33.8082491  69.6489499  95.7731153  39.3873572  79.9952118
  96.4602192  39.0735302  79.4073133  95.6179281  40.2914937  79.7219369
 100.5765875  34.2763769  84.4237141 100.4924064  33.6689438  83.6887551
  99.7548581  34.7672787  84.4246638 107.6503159  47.7150933  83.6370309
 107.5773330  48.5205904  84.1489614 107.2080552  47.9142899  82.8118331
 107.4392939  46.9522703  77.1473131 106.6560460  47.4944383  77.2411355
 108.1385684  47.4696683  77.5467372 107.3324557  34.9034715  79.5179021
 106.9622345  34.3505756  80.2059927 107.8283650  34.2992849  78.9654021
 105.1613756  45.3632210  86.6134039 105.8623215  45.9968693  86.7663433
 104.6908871  45.7046942  85.8529678 100.7581474  44.8968565  83.5465142
 101.3434911  44.1512253  83.6793046 100.5606312  45.2072522  84.4301805
 103.6120129  47.9319813  78.5627584 102.9430505  48.4165940  78.0791624
 103.4732999  48.1789033  79.4770962  95.3499129  37.4674166  82.2669585
  95.3883228  36.9337756  83.0606703  94.8439422  36.9409371  81.6480562
 107.7525398  49.9663556  85.1610242 108.3043706  50.1295178  85.9259328
 108.0931591  50.5567994  84.4890267 102.7289891  32.3138706  85.7632127
 102.7931218  33.1753537  85.3509525 102.6657011  31.7012708  85.0304486
 102.2042164  34.3861839  89.4105161 102.8314202  34.0038916  90.0242686
 101.3470082  34.1676041  89.7760854  98.9807706  36.1938268  75.3423516
  99.2761147  35.2848946  75.2890570  98.0795742  36.1726007  75.0204518
 102.5101953  34.2694264  81.3251065 101.7888539  34.8830232  81.1858538
 103.2995209  34.8052029  81.2467711 100.7095548  33.8752365  75.4662841
 100.3808254  32.9949744  75.2837947 101.0634919  33.8200034  76.3539230
 103.8237371  34.1625335  75.8338319 104.1633444  34.6911256  75.1116927
 104.2709492  34.5005741  76.6096885 106.5180812  32.5462386  85.2841387
 106.1777632  31.7470199  85.6862067 105.8119818  32.8464097  84.7118220
 107.1697284  29.6311698  83.7368710 107.9923353  29.1572177  83.6147600
 107.4135347  30.4102182  84.2367396 105.8105518  32.6599957  74.0331612
 106.5313881  33.0381210  73.5295329 105.1870822  33.3788834  74.1366590
 104.6935862  36.3230819  81.5460689 104.5480443  36.6371122  82.4384970
 104.2161066  36.9415719  80.9931587 106.5532245  33.3133367  81.5941578
 106.5393814  32.4174460  81.2573876 107.2704673  33.3204031  82.2279864
  99.1681525  38.8636163  84.4848350  98.6234993  39.6395971  84.6168624
 100.0460875  39.2106968  84.3267471 105.9569141  32.1947747  76.8629148
 106.0785052  31.2664393  77.0620036 105.6671184  32.2086433  75.9507464
  99.9547547  37.9906060  87.3778507  99.2129283  38.1388695  87.9643137
  99.6340291  38.2514325  86.5145256 100.4004160  45.8771488  79.4088901
 101.2262180  45.5775260  79.0287545 100.0498212  45.1079111  79.8578690
 105.3685693  45.2297957  81.4786575 104.7465703  44.5668662  81.1788803
 106.0390560  45.2559089  80.7960223  98.6012765  43.7957815  80.3677835
  97.7644674  43.3679989  80.1861836  98.5736411  43.9890258  81.3048626
 104.9299200  43.7801880  74.9545035 105.0787321  44.4637344  74.3011708
 105.7365644  43.7606970  75.4694491 102.6851833  39.8067058  75.9606104
 102.4397875  38.9029388  76.1586314 102.8547748  39.8084208  75.0185582
 101.9547481  35.5395415  73.4592266 101.2616726  35.6139770  72.8032302
 101.7099233  34.7755759  73.9813783 106.9984321  35.5360800  69.7027721
 106.0915777  35.2393912  69.7790434 107.2760302  35.2390618  68.8362007
  97.9162262  36.8567163  80.1526767  97.5965046  36.0032471  79.8601141
  97.3695690  37.0715741  80.9084734 101.6942169  39.5729604  83.8696274
 101.9128179  40.5046712  83.8884307 102.1067943  39.2137578  84.6551077
 105.7683106  32.3947735  69.8439700 106.6302270  32.7202633  70.1035517
 105.9533450  31.6079231  69.3312766  97.7850522  40.4770074  82.1219889
  97.0913993  40.0624027  81.6089843  98.5323513  40.5190611  81.5253307
  99.6987264  40.4088328  79.9985903  99.6757952  40.5076016  79.0467787
 100.0087901  41.2553479  80.3203070 102.3574642  42.4664483  84.1132518
 103.3117896  42.4348426  84.0462449 102.1587166  42.0055107  84.9282744
 102.9474024  41.0365599  86.6803316 103.7666913  41.5309678  86.7038153
 103.2210832  40.1197567  86.6520883 100.7124871  48.0084103  81.1302716
 100.5779339  47.2484504  80.5640714 100.2956933  48.7325003  80.6631505
 103.8693997  48.9053420  81.3421158 103.7526381  49.8498852  81.2399849
 103.0486443  48.6026981  81.7306958  98.2008939  35.3703733  87.3795513
  98.8467802  34.8602687  87.8682738  97.9926090  36.1072415  87.9538938
 106.7212549  29.6343778  73.1319409 106.7091219  30.5785618  73.2887680
 107.6135971  29.4513923  72.8378870 104.8948511  49.5581682  84.5577087
 105.7975758  49.5905292  84.8743582 104.6685881  48.6282133  84.5723423
 106.6502113  48.3112668  81.2187165 105.6997744  48.3114530  81.1051538
 106.9534599  47.5645403  80.7023200 106.6124907  54.7165490  79.9952118
 107.2995947  54.4027220  79.4073133 106.4573036  55.6206855  79.7219369
 106.1892883  52.7966083  82.2669585 106.2276983  52.2629674  83.0606703
 105.6833176  52.2701289  81.6480562  92.2981544  13.5842015  67.9574112
  92.5378142  14.2160539  68.6353131  91.4550740  13.2330055  68.2439471
 104.2137575  17.6306316  64.9336650 103.6502440  17.5396253  64.1652938
 104.0989970  16.8106220  65.4139143 101.7602007  19.1257508  67.7720871
 102.5523299  18.7848332  67.3567170 101.9998657  19.2352483  68.6923024
 103.7192761  18.3866421  60.6438249 104.4923637  17.8395408  60.5051125
 104.0718160  19.2510670  60.8552711 105.5577804  19.7142803  73.8505149
 105.2667670  20.6188434  73.7351815 106.1934788  19.7559331  74.5649218
 106.4834011  17.0919652  70.4406508 107.0797583  16.8675674  69.7263471
 106.5408982  16.3504397  71.0431956 105.7755328  16.4487193  60.4781074
 105.6591586  15.7732096  61.1462159 105.8857588  15.9619567  59.6613227
 103.9680170  15.8518016  66.8791647 103.0430667  15.7194230  67.0869339
 104.2164583  16.6312235  67.3761589 101.3288981  15.4951289  67.7135436
 101.4581362  15.7485768  68.6274848 100.6486433  16.0878997  67.3940091
 105.4988469  26.1648539  63.8125910 105.4212498  27.1156364  63.8914391
 104.8950112  25.8194412  64.4700836 106.2452071  16.1461858  76.0305244
 106.9866755  16.6846902  75.7540068 105.5389056  16.7728147  76.1876796
 107.5964187  18.5866597  65.6479779 108.0602532  18.8654300  64.8584402
 107.3320985  17.6850042  65.4652870 104.4888268  18.1338079  68.5859543
 105.0589625  18.5625347  67.9477027 105.0796380  17.8520663  69.2843728
 108.0578820  19.8562584  72.6652469 108.1223252  20.3182992  73.5010641
 107.3489744  19.2259949  72.7934779  98.5596110  13.2203792  70.1901469
  98.8104148  14.1050802  70.4559045  99.0955658  13.0408394  69.4176561
 107.7726837  21.5230692  62.5331450 107.6372512  22.3682228  62.9616298
 108.3136650  21.7249970  61.7697384 101.2256235  19.0406130  63.1059375
 101.7380755  19.8349380  63.2564940 101.8778948  18.3432420  63.0392976
 103.0351120  22.1571886  65.1882128 103.2117748  23.0789851  65.0003112
 103.8307953  21.8430305  65.6176508 104.1582435  23.6750060  71.1892470
 104.7089860  23.5467123  70.4169464 103.3193911  23.9744949  70.8387363
  99.1905152  17.3694784  63.8818945 100.0280374  17.7791793  63.6652653
  99.3683419  16.4294226  63.8519139 107.4654919  16.8867391  56.0490487
 106.5581981  16.6556644  56.2481636 107.9625951  16.0905010  56.2364468
  99.2131323  14.7085500  64.5529679  99.0155723  14.1154860  63.8280745
  98.6577987  14.4037710  65.2705618 107.2828984  23.2143423  66.3648916
 107.2405163  23.4404269  65.4357448 108.1991683  22.9806797  66.5134717
 105.3994785  20.0906452  66.1610878 106.1935384  19.5956772  65.9593453
 104.6886477  19.5624315  65.7978584 107.9766061  20.6635474  69.8408715
 107.8377147  20.2954258  70.7134653 107.1880657  21.1783113  69.6692673
 103.5015520  15.4484707  72.7550134 103.3635318  14.7164945  73.3561673
 104.4120444  15.3593607  72.4734322 103.1375298  28.9133933  67.9574112
 103.3771897  29.5452457  68.6353131 102.2944495  28.5621973  68.2439471
  95.7731154  16.3935695  66.7197424  96.4602194  16.0797425  66.1318440
  95.6179283  17.2977059  66.4464676 107.6503160  24.7213055  70.3615616
 107.5773332  25.5268027  70.8734921 107.2080553  24.9205021  69.5363637
 107.4392940  23.9584825  63.8718438 106.6560462  24.5006506  63.9656662
 108.1385685  24.4758805  64.2712679 105.1613757  22.3694333  73.3379346
 105.8623217  23.0030816  73.4908740 104.6908872  22.7109064  72.5774985
 100.7581475  21.9030688  70.2710448 101.3434912  21.1574376  70.4038352
 100.5606314  22.2134645  71.1547112 103.6120130  24.9381935  65.2872891
 102.9430506  25.4228063  64.8036931 103.4733000  25.1851156  66.2016269
  95.3499130  14.4736288  68.9914891  95.3883230  13.9399879  69.7852009
  94.8439423  13.9471494  68.3725869 107.7525399  26.9725679  71.8855549
 108.3043707  27.1357300  72.6504634 108.0931593  27.5630117  71.2135574
  99.1681526  15.8698286  71.2093656  98.6234994  16.6458094  71.3413931
 100.0460876  16.2169090  71.0512778  99.9547548  14.9968182  74.1023813
  99.2129284  15.1450818  74.6888444  99.6340292  15.2576448  73.2390563
 100.4004161  22.8833611  66.1334208 101.2262181  22.5837383  65.7532851
 100.0498213  22.1141233  66.5823997 105.3685695  22.2360079  68.2031882
 104.7465704  21.5730784  67.9034109 106.0390562  22.2621211  67.5205529
  98.6012766  20.8019937  67.0923142  97.7644675  20.3742112  66.9107143
  98.5736412  20.9952381  68.0293933 104.9299202  20.7864003  61.6790342
 105.0787322  21.4699467  61.0257015 105.7365645  20.7669093  62.1939798
 102.6851834  16.8129180  62.6851411 102.4397876  15.9091510  62.8831621
 102.8547749  16.8146331  61.7430889  97.9162263  13.8629286  66.8772074
  97.5965047  13.0094594  66.5846448  97.3695691  14.0777864  67.6330041
 101.6942171  16.5791727  70.5941580 101.9128180  17.5108834  70.6129614
 102.1067944  16.2199701  71.3796384  97.7850523  17.4832197  68.8465195
  97.0913995  17.0686150  68.3335150  98.5323514  17.5252734  68.2498614
  99.6987266  17.4150451  66.7231210  99.6757954  17.5138138  65.7713093
 100.0087902  18.2615602  67.0448376 102.3574643  19.4726606  70.8377825
 103.3117897  19.4410548  70.7707756 102.1587167  19.0117230  71.6528050
 102.9474026  18.0427722  73.4048622 103.7666915  18.5371801  73.4283459
 103.2210833  17.1259690  73.3766190 100.7124872  25.0146225  67.8548022
 100.5779340  24.2546626  67.2886020 100.2956935  25.7387125  67.3876811
 103.8693998  25.9115542  68.0666465 103.7526382  26.8560975  67.9645155
 103.0486444  25.6089104  68.4552264 104.8948512  26.5643804  71.2822393
 105.7975759  26.5967415  71.5988888 104.6685882  25.6344255  71.2968729
 106.6502114  25.3174791  67.9432472 105.6997745  25.3176652  67.8296844
 106.9534600  24.5707525  67.4268507 106.6124908  31.7227613  66.7197424
 107.2995948  31.4089343  66.1318440 106.4573037  32.6268977  66.4464676
 106.1892884  29.8028206  68.9914891 106.2276984  29.2691797  69.7852009
 105.6833177  29.2763411  68.3725869  34.4966711  56.2548737 112.0705943
  33.8228410  56.5580433 112.6790901  34.8832533  57.0577817 111.7211400
  38.4023597  53.5398992 110.3433390  38.3237229  53.2058856 111.2369148
  39.2233264  54.0320760 110.3424862  35.9727549  50.8566988 109.9643368
  36.6763399  51.0616990 110.5801024  35.2490198  51.4243750 110.2292452
  39.1775043  63.6182073 118.0355420  38.6139908  63.5272010 117.2671708
  39.0627438  62.7981977 118.5157913  44.7574602  67.2853040 113.3469885
  44.1062582  67.8707121 112.9603899  45.5518965  67.8159235 113.4064923
  38.6830229  64.3742177 113.7457020  39.4561105  63.8271165 113.6069896
  39.0355628  65.2386427 113.9571481  41.0196507  60.5334844 111.3775470
  41.2722028  60.0116365 110.6158933  40.0821066  60.3700989 111.4802153
  46.0639790  59.5370622 119.1850213  46.8502879  59.1190045 118.8340630
  46.3278494  60.4416714 119.3531861  46.2349867  64.9743472 113.8838870
  45.5995700  65.0478099 114.5959774  45.9047274  65.5637071 113.2057949
  40.7392796  62.4362950 113.5799845  40.6229054  61.7607853 114.2480929
  40.8495056  61.9495323 112.7631998  43.0824337  61.8973097 117.2846534
  42.7182544  61.3703718 117.9959455  43.9391453  61.5071566 117.1113019
  42.7229824  56.9262996 112.2807882  42.8904226  57.7943233 112.6478353
  42.5326993  57.0890278 111.3569172  42.7019045  59.3820654 113.2654549
  42.5818670  59.8277705 114.1040029  42.0071633  59.7305972 112.7068087
  48.4004111  59.8542127 114.0934883  49.3121967  60.0869514 113.9182581
  47.8913758  60.4379171 113.5309962  42.5601655  64.5742354 118.7498550
  43.0240000  64.8530057 117.9603172  42.2958453  63.6725798 118.5671640
  41.4970541  60.6965506 115.5588115  42.1994584  61.1486550 116.0262041
  41.1651169  60.0549325 116.1868008  42.7364306  67.5106449 115.6350220
  42.6009980  68.3557984 116.0635068  43.2774118  67.7125726 114.8716154
  36.1893703  65.0281887 116.2078145  36.7018223  65.8225137 116.3583710
  36.8416416  64.3308177 116.1411747  37.9988588  68.1447643 118.2900898
  38.1755216  69.0665608 118.1021882  38.7945421  67.8306062 118.7195278
  46.0507052  61.0245622 112.6721549  45.5353675  61.7950226 112.9109936
  45.7784360  60.3510758 113.2954610  51.0241326  63.7777976 114.6074722
  50.2470769  63.4389136 114.1629884  51.7032807  63.7830599 113.9329687
  45.8393355  58.8972714 114.4981330  45.5343491  59.2118863 115.3491473
  46.7923797  58.9754134 114.5408663  44.2839787  65.0562937 116.1474284
  43.7561148  64.3215697 115.8347521  43.7827290  65.8337613 115.9014252
  39.3428102  57.7487064 112.5276781  38.5065414  58.0861751 112.8486055
  39.2032871  57.6136044 111.5903918  42.4292387  62.8743147 109.1509257
  41.5219449  62.6432401 109.3500406  42.9263419  62.0780766 109.3383238
  45.3360466  71.5840654 112.0705943  44.6622165  71.8872351 112.6790901
  45.7226288  72.3869735 111.7211400  45.3353970  60.4797201 116.6906293
  46.0825789  60.9918599 116.3813415  45.6045560  60.1581254 117.5510686
  43.6080620  62.9755742 113.6733247  42.6991840  62.6914775 113.7705717
  43.6375704  63.3954821 112.8136554  47.7832807  57.5154318 118.6725082
  47.0455564  57.0031704 119.0035325  48.0359581  57.0754699 117.8608359
  43.3056708  64.5164486 111.0121326  42.8676138  63.8000345 110.5526963
  44.0467149  64.7440601 110.4506417  40.3632253  66.0782208 119.2629649
  41.1572852  65.5832529 119.0612224  39.6523945  65.5500072 118.8997354
  36.6715017  60.2225290 115.3389401  35.7412605  60.1609746 115.5559363
  36.7672489  59.7001243 114.5426043  47.4267936  63.3748867 110.6053383
  46.8097107  62.6495696 110.5086436  46.9584424  64.1358228 110.2620457
  39.2166482  57.5934292 109.7274687  38.3395948  57.4723092 109.3636934
  39.6924235  56.8020370 109.4753576  46.7956839  64.5126899 117.1909837
  45.8613117  64.6328361 117.0214541  46.9733507  63.6099366 116.9269847
  50.1829390  60.3544218 117.7259871  50.6489842  61.1872210 117.6520174
  50.6336890  59.8889200 118.4305129  48.2505621  66.6988039 114.7246023
  48.5265465  66.5844634 115.6339897  47.3810120  66.3005524 114.6858196
  40.7742988  55.6537836 113.8595689  41.4951350  56.0319089 113.3559406
  40.1508292  56.3726713 113.9630667  44.9174110  56.3582985 114.7954021
  45.1337725  57.2407623 114.4942849  44.4368178  55.9669198 114.0659663
  39.8936670  66.7739759 114.7809112  40.0424790  67.4575224 114.1275785
  40.7003113  66.7544849 115.2958568  37.6489303  62.8004937 115.7870181
  37.4035344  61.8967267 115.9850392  37.8185217  62.8022087 114.8449659
  36.9184950  58.5333294 113.2856343  36.2254195  58.6077649 112.6296379
  36.6736702  57.7693638 113.8077860  43.3932075  69.2687890 112.2520860
  42.8206042  69.8878077 111.7991332  43.9664869  69.8187251 112.7860782
  46.6129335  69.5525040 113.3829442  47.5460008  69.4870601 113.5862318
  46.5252548  70.3881307 112.9243975  49.2417352  68.8690910 110.3433390
  49.1630983  68.5350774 111.2369148  50.0627018  69.3612678 110.3424862
  43.7778874  60.6048702 109.5936912  44.7237978  60.4754910 109.6625330
  43.3993119  59.8663364 110.0706341  41.9621791  58.5298679 109.5291798
  41.0553246  58.2331791 109.6054511  42.2397772  58.2328497 108.6626084
  40.7320575  55.3885614 109.6703777  41.5939739  55.7140512 109.9299594
  40.9170920  54.6017110 109.1576843  48.8853212  54.2614140 116.8139000
  48.3051881  54.9198944 116.4317052  48.6189145  53.4391485 116.4026417
  47.6678090  56.4214231 115.8695348  46.7803945  56.7063881 115.6515543
  48.0832079  56.2607994 115.0222625  51.0192626  56.4460752 119.5849687
  51.7953016  56.9357204 119.8574304  50.2940760  56.8718806 120.0421557
  46.8121303  66.1858905 109.9643368  47.5157153  66.3908908 110.5801024
  46.0883952  66.7535667 110.2292452  47.6419114  61.9368767 116.0845638
  47.5854315  62.3937318 115.2453271  48.1947456  61.1759451 115.9068481
  51.4523920  57.7258499 116.9095758  51.1960854  57.3255134 117.7403965
  50.8276788  58.4402293 116.7845897  48.7208001  66.6241435 112.0141828
  49.5553605  66.1922633 111.8319303  48.5592344  66.4523448 112.9418723
  48.3753893  63.1273548 113.3798167  48.3202697  62.9617819 112.4386612
  47.7499948  63.8349581 113.5360357  41.6850018  52.6281657 112.9583486
  41.6728688  53.5723497 113.1151757  42.5773440  52.4451802 112.6642947
  50.0560236  72.9226209 109.7274687  49.1789703  72.8015010 109.3636934
  50.5317989  72.1312288 109.4753576  52.8015545  73.8590596 109.5291798
  51.8947001  73.5623709 109.6054511  53.0791526  73.5620414 108.6626084
  51.5714330  70.7177532 109.6703777  52.4333494  71.0432430 109.9299594
  51.7564674  69.9309028 109.1576843  34.4966713  33.2610859  98.7951250
  33.8228411  33.5642556  99.4036208  34.8832535  34.0639940  98.4456707
  38.4023598  30.5461115  97.0678696  38.3237230  30.2120979  97.9614454
  39.2233265  31.0382883  97.0670169  35.9727550  27.8629110  96.6888675
  36.6763400  28.0679113  97.3046330  35.2490199  28.4305872  96.9537758
  39.1775045  40.6244195 104.7600727  38.6139910  40.5334132 103.9917015
  39.0627440  39.8044100 105.2403220  44.7574603  44.2915163 100.0715192
  44.1062583  44.8769243  99.6849206  45.5518966  44.8221358 100.1310229
  38.6830230  41.3804300 100.4702326  39.4561106  40.8333287 100.3315202
  39.0355629  42.2448549 100.6816788  41.0196508  37.5396966  98.1020776
  41.2722029  37.0178487  97.3404239  40.0821067  37.3763112  98.2047460
  46.0639791  36.5432745 105.9095520  46.8502880  36.1252168 105.5585937
  46.3278495  37.4478837 106.0777168  46.2349868  41.9805595 100.6084176
  45.5995701  42.0540221 101.3205081  45.9047275  42.5699194  99.9303256
  51.4648218  36.4807978 106.8128498  52.1973390  35.9107195 107.0466328
  50.7087574  36.0929578 107.2535004  40.7392797  39.4425072 100.3045151
  40.6229055  38.7669976 100.9726236  40.8495057  38.9557446  99.4877304
  43.0824338  38.9035219 104.0091840  42.7182545  38.3765840 104.7204762
  43.9391454  38.5133688 103.8358326  42.7229825  33.9325119  99.0053189
  42.8904227  34.8005355  99.3723660  42.5326994  34.0952401  98.0814478
  42.7019046  36.3882776  99.9899856  42.5818671  36.8339827 100.8285336
  42.0071634  36.7368094  99.4313394  40.4625938  49.1586418 103.6389987
  40.3849968  50.1094243 103.7178468  39.8587581  48.8132291 104.2964913
  48.4004112  36.8604250 100.8180190  49.3121968  37.0931636 100.6427887
  47.8913759  37.4441294 100.2555268  47.0073694  41.8430068 108.2093771
  46.3782557  42.0075782 107.5069839  46.6199356  42.2571678 108.9804735
  50.8862926  42.7784506 105.5638135  50.2013964  43.1583407 105.0135168
  50.9706775  43.3879833 106.2970083  42.5601656  41.5804476 105.4743856
  43.0240002  41.8592179 104.6848479  42.2958454  40.6787921 105.2916947
  41.4970542  37.7027629 102.2833422  42.1994586  38.1548672 102.7507348
  41.1651171  37.0611447 102.9113315  49.2559686  43.3016420 110.3355836
  50.0777129  42.8996608 110.0538518  49.2522089  43.1984655 111.2871952
  57.3465679  39.6455169 106.6840807  56.5929387  39.0762567 106.5284812
  57.4813220  39.6117833 107.6311442  42.7364307  44.5168571 102.3595527
  42.6009982  45.3620107 102.7880375  43.2774119  44.7187849 101.5961461
  36.1893704  42.0344009 102.9323452  36.7018225  42.8287259 103.0829017
  36.8416417  41.3370300 102.8657053  37.9988589  45.1509765 105.0146205
  38.1755217  46.0727730 104.8267189  38.7945422  44.8368185 105.4440585
  46.0507053  38.0307744  99.3966855  45.5353677  38.8012349  99.6355243
  45.7784362  37.3572880 100.0199917  51.0241327  40.7840099 101.3320029
  50.2470770  40.4451258 100.8875191  51.7032808  40.7892722 100.6574994
  45.8393356  35.9034836 101.2226637  45.5343492  36.2180985 102.0736780
  46.7923798  35.9816256 101.2653970  44.2839788  42.0625060 102.8719591
  43.7561150  41.3277819 102.5592828  43.7827291  42.8399736 102.6259559
  49.2632634  40.2574080 107.9886637  48.6056309  40.9473341 108.0766765
  50.0673033  40.6470512 108.3320623  48.0738093  38.6118453 106.0390579
  48.5869975  39.2448445 106.5412288  48.7239317  38.0119648 105.6733939
  39.3428103  34.7549187  99.2522087  38.5065415  35.0923873  99.5731362
  39.2032872  34.6198167  98.3149224  42.4292388  39.8805270  95.8754564
  41.5219450  39.6494523  96.0745713  42.9263420  39.0842889  96.0628545
  45.3360467  48.5902777  98.7951250  44.6622166  48.8934474  99.4036208
  45.7226289  49.3931857  98.4456707  45.3353972  37.4859324 103.4151599
  46.0825790  37.9980721 103.1058721  45.6045561  37.1643377 104.2755993
  43.6080622  39.9817865 100.3978554  42.6991841  39.6976897 100.4951023
  43.6375706  40.4016943  99.5381860  48.8399889  43.5924454 104.1669721
  48.3862216  42.7515364 104.2234912  48.2093856  44.2285853 104.5044501
  47.7832809  34.5216440 105.3970389  47.0455565  34.0093826 105.7280631
  48.0359582  34.0816822 104.5853666  47.2832828  45.4300951 105.1019539
  47.5755803  45.9906008 104.3831905  47.7931449  45.7229512 105.8572698
  43.3056710  41.5226608  97.7366632  42.8676139  40.8062467  97.2772270
  44.0467150  41.7502723  97.1751724  42.2466454  46.2081302 106.1912993
  42.2042632  46.4342148 105.2621525  43.1629152  45.9744677 106.3398794
  51.4229824  39.7983805 103.7942951  51.2847723  39.9885401 102.8664140
  51.0666043  40.5603188 104.2511002  51.4499204  41.8660332 108.8054222
  51.8835711  41.7735621 109.6537276  52.1630785  41.8417833 108.1674238
  40.3632254  43.0844331 105.9874955  41.1572853  42.5894651 105.7857530
  39.6523947  42.5562194 105.6242661  45.1827099  45.4662427 110.3387323
  45.2364121  46.0353363 111.1065039  44.3141880  45.6364312 109.9741360
  36.6715018  37.2287413 102.0634708  35.7412606  37.1671868 102.2804670
  36.7672490  36.7063365 101.2671349  43.5351682  48.7582449 101.0098329
  43.7103438  48.2870493 101.8243952  42.8484470  49.3848216 101.2379590
  44.4908745  43.0354956 107.0561630  44.1558578  42.9955726 107.9519280
  43.9912691  42.3699672 106.5832040  47.4267937  40.3810990  97.3298690
  46.8097108  39.6557818  97.2331742  46.9584426  41.1420350  96.9865764
  38.1012768  51.9071812 107.7838189  38.3409366  52.5390336 108.4617208
  37.2581964  51.5559852 108.0703548  39.2166483  34.5996414  96.4519994
  38.3395949  34.4785215  96.0882241  39.6924236  33.8082493  96.1998883
  42.6140629  47.7150935 110.1879693  42.5410801  48.5205906 110.6998998
  42.1718023  47.9142900 109.3627714  42.4030409  46.9522705 103.6982515
  41.6197931  47.4944385 103.7920739  43.1023154  47.4696684 104.0976756
  53.5656817  38.4657700 107.9835011  53.5546693  39.3482415 107.6128945
  52.6974196  38.1129250 107.7889549  45.0739313  47.6137769 112.3437852
  45.7867285  48.2485233 112.2713753  44.5829342  47.7101635 111.5277854
  46.7956840  41.5189021 103.9155143  45.8613119  41.6390484 103.7459848
  46.9733508  40.6161488 103.6515153  50.1829391  37.3606341 104.4505178
  50.6489843  38.1934332 104.3765480  50.6336892  36.8951322 105.1550436
  48.2505622  43.7050162 101.4491330  48.5265466  43.5906756 102.3585204
  47.3810121  43.3067647 101.4103503  44.8859686  47.9536513 105.0924143
  45.0682081  47.1358169 105.5551896  45.7092672  48.1704205 104.6549033
  45.2201852  46.8804698 102.3539192  45.7489618  46.3697152 101.7409354
  45.4830071  46.5647228 103.2184725  38.5757600  47.9319815 105.1136968
  37.9067975  48.4165942 104.6301008  38.4370469  48.1789035 106.0280346
  42.7162868  49.9663558 111.7119626  43.2681176  50.1295180 112.4768711
  43.0569062  50.5567996 111.0399651  45.8531256  47.9145534 108.6983308
  45.7282395  47.1135273 108.1894254  46.5110347  48.4091727 108.2097278
  47.9166164  45.7154554 110.3262858  46.9696500  45.5959905 110.2541185
  48.2648937  44.8277052 110.4089120  44.9212597  45.5107270 106.5267210
  44.7737560  44.5823977 106.7074780  45.7466091  45.5327361 106.0424286
  48.5246719  46.3335829 107.6132083  49.4493267  46.1278690 107.4756534
  48.3562023  46.0852230 108.5221425  40.7742989  32.6599959 100.5840995
  41.4951351  33.0381211 100.0804712  40.1508293  33.3788835 100.6875973
  44.9174112  33.3645108 101.5199328  45.1337726  34.2469745 101.2188156
  44.4368179  32.9731321 100.7904970  48.3142035  46.8521496 102.9694175
  48.4878913  46.2867919 102.2168027  48.8070927  47.6522391 102.7873665
  54.1681427  39.6157919 104.5884474  54.6112573  38.8665244 104.1903598
  53.2907937  39.6068055 104.2058206  49.3017208  46.1688261 100.0691073
  49.9968113  46.7894953 100.2878388  49.6440358  45.3183612 100.3443451
  51.2008631  43.6187966 101.5978404  51.7259955  43.9575239 100.8727724
  51.1130984  42.6834981 101.4141538  42.8849292  49.6859949 105.9573657
  42.4454282  49.1936328 106.6506514  43.6357409  49.1432917 105.7165732
  35.3641631  45.8771490 105.9598285  36.1899651  45.5775262 105.5796928
  35.0135683  45.1079113 106.4088074  40.3323164  45.2297958 108.0295959
  39.7103173  44.5668663 107.7298186  41.0028031  45.2559090 107.3469606
  39.8936671  43.7801882 101.5054419  40.0424791  44.4637346 100.8521092
  40.7003114  43.7606972 102.0203875  53.7114291  41.0863157 106.9806922
  54.5461183  41.5252961 107.1444482  53.8473420  40.6101811 106.1615168
  37.6489304  39.8067059 102.5115488  37.4035346  38.9029389 102.7095698
  37.8185218  39.8084210 101.5694966  36.9184951  35.5395417 100.0101649
  36.2254196  35.6139772  99.3541685  36.6736703  34.7755761 100.5323166
  43.3932076  46.2750012  98.9766167  42.8206043  46.8940199  98.5236638
  43.9664870  46.8249374  99.5106088  46.6129336  46.5587162 100.1074749
  47.5460009  46.4932724 100.3107624  46.5252549  47.3943429  99.6489281
  49.2417353  45.8753033  97.0678696  49.1630984  45.5412896  97.9614454
  50.0627020  46.3674801  97.0670169  43.7778875  37.6110825  96.3182219
  44.7237980  37.4817033  96.3870637  43.3993120  36.8725487  96.7951647
  57.7572094  39.8030779 109.4161052  58.4875482  39.5416067 109.9768755
  57.1479039  39.0659501 109.4563120  55.8387391  37.9438641 110.0135503
  55.1120555  37.8094606 109.4051995  55.4234678  38.2515470 110.8192221
  41.9621792  35.5360801  96.2537104  41.0553247  35.2393914  96.3299818
  42.2397773  35.2390619  95.3871390  40.7320577  32.3947737  96.3949083
  41.5939741  32.7202635  96.6544901  40.9170921  31.6079232  95.8822149
  48.8853213  31.2676263 103.5384306  48.3051882  31.9261067 103.1562359
  48.6189146  30.4453608 103.1271724  47.6678091  33.4276353 102.5940655
  46.7803946  33.7126004 102.3760849  48.0832080  33.2670117 101.7467932
  51.0192627  33.4522874 106.3094994  51.7953017  33.9419327 106.5819611
  50.2940761  33.8780929 106.7666863  53.4565186  34.1650494 107.3668935
  54.0509677  33.9246230 106.6562243  53.5291770  33.4457624 107.9942471
  35.6762342  48.0084105 107.6812099  35.5416809  47.2484505 107.1150097
  35.2594404  48.7325004 107.2140888  46.8121305  43.1921028  96.6888675
  47.5157155  43.3971031  97.3046330  46.0883953  43.7597790  96.9537758
  47.6419115  38.9430889 102.8090945  47.5854316  39.3999441 101.9698577
  48.1947457  38.1821574 102.6313788  51.4523921  34.7320621 103.6341064
  51.1960855  34.3317257 104.4649272  50.8276789  35.4464415 103.5091204
  55.7636259  37.4716694 106.1412356  55.2035817  37.5409884 106.9143918
  55.1579762  37.2957679 105.4211852  38.8331467  48.9053422 107.8930542
  38.7163852  49.8498854 107.7909232  38.0123914  48.6026983 108.2816341
  48.7208002  43.6303557  98.7387135  49.5553606  43.1984756  98.5564610
  48.5592345  43.4585571  99.6664029  48.3753894  40.1335671 100.1043474
  48.3202698  39.9679942  99.1631918  47.7499949  40.8411703 100.2605664
  41.6850020  29.6343780  99.6828792  41.6728689  30.5785619  99.8397063
  42.5773441  29.4513925  99.3888254  39.8585982  49.5581683 111.1086470
  40.7613228  49.5905294 111.4252965  39.6323352  48.6282134 111.1232806
  41.6139584  48.3112670 107.7696549  40.6635215  48.3114532 107.6560921
  41.9172070  47.5645405 107.2532584  57.3492277  54.1473208 108.8342311
  57.9870687  54.0279956 108.1305652  57.2313120  55.0954052 108.8930264
  54.1581983  54.1000636 108.7703836  53.8200495  53.9841701 107.8824371
  55.0271752  53.6991802 108.7504842  50.0168799  55.9536113 104.7600727
  49.4533664  55.8626050 103.9917015  49.9021194  55.1336017 105.2403220
  54.6401766  55.2535488 114.7290042  54.6290407  54.8588286 113.8570545
  54.8022406  54.5201561 115.3223813  47.5633231  57.4487304 107.5984948
  48.3554523  57.1078129 107.1831247  47.8029881  57.5582280 108.5187101
  55.5968358  59.6207081 100.0715192  54.9456338  60.2061161  99.6849206
  56.3912721  60.1513275 100.1310229  49.5223985  56.7096218 100.4702326
  50.2954861  56.1625205 100.3315202  49.8749384  57.5740467 100.6816788
  51.3609027  58.0372600 113.6769226  51.0698893  58.9418231 113.5615892
  51.9966012  58.0789128 114.3913295  52.2865234  55.4149449 110.2670585
  52.8828807  55.1905471 109.5527548  52.3440206  54.6734194 110.8696033
  51.8590263  52.8688884  98.1020776  52.1115783  52.3470405  97.3404239
  50.9214822  52.7055029  98.2047460  56.9033546  51.8724662 105.9095520
  57.6896635  51.4544085 105.5585937  57.1672250  52.7770754 106.0777168
  57.0743623  57.3097513 100.6084176  56.4389456  57.3832139 101.3205081
  56.7441029  57.8991111  99.9303256  62.3041973  51.8099895 106.8128498
  63.0367145  51.2399112 107.0466328  61.5481328  51.4221496 107.2535004
  51.5786551  54.7716990 100.3045151  51.4622810  54.0961893 100.9726236
  51.6888811  54.2849364  99.4877304  53.9218092  54.2327137 104.0091840
  53.5576300  53.7057758 104.7204762  54.7785208  53.8425606 103.8358326
  59.8267393  45.5221470 111.2723107  59.4950718  46.3916880 111.0484322
  59.2313006  45.2057754 111.9517137  53.5623579  49.2617037  99.0053189
  53.7297982  50.1297273  99.3723660  53.3720748  49.4244318  98.0814478
  56.3198913  57.7234016 110.6719019  56.0199636  58.6259054 110.5634827
  55.9749972  57.4566199 111.5240172  49.7711394  54.1747812 106.7055724
  48.8461891  54.0424026 106.9133416  50.0195807  54.9542032 107.2025666
  59.7196056  50.2416556 108.3516457  58.8112934  50.1731964 108.0575218
  59.6683652  50.7188501 109.1798282  53.5412800  51.7174694  99.9899856
  53.4212425  52.1631745 100.8285336  52.8465389  52.0660012  99.4313394
  47.1320205  53.8181086 107.5399513  47.2612586  54.0715565 108.4538925
  46.4517656  54.4108794 107.2204168  51.3019692  64.4878336 103.6389987
  51.2243722  65.4386161 103.7178468  50.6981336  64.1424208 104.2964913
  53.7936922  51.6606201 116.2951354  53.0170256  52.2200121 116.2854219
  54.4327485  52.1462984 116.8166224  61.5857703  48.4432994 110.1294331
  60.9432083  48.7365527 109.4834125  61.0812631  48.3285914 110.9347527
  59.2397866  52.1896167 100.8180190  60.1515723  52.4223554 100.6427887
  58.7307513  52.7733212 100.2555268  52.0483294  54.4691655 115.8569321
  52.7897979  55.0076699 115.5804145  51.3420280  55.0957943 116.0140873
  57.5238634  56.6120795 114.4541482  57.9321990  56.1703206 113.7096115
  56.8015896  56.0373423 114.7075675  53.8769704  51.5493402 111.8275039
  54.7230899  51.9732815 111.9709688  53.8168342  50.8927026 112.5213603
  57.8467449  57.1721986 108.2093771  57.2176311  57.3367700 107.5069839
  57.4593111  57.5863595 108.9804735  61.7256681  58.1076424 105.5638135
  61.0407719  58.4875325 105.0135168  61.8100530  58.7171750 106.2970083
  57.0269149  49.2097770 113.4856213  56.7830081  49.9639831 112.9490489
  57.3029080  49.5883118 114.3203460  58.9807612  55.7536383 112.1633479
  59.1924507  56.3968143 111.4867860  58.9337360  54.9198699 111.6955409
  56.5833841  48.3654203 109.0670051  55.7218320  48.6635457 109.3586788
  56.6096276  48.5824602 108.1351083  53.3995411  56.9096394 105.4743856
  53.8633756  57.1884097 104.6848479  53.1352209  56.0079838 105.2916947
  50.2919492  56.4567875 108.4123620  50.8620849  56.8855144 107.7741104
  50.8827604  56.1750460 109.1107805  52.3364297  53.0319546 102.2833422
  53.0388340  53.4840590 102.7507348  52.0044925  52.3903365 102.9113315
  50.7844658  51.6231303 116.6584631  50.1543319  52.3047584 116.8920028
  50.6780746  51.5114384 115.7137769  46.0789631  51.2903099 107.5850555
  45.2888685  51.5460627 107.1090666  46.5700878  52.1051437 107.6902596
  60.0953440  58.6308338 110.3355836  60.9170884  58.2288525 110.0538518
  60.0915843  58.5276572 111.2871952  48.0304376  51.6547678 104.5434032
  47.2335539  51.7666372 105.0617528  47.8029968  51.9934330 103.6774922
  53.8610044  58.1792381 112.4916546  53.9254476  58.6412789 113.3274718
  53.1520967  57.5489746 112.6198856  44.3627334  51.5433589 110.0165546
  44.6135372  52.4280599 110.2823122  44.8986882  51.3638191 109.2440638
  68.1859433  54.9747087 106.6840807  67.4323142  54.4054485 106.5284812
  68.3206974  54.9409751 107.6311442  53.5758061  59.8460489 102.3595527
  53.4403736  60.6912025 102.7880375  54.1167874  60.0479766 101.5961461
  47.0287459  57.3635927 102.9323452  47.5411979  58.1579177 103.0829017
  47.6810171  56.6662217 102.8657053  48.8382343  60.4801683 105.0146205
  49.0148972  61.4019648 104.8267189  49.6339177  60.1660102 105.4440585
  48.1234700  52.5266315 114.8908368  48.0088215  51.6251572 115.1915467
  47.2679218  52.7730012 114.5393185  55.2026538  60.4684055 116.4895869
  54.7590392  59.6820434 116.1716773  55.8643751  60.6563206 115.8239760
  49.9613659  61.9979857 111.0156547  50.5121084  61.8696920 110.2433541
  49.1225135  62.2974746 110.6651440  57.3007776  60.7486855 114.5177270
  57.2826251  61.5695736 114.0257539  58.2227696  60.6240930 114.7427411
  53.7580830  58.2630985 115.3600779  54.2909167  57.5019273 115.1300086
  53.2294911  57.9704637 116.1024933  56.9250525  43.3691051 110.8894420
  56.5814794  44.2592692 110.8133531  57.2929487  43.1792708 110.0264005
  44.9936375  55.6924581 103.7083022  45.8311597  56.1021590 103.4916730
  45.1714643  54.7524023 103.6783216  56.8900808  53.3599662  99.3966855
  56.3747431  54.1304266  99.6355243  56.6178116  52.6864798 100.0199917
  54.4747919  48.2049363 104.4552094  53.6189515  47.8156213 104.2757732
  54.8874870  48.2841323 103.5951879  56.0047065  45.7395706 108.8543653
  55.5011861  45.7025841 108.0411459  56.2977672  46.6488449 108.9140310
  52.2489951  45.8234436 107.8609835  53.1142948  45.6277244 107.5015725
  52.3167460  45.5944787 108.7879192  61.8635082  56.1132016 101.3320029
  61.0864524  55.7743176 100.8875191  62.5426563  56.1184640 100.6574994
  56.6787111  51.2326754 101.2226637  56.3737246  51.5472903 102.0736780
  57.6317553  51.3108174 101.2653970  55.1233543  57.3916977 102.8719591
  54.5954904  56.6569737 102.5592828  54.6221045  58.1691654 102.6259559
  60.1026389  55.5865998 107.9886637  59.4450063  56.2765259 108.0766765
  60.9066788  55.9762430 108.3320623  49.8552270  48.0536644 105.2326202
  50.4296022  47.8311825 104.4999395  50.4423253  48.1225338 105.9854803
  58.9131847  53.9410370 106.0390579  59.4263729  54.5740362 106.5412288
  59.5633071  53.3411566 105.6733939  50.1821857  50.0841105  99.2522087
  49.3459170  50.4215791  99.5731362  50.0426627  49.9490084  98.3149224
  52.1574938  44.9277892 103.9601271  51.5039350  44.6126910 103.3357886
  52.1155412  44.3053633 104.6861094  53.2686143  55.2097187  95.8754564
  52.3613204  54.9786441  96.0745713  53.7657175  54.4134807  96.0628545
  56.1754222  63.9194695  98.7951250  55.5015920  64.2226391  99.4036208
  56.5620044  64.7223775  98.4456707  55.3912678  51.4159826 108.2848919
  54.4735240  51.6374773 108.1270607  55.8072822  51.4906136 107.4260626
  56.1747726  52.8151242 103.4151599  56.9219545  53.3272639 103.1058721
  56.4439316  52.4935294 104.2755993  54.4474376  55.3109782 100.3978554
  53.5385595  55.0268815 100.4951023  54.4769460  55.7308861  99.5381860
  59.6793644  58.9216372 104.1669721  59.2255971  58.0807282 104.2234912
  59.0487610  59.5577770 104.5044501  58.6226563  49.8508358 105.3970389
  57.8849320  49.3385744 105.7280631  58.8753337  49.4108739 104.5853666
  58.1226583  60.7592869 105.1019539  58.4149557  61.3197926 104.3831905
  58.6325203  61.0521430 105.8572698  58.7238190  42.6284610 105.9912158
  59.0297067  41.7681973 105.7038073  59.4490795  43.2202230 105.7911152
  45.0162547  53.0315296 104.3793756  44.8186946  52.4384657 103.6544822
  44.4609211  52.7267507 105.0969695  52.9959270  52.9238403 106.4988349
  53.0507880  51.9712239 106.4230826  52.1850472  53.0797842 106.9829647
  54.1450464  56.8518526  97.7366632  53.7069894  56.1354385  97.2772270
  54.8860905  57.0794641  97.1751724  50.9351630  51.5415463 104.2578728
  50.1219496  51.8409633 104.6643920  51.4310624  51.1471151 104.9753210
  53.0860208  61.5373220 106.1912993  53.0436387  61.7634066 105.2621525
  54.0022907  61.3036594 106.3398794  56.5325842  52.0057287 113.0893622
  56.8875230  52.2328760 113.9488088  57.1797973  52.3375664 112.4670877
  62.2623579  55.1275723 103.7942951  62.1241477  55.3177319 102.8664140
  61.9059798  55.8895106 104.2511002  50.4265705  49.1133818 109.8739963
  51.0665084  48.9722577 109.1762926  49.5943235  48.8268332 109.4978565
  62.2892958  57.1952250 108.8054222  62.7229465  57.1027539 109.6537276
  63.0024539  57.1709751 108.1674238  51.2026009  58.4136249 105.9874955
  51.9966607  57.9186569 105.7857530  50.4917701  57.8854112 105.6242661
  56.0220853  60.7954344 110.3387323  56.0757876  61.3645280 111.1065039
  55.1535635  60.9656229 109.9741360  47.5108772  52.5579330 102.0634708
  46.5806360  52.4963786 102.2804670  47.6066244  52.0355283 101.2671349
  47.4294321  49.0834143 104.6512950  47.6901139  49.9979476 104.5422110
  48.2511494  48.6158586 104.8009562  48.9019247  50.4971900 111.8211774
  49.5742300  50.2889263 111.1724423  48.0749033  50.2993986 111.3817006
  63.1508508  57.2375951 111.3387108  63.3444398  58.1421761 111.5846383
  63.0509126  56.7783370 112.1725693  54.8044819  47.1233841 113.8377435
  54.1572734  47.8223791 113.7441911  55.5745834  47.5569985 114.2053683
  54.9808953  54.9614606 111.8974255  55.9101013  55.1125766 111.7243222
  54.5599983  55.0498627 111.0422901  53.7797285  58.9865271 109.6672792
  53.6408371  58.6184055 110.5398730  52.9911881  59.5012910 109.4956750
  54.3745437  64.0874367 101.0098329  54.5497192  63.6162410 101.8243952
  53.6878225  64.7140133 101.2379590  55.3302500  58.3646873 107.0561630
  54.9952333  58.3247643 107.9519280  54.8306446  57.6991589 106.5832040
  49.3046744  53.7714503 112.5814211  49.1666542  53.0394742 113.1825750
  50.2151667  53.6823403 112.2998399  58.2661692  55.7102908  97.3298690
  57.6490862  54.9849736  97.2331742  57.7978180  56.4712268  96.9865764
  51.9329045  53.4834463 112.0697891  52.6428663  52.8427655 112.0284509
  51.8898353  53.7347358 112.9924072  50.6457979  50.4699681 113.8893530
  50.1095336  50.0190419 114.5415127  50.0574687  50.6045589 113.1463995
  48.9406522  67.2363730 107.7838189  49.1803120  67.8682254 108.4617208
  48.0975719  66.8851770 108.0703548  50.0560238  49.9288332  96.4519994
  49.1789704  49.8077133  96.0882241  50.5317991  49.1374410  96.1998883
  59.9233231  58.3841400 113.2218450  59.0360009  58.0467322 113.3444849
  60.4931782  57.6524431 113.4587215  41.5762378  54.7165492 106.5461501
  42.2633417  54.4027222 105.9582517  41.4210506  55.6206856 106.2728753
  46.3797100  49.6055688 110.9746525  46.2955289  48.9981358 110.2396935
  45.5579806  50.0964707 110.9756021  53.4534384  63.0442852 110.1879693
  53.3804555  63.8497824 110.6998998  53.0111777  63.2434818 109.3627714
  53.2424164  62.2814622 103.6982515  52.4591685  62.8236303 103.7920739
  53.9416909  62.7988602 104.0976756  56.5520814  48.0909252 106.3416720
  57.0489513  47.3379214 106.0217790  55.7807795  48.1273568 105.7759929
  64.4050571  53.7949617 107.9835011  64.3940447  54.6774333 107.6128945
  63.5367951  53.4421168 107.7889549  55.9133067  62.9429686 112.3437852
  56.6261040  63.5777151 112.2713753  55.4223096  63.0393552 111.5277854
  57.6350594  56.8480939 103.9155143  56.7006873  56.9682401 103.7459848
  57.8127263  55.9453406 103.6515153  53.1355782  50.2326635 106.0688405
  52.7653570  49.6797675 106.7569310  53.6314875  49.6284768 105.5163405
  61.0223146  52.6898258 104.4505178  61.4883598  53.5226250 104.3765480
  61.4730646  52.2243240 105.1550436  50.9644981  60.6924130 113.1643423
  51.6654440  61.3260613 113.3172817  50.4940096  61.0338861 112.4039062
  59.0899377  59.0342080 101.4491330  59.3659221  58.9198674 102.3585204
  58.2203876  58.6359564 101.4103503  58.9939808  45.0578845 108.4896079
  58.0802888  45.2883072 108.6578286  59.4232910  45.1417289 109.3410111
  58.7646267  53.2468737 110.9895973  58.1117717  53.4944645 110.3348426
  59.1426647  52.4332875 110.6558450  55.7253441  63.2828430 105.0924143
  55.9075835  62.4650086 105.5551896  56.5486427  63.4996123 104.6549033
  56.0595606  62.2096616 102.3539192  56.5883373  61.6989070 101.7409354
  56.3223826  61.8939146 103.2184725  54.8133840  53.9888548 117.4762010
  54.1374477  53.8882678 118.1464385  55.6361474  53.8327762 117.9398007
  46.5612699  60.2260485 110.0974525  47.1466136  59.4804173 110.2302429
  46.3637538  60.5364442 110.9811189  49.4151354  63.2611732 105.1136968
  48.7461730  63.7457860 104.6301008  49.2764224  63.5080953 106.0280346
  41.1530354  52.7966085 108.8178968  41.1914453  52.2629676 109.6116086
  40.6470647  52.2701291 108.1989946  53.5556623  65.2955476 111.7119626
  54.1074931  65.4587097 112.4768711  53.8962816  65.8859914 111.0399651
  48.5321116  47.6430626 112.3141511  48.5962443  48.5045456 111.9018908
  48.4688236  47.0304627 111.5813869  44.7838931  51.5230187 101.8932900
  45.0792372  50.6140866 101.8399953  43.8826967  51.5017927 101.5713902
  56.6925010  63.2437451 108.6983308  56.5676150  62.4427191 108.1894254
  57.3504101  63.7383645 108.2097278  48.3133178  49.5986184 107.8760448
  47.5919764  50.2122152 107.7367922  49.1026434  50.1343949 107.7977094
  58.7559919  61.0446471 110.3262858  57.8090254  60.9251823 110.2541185
  59.1042692  60.1568969 110.4089120  51.1159492  46.9340610 114.1501100
  51.6393894  47.1802907 114.9127409  50.8971825  47.7660645 113.7304237
  46.5126773  49.2044285 102.0172225  46.1839479  48.3241664 101.8347331
  46.8666144  49.1491954 102.9048614  55.7606352  60.8399188 106.5267210
  55.6131314  59.9115895 106.7074780  56.5859845  60.8619278 106.0424286
  49.6268596  49.4917255 102.3847703  49.9664669  50.0203176 101.6626311
  50.0740717  49.8297661 103.1606269  59.3640474  61.6627746 107.6132083
  60.2887021  61.4570608 107.4756534  59.1955777  61.4144147 108.5221425
  52.3212037  47.8754305 111.8350771  51.9808857  47.0762118 112.2371451
  51.6151043  48.1756016 111.2627604  52.9728509  44.9603618 110.2878094
  53.7954578  44.4864096 110.1656984  53.2166572  45.7394102 110.7876780
  51.6136743  47.9891876 100.5840995  52.3345106  48.3673129 100.0804712
  50.9902047  48.7080753 100.6875973  55.7567866  48.6937025 101.5199328
  55.9731481  49.5761663 101.2188156  55.2761933  48.3023239 100.7904970
  50.4967088  51.6522738 108.0970072  50.3511668  51.9663042 108.9894354
  50.0192291  52.2707639 107.5440971  52.3563470  48.6425286 108.1450962
  52.3425039  47.7466380 107.8083260  53.0735899  48.6495950 108.7789248
  54.2089601  49.0762627 110.1904089  53.9507379  49.9979697 110.1888420
  53.6774641  48.6793061 110.8804553  59.1535790  62.1813414 102.9694175
  59.3272667  61.6159836 102.2168027  59.6464681  62.9814309 102.7873665
  44.9712750  54.1928083 111.0357733  44.4266218  54.9687891 111.1678008
  45.8492100  54.5398887 110.8776855  51.7600366  47.5239667 103.4138532
  51.8816278  46.5956313 103.6129419  51.4702409  47.5378353 102.5016847
  54.6291557  45.2094577 106.5505252  54.6513254  45.2733910 105.5957231
  55.0459616  44.3699086 106.7445758  65.0075181  54.9449837 104.5884474
  65.4506327  54.1957162 104.1903598  64.1301691  54.9359973 104.2058206
  60.1410962  61.4980178 100.0691073  60.8361867  62.1186871 100.2878388
  60.4834113  60.6475529 100.3443451  45.7578772  53.3197979 113.9287890
  45.0160508  53.4680614 114.5152521  45.4371516  53.5806245 113.0654640
  62.0402385  58.9479884 101.5978404  62.5653710  59.2867156 100.8727724
  61.9524738  58.0126899 101.4141538  53.7022434  62.8613957 113.7268280
  54.0109561  62.6163104 114.5990980  54.4997916  63.0660596 113.2387151
  53.7243046  65.0151867 105.9573657  53.2848037  64.5228246 106.6506514
  54.4751163  64.4724835 105.7165732  46.2035385  61.2063408 105.9598285
  47.0293405  60.9067180 105.5796928  45.8529437  60.4371030 106.4088074
  51.1716918  60.5589876 108.0295959  50.5496928  59.8960581 107.7298186
  51.8421785  60.5851008 107.3469606  44.4043990  59.1249734 106.9187219
  43.5675899  58.6971909 106.7371220  44.3767636  59.3182178 107.8558010
  61.8494167  56.4305254 114.2162330  61.8992172  56.2655261 115.1577853
  61.7408090  55.5632513 113.8260211  50.7330425  59.1093799 101.5054419
  50.8818546  59.7929264 100.8521092  51.5396869  59.0898889 102.0203875
  59.1397929  52.4136182 115.5321637  60.0407792  52.2742647 115.2405635
  59.2145904  52.5790637 116.4719814  53.4740734  49.7903037 114.3774823
  52.6044044  50.0836603 114.1057412  53.7100215  50.3743482 115.0982087
  64.5508046  56.4155075 106.9806922  65.3854937  56.8544879 107.1444482
  64.6867175  55.9393728 106.1615168  61.5999552  53.9734810 112.9284410
  62.0753673  54.1662456 112.1203261  60.6765117  54.0293996 112.6827793
  48.4883058  55.1358977 102.5115488  48.2429100  54.2321307 102.7095698
  48.6578973  55.1376127 101.5694966  56.1779768  46.0082653 111.8940244
  56.6961712  46.7443680 111.5686732  55.8234901  46.3146647 112.7287003
  47.7578706  50.8687335 100.0101649  47.0647951  50.9431690  99.3541685
  47.5130458  50.1047678 100.5323166  56.4292362  42.4282936 107.4141140
  56.7094116  41.7606125 108.0401567  57.2142969  42.6212032 106.9015804
  54.2325831  61.6041930  98.9766167  53.6599798  62.2232117  98.5236638
  54.8058624  62.1541292  99.5106088  60.3001221  50.8500570 111.1612715
  61.2518644  50.9498668 111.1824939  60.1304671  50.0578839 111.6710800
  58.3215600  47.9356153 111.3472116  57.7265532  48.2161166 110.6518605
  58.0365297  48.4250054 112.1188857  57.4523091  61.8879080 100.1074749
  58.3853764  61.8224642 100.3107624  57.3646303  62.7235347  99.6489281
  60.0811107  61.2044950  97.0678696  60.0024739  60.8704814  97.9614454
  60.9020774  61.6966718  97.0670169  62.7789298  54.0706690 110.2755015
  62.7465619  53.1322690 110.4614699  63.3889922  54.1490726 109.5420840
  54.6172629  52.9402743  96.3182219  55.5631734  52.8108951  96.3870637
  54.2386874  52.2017405  96.7951647  62.9283787  50.8617733 110.3213298
  62.4122836  50.0776190 110.1343227  63.8123735  50.5336450 110.4859818
  60.5894514  44.6058749 106.2809111  60.3919335  44.2973837 107.1652443
  61.1994219  45.3320388 106.4107041  68.5965848  55.1322696 109.4161052
  69.3269237  54.8707985 109.9768755  67.9872794  54.3951418 109.4563120
  66.6781145  53.2730559 110.0135503  65.9514309  53.1386524 109.4051995
  66.2628432  53.5807388 110.8192221  54.5011322  56.9920489 117.7782876
  55.4214331  57.1699088 117.9722923  54.4660905  56.0476534 117.6262575
  52.8015546  50.8652719  96.2537104  51.8947002  50.5685832  96.3299818
  53.0791527  50.5682537  95.3871390  43.7193487  52.1859082 106.7036151
  43.3996271  51.3324391 106.4110525  43.1726915  52.4007661 107.4594118
  47.4973394  54.9021523 110.4205657  47.7159404  55.8338631 110.4393691
  47.9099168  54.5429498 111.2060461  54.4177612  45.4089609 102.4081346
  53.6078341  45.0636694 102.7836592  55.1062029  45.0997152 102.9968957
  56.3468160  44.4867656 104.0305642  56.8999199  44.9063109 104.6895665
  56.5838247  43.5603404 104.0728598  51.5714331  47.7239654  96.3949083
  52.4333495  48.0494553  96.6544901  51.7564675  46.9371150  95.8822149
  43.5881747  55.8061994 108.6729272  42.8945218  55.3915947 108.1599227
  44.3354738  55.8482530 108.0762691  59.7246968  46.5968181 103.5384306
  59.1445637  47.2552985 103.1562359  59.4582900  45.7745525 103.1271724
  58.1750534  45.9973238 105.7405627  58.6750312  46.1089773 104.9319946
  58.8186142  45.6934291 106.3806435  52.2332530  53.9051868 118.6273468
  51.7499611  54.7052228 118.8337357  52.3193469  53.9159813 117.6740912
  45.5018489  55.7380248 106.5495287  45.4789177  55.8367935 105.5977170
  45.8119126  56.5845398 106.8712453  48.1605867  57.7956403 110.6641902
  49.1149121  57.7640345 110.5971833  47.9618391  57.3347026 111.4792127
  48.7505249  56.3657519 113.2312699  49.5698138  56.8601597 113.2547536
  49.0242057  55.4489487 113.2030267  58.5071846  48.7568271 102.5940655
  57.6197701  49.0417922 102.3760849  58.9225835  48.5962034 101.7467932
  61.8586382  48.7814792 106.3094994  62.6346772  49.2711244 106.5819611
  61.1334516  49.2072846 106.7666863  64.2958940  49.4942411 107.3668935
  64.8903431  49.2538147 106.6562243  64.3685524  48.7749542 107.9942471
  46.5156096  63.3376022 107.6812099  46.3810564  62.5776423 107.1150097
  46.0988158  64.0616922 107.2140888  57.6515059  58.5212946  96.6888675
  58.3550909  58.7262948  97.3046330  56.9277708  59.0889708  96.9537758
  58.4812869  54.2722807 102.8090945  58.4248071  54.7291358 101.9698577
  59.0341212  53.5113492 102.6313788  62.2917675  50.0612539 103.6341064
  62.0354609  49.6609175 104.4649272  61.6670543  50.7756333 103.5091204
  66.6030013  52.8008612 106.1412356  66.0429571  52.8701801 106.9143918
  65.9973516  52.6249597 105.4211852  49.6725222  64.2345339 107.8930542
  49.5557606  65.1790772 107.7909232  48.8517668  63.9318901 108.2816341
  59.5601756  58.9595475  98.7387135  60.3947360  58.5276673  98.5564610
  59.3986099  58.7877489  99.6664029  59.2147649  55.4627588 100.1043474
  59.1596452  55.2971860  99.1631918  58.5893704  56.1703621 100.2605664
  52.5243774  44.9635697  99.6828792  52.5122444  45.9077537  99.8397063
  53.4167196  44.7805843  99.3888254  50.6979736  64.8873601 111.1086470
  51.6006983  64.9197211 111.4252965  50.4717106  63.9574052 111.1232806
  52.4533338  63.6404588 107.7696549  51.5028969  63.6406449 107.6560921
  52.7565824  62.8937322 107.2532584  56.3395894  41.5578474 103.9374729
  55.5728289  41.0036961 104.0831412  56.7506599  41.6300343 104.7988881
  60.8562554  71.2828031 104.7600727  60.2927419  71.1917968 103.9917015
  60.7414949  70.4627935 105.2403220  66.4362112  74.9498998 100.0715192
  65.7850092  75.5353079  99.6849206  67.2306475  75.4805193 100.1310229
  60.3617739  72.0388135 100.4702326  61.1348615  71.4917123 100.3315202
  60.7143138  72.9032385 100.6816788  62.6984017  68.1980802  98.1020776
  62.9509538  67.6762323  97.3404239  61.7608576  68.0346947  98.2047460
  67.7427300  67.2016580 105.9095520  68.5290389  66.7836003 105.5585937
  68.0066004  68.1062672 106.0777168  67.9137377  72.6389430 100.6084176
  67.2783210  72.7124057 101.3205081  67.5834784  73.2283029  99.9303256
  62.4180306  70.1008907 100.3045151  62.3016564  69.4253811 100.9726236
  62.5282566  69.6141281  99.4877304  64.7611847  69.5619055 104.0091840
  64.3970054  69.0349676 104.7204762  65.6178963  69.1717524 103.8358326
  64.4017334  64.5908954  99.0053189  64.5691736  65.4589191  99.3723660
  64.2114503  64.7536236  98.0814478  60.6105149  69.5039730 106.7055724
  59.6855645  69.3715944 106.9133416  60.8589562  70.2833949 107.2025666
  64.3806555  67.0466612  99.9899856  64.2606180  67.4923663 100.8285336
  63.6859143  67.3951929  99.4313394  57.9713960  69.1473004 107.5399513
  58.1006341  69.4007483 108.4538925  57.2911411  69.7400712 107.2204168
  70.0791621  67.5188085 100.8180190  70.9909477  67.7515472 100.6427887
  69.5701268  68.1025129 100.2555268  67.4227596  63.6946121 109.0670051
  66.5612075  63.9927375 109.3586788  67.4490030  63.9116520 108.1351083
  64.2389165  72.2388312 105.4743856  64.7027511  72.5176014 104.6848479
  63.9745963  71.3371756 105.2916947  63.1758051  68.3611464 102.2833422
  63.8782094  68.8132508 102.7507348  62.8438680  67.7195283 102.9113315
  56.9183385  66.6195017 107.5850555  56.1282439  66.8752545 107.1090666
  57.4094632  67.4343354 107.6902596  58.8698130  66.9839596 104.5434032
  58.0729294  67.0958290 105.0617528  58.6423723  67.3226248 103.6774922
  55.2021088  66.8725507 110.0165546  55.4529126  67.7572517 110.2823122
  55.7380636  66.6930109 109.2440638  64.4151816  75.1752407 102.3595527
  64.2797491  76.0203942 102.7880375  64.9561628  75.3771684 101.5961461
  57.8681213  72.6927845 102.9323452  58.3805734  73.4871095 103.0829017
  58.5203926  71.9954135 102.8657053  59.6776098  75.8093601 105.0146205
  59.8542726  76.7311566 104.8267189  60.4732931  75.4952020 105.4440585
  67.7644279  58.6982968 110.8894420  67.4208549  59.5884610 110.8133531
  68.1323242  58.5084626 110.0264005  55.8330130  71.0216499 103.7083022
  56.6705352  71.4313507 103.4916730  56.0108398  70.0815941 103.6783216
  67.7294562  68.6891579  99.3966855  67.2141185  69.4596184  99.6355243
  67.4571870  68.0156716 100.0199917  65.3141673  63.5341280 104.4552094
  64.4583269  63.1448131 104.2757732  65.7268625  63.6133241 103.5951879
  66.8440820  61.0687624 108.8543653  66.3405615  61.0317759 108.0411459
  67.1371427  61.9780366 108.9140310  63.0883706  61.1526353 107.8609835
  63.9536702  60.9569162 107.5015725  63.1561215  60.9236705 108.7879192
  72.7028836  71.4423934 101.3320029  71.9258279  71.1035094 100.8875191
  73.3820317  71.4476557 100.6574994  67.5180865  66.5618672 101.2226637
  67.2131001  66.8764821 102.0736780  68.4711307  66.6400091 101.2653970
  65.9627297  72.7208895 102.8719591  65.4348659  71.9861654 102.5592828
  65.4614800  73.4983571 102.6259559  60.6946025  63.3828561 105.2326202
  61.2689777  63.1603743 104.4999395  61.2817007  63.4517256 105.9854803
  61.0215612  65.4133022  99.2522087  60.1852924  65.7507709  99.5731362
  60.8820381  65.2782002  98.3149224  62.9968692  60.2569810 103.9601271
  62.3433105  59.9418827 103.3357886  62.9549167  59.6345551 104.6861094
  64.1079897  70.5389105  95.8754564  63.2006959  70.3078359  96.0745713
  64.6050929  69.7426724  96.0628545  67.0147976  79.2486612  98.7951250
  66.3409675  79.5518309  99.4036208  67.4013798  80.0515693  98.4456707
  66.2306433  66.7451744 108.2848919  65.3128994  66.9666691 108.1270607
  66.6466576  66.8198054 107.4260626  67.0141481  68.1443159 103.4151599
  67.7613299  68.6564557 103.1058721  67.2833070  67.8227212 104.2755993
  65.2868131  70.6401700 100.3978554  64.3779350  70.3560733 100.4951023
  65.3163214  71.0600779  99.5381860  69.4620318  65.1800276 105.3970389
  68.7243074  64.6677662 105.7280631  69.7147091  64.7400657 104.5853666
  69.5631945  57.9576528 105.9912158  69.8690822  57.0973891 105.7038073
  70.2884550  58.5494148 105.7911152  55.8556301  68.3607214 104.3793756
  55.6580701  67.7676575 103.6544822  55.3002965  68.0559424 105.0969695
  63.8353025  68.2530321 106.4988349  63.8901635  67.3004157 106.4230826
  63.0244227  68.4089760 106.9829647  64.9844218  72.1810444  97.7366632
  64.5463648  71.4646303  97.2772270  65.7254659  72.4086559  97.1751724
  61.7745385  66.8707380 104.2578728  60.9613250  67.1701551 104.6643920
  62.2704379  66.4763069 104.9753210  61.2659459  64.4425736 109.8739963
  61.9058839  64.3014495 109.1762926  60.4336990  64.1560249 109.4978565
  62.0419763  73.7428166 105.9874955  62.8360362  73.2478486 105.7857530
  61.3311456  73.2146029 105.6242661  58.3502527  67.8871248 102.0634708
  57.4200115  67.8255704 102.2804670  58.4459999  67.3647201 101.2671349
  58.2688076  64.4126061 104.6512950  58.5294893  65.3271394 104.5422110
  59.0905248  63.9450503 104.8009562  69.1055446  71.0394825  97.3298690
  68.4884617  70.3141654  97.2331742  68.6371935  71.8004186  96.9865764
  60.8953992  65.2580250  96.4519994  60.0183458  65.1369050  96.0882241
  61.3711745  64.4666328  96.1998883  52.4156132  70.0457409 106.5461501
  53.1027172  69.7319139 105.9582517  52.2604261  70.9498774 106.2728753
  57.2190854  64.9347606 110.9746525  57.1349043  64.3273275 110.2396935
  56.3973561  65.4256624 110.9756021  67.3914568  63.4201169 106.3416720
  67.8883268  62.6671132 106.0217790  66.6201550  63.4565486 105.7759929
  68.4744349  72.1772857 103.9155143  67.5400628  72.2974319 103.7459848
  68.6521017  71.2745323 103.6515153  63.9749537  65.5618552 106.0688405
  63.6047324  65.0089593 106.7569310  64.4708629  64.9576686 105.5163405
  71.8616900  68.0190176 104.4505178  72.3277352  68.8518168 104.3765480
  72.3124401  67.5535158 105.1550436  69.9293131  74.3633997 101.4491330
  70.2052975  74.2490592 102.3585204  69.0597630  73.9651482 101.4103503
  69.8333563  60.3870763 108.4896079  68.9196643  60.6174990 108.6578286
  70.2626664  60.4709207 109.3410111  51.9924108  68.1258003 108.8178968
  52.0308208  67.5921593 109.6116086  51.4864401  67.5993208 108.1989946
  59.3714871  62.9722543 112.3141511  59.4356197  63.8337374 111.9018908
  59.3081991  62.3596545 111.5813869  55.6232686  66.8522105 101.8932900
  55.9186127  65.9432783 101.8399953  54.7220722  66.8309844 101.5713902
  59.1526933  64.9278101 107.8760448  58.4313519  65.5414069 107.7367922
  59.9420189  65.4635866 107.7977094  57.3520527  64.5336203 102.0172225
  57.0233234  63.6533581 101.8347331  57.7059898  64.4783871 102.9048614
  60.4662351  64.8209172 102.3847703  60.8058423  65.3495094 101.6626311
  60.9134471  65.1589578 103.1606269  63.8122263  60.2895535 110.2878094
  64.6348333  59.8156014 110.1656984  64.0560327  61.0686019 110.7876780
  62.4530498  63.3183794 100.5840995  63.1738860  63.6965047 100.0804712
  61.8295802  64.0372671 100.6875973  66.5961621  64.0228943 101.5199328
  66.8125235  64.9053581 101.2188156  66.1155688  63.6315156 100.7904970
  61.3360842  66.9814656 108.0970072  61.1905423  67.2954959 108.9894354
  60.8586046  67.5999556 107.5440971  63.1957225  63.9717204 108.1450962
  63.1818794  63.0758297 107.8083260  63.9129653  63.9787868 108.7789248
  62.5994121  62.8531584 103.4138532  62.7210032  61.9248231 103.6129419
  62.3096163  62.8670270 102.5016847  65.4685311  60.5386495 106.5505252
  65.4907008  60.6025828 105.5957231  65.8853370  59.6991003 106.7445758
  57.0429140  76.5355326 105.9598285  57.8687160  76.2359097 105.5796928
  56.6923192  75.7662948 106.4088074  55.2437745  74.4541652 106.9187219
  54.4069653  74.0263826 106.7371220  55.2161390  74.6474095 107.8558010
  61.5724180  74.4385717 101.5054419  61.7212300  75.1221181 100.8521092
  62.3790623  74.4190807 102.0203875  59.3276813  70.4650895 102.5115488
  59.0822855  69.5613225 102.7095698  59.4972727  70.4668045 101.5694966
  58.5972460  66.1979252 100.0101649  57.9041705  66.2723607  99.3541685
  58.3524212  65.4339596 100.5323166  67.2686117  57.7574854 107.4141140
  67.5487871  57.0898043 108.0401567  68.0536724  57.9503949 106.9015804
  65.0719585  76.9333848  98.9766167  64.4993552  77.5524035  98.5236638
  65.6452379  77.4833209  99.5106088  68.2916845  77.2170998 100.1074749
  69.2247518  77.1516559 100.3107624  68.2040058  78.0527265  99.6489281
  70.9204862  76.5336868  97.0678696  70.8418493  76.1996732  97.9614454
  71.7414529  77.0258636  97.0670169  65.4566384  68.2694660  96.3182219
  66.4025489  68.1400868  96.3870637  65.0780629  67.5309322  96.7951647
  71.4288268  59.9350666 106.2809111  71.2313089  59.6265755 107.1652443
  72.0387974  60.6612305 106.4107041  63.6409301  66.1944637  96.2537104
  62.7340756  65.8977749  96.3299818  63.9185282  65.8974455  95.3871390
  54.5587241  67.5151000 106.7036151  54.2390026  66.6616308 106.4110525
  54.0120670  67.7299578 107.4594118  65.2571367  60.7381526 102.4081346
  64.4472095  60.3928611 102.7836592  65.9455784  60.4289070 102.9968957
  67.1861915  59.8159573 104.0305642  67.7392954  60.2355027 104.6895665
  67.4232001  58.8895321 104.0728598  62.4108086  63.0531572  96.3949083
  63.2727250  63.3786470  96.6544901  62.5958430  62.2663068  95.8822149
  54.4275501  71.1353912 108.6729272  53.7338973  70.7207864 108.1599227
  55.1748492  71.1774448 108.0762691  70.5640722  61.9260098 103.5384306
  69.9839391  62.5844902 103.1562359  70.2976655  61.1037443 103.1271724
  56.3412244  71.0672165 106.5495287  56.3182932  71.1659853 105.5977170
  56.6512880  71.9137316 106.8712453  69.3465600  64.0860189 102.5940655
  68.4591455  64.3709839 102.3760849  69.7619589  63.9253952 101.7467932
  72.6980136  64.1106710 106.3094994  73.4740526  64.6003162 106.5819611
  71.9728270  64.5364764 106.7666863  68.4908814  73.8504863  96.6888675
  69.1944664  74.0554866  97.3046330  67.7671462  74.4181625  96.9537758
  69.3206624  69.6014725 102.8090945  69.2641825  70.0583276 101.9698577
  69.8734966  68.8405409 102.6313788  73.1311430  65.3904457 103.6341064
  72.8748364  64.9901092 104.4649272  72.5064298  66.1048250 103.5091204
  70.3995511  74.2887393  98.7387135  71.2341115  73.8568591  98.5564610
  70.2379854  74.1169406  99.6664029  70.0541403  70.7919506 100.1043474
  69.9990207  70.6263777  99.1631918  69.4287458  71.4995539 100.2605664
  63.3637529  60.2927615  99.6828792  63.3516198  61.2369455  99.8397063
  64.2560950  60.1097760  99.3888254  67.1789648  56.8870392 103.9374729
  66.4122044  56.3328878 104.0831412  67.5900353  56.9592260 104.7988881
  71.7347747  80.5872167  96.4519994  70.8577213  80.4660968  96.0882241
  72.2105500  79.7958246  96.1998883  74.4803055  81.5236554  96.2537104
  73.5734511  81.2269667  96.3299818  74.7579036  81.2266372  95.3871390
  73.2501840  78.3823490  96.3949083  74.1121004  78.7078388  96.6544901
  73.4352184  77.5954985  95.8822149  34.4966714  10.2672982  85.5196556
  33.8228413  10.5704679  86.1281514  34.8832536  11.0702062  85.1702013
  38.4023600   7.5523238  83.7924003  38.3237231   7.2183101  84.6859761
  39.2233266   8.0445005  83.7915475  35.9727551   4.8691233  83.4133981
  36.6763401   5.0741235  84.0291637  35.2490200   5.4367995  83.6783065
  39.1775046  17.6306318  91.4846034  38.6139911  17.5396255  90.7162322
  39.0627441  16.8106222  91.9648526  44.7574605  21.2977286  86.7960499
  44.1062584  21.8831366  86.4094512  45.5518967  21.8283480  86.8555536
  38.6830232  18.3866423  87.1947633  39.4561108  17.8395410  87.0560509
  39.0355631  19.2510672  87.4062094  41.0196510  14.5459089  84.8266083
  41.2722030  14.0240610  84.0649546  40.0821069  14.3825234  84.9292767
  46.0639792  13.5494867  92.6340826  46.8502882  13.1314290  92.2831243
  46.3278497  14.4540959  92.8022475  46.2349870  18.9867717  87.3329483
  45.5995703  19.0602344  88.0450388  45.9047276  19.5761316  86.6548562
  51.4648219  13.4870100  93.5373805  52.1973391  12.9169317  93.7711634
  50.7087575  13.0991701  93.9780310  40.7392798  16.4487195  87.0290458
  40.6229056  15.7732098  87.6971542  40.8495058  15.9619569  86.2122611
  43.0824339  15.9097342  90.7337147  42.7182546  15.3827963  91.4450069
  43.9391455  15.5195811  90.5603633  42.7229826  10.9387242  85.7298496
  42.8904228  11.8067478  86.0968967  42.5326995  11.1014523  84.8059785
  42.7019047  13.3944899  86.7145162  42.5818672  13.8401950  87.5530643
  42.0071635  13.7430217  86.1558701  40.4625939  26.1648541  90.3635294
  40.3849969  27.1156366  90.4423774  39.8587583  25.8194413  91.0210220
  48.4004113  13.8666372  87.5425497  49.3121969  14.0993759  87.3673194
  47.8913760  14.4503416  86.9800575  47.0073695  18.8492191  94.9339078
  46.3782558  19.0137905  94.2315146  46.6199358  19.2633800  95.7050042
  50.8862927  19.7846629  92.2883442  50.2013966  20.1645530  91.7380475
  50.9706777  20.3941955  93.0215389  42.5601657  18.5866599  92.1989163
  43.0240003  18.8654302  91.4093786  42.2958455  17.6850043  92.0162254
  41.4970543  14.7089751  89.0078728  42.1994587  15.1610795  89.4752655
  41.1651172  14.0673570  89.6358621  49.2559687  20.3078543  97.0601143
  50.0777131  19.9058730  96.7783824  49.2522090  20.2046777  98.0117258
  57.3465680  16.6517291  93.4086114  56.5929388  16.0824690  93.2530118
  57.4813221  16.6179956  94.3556749  42.7364308  21.5230694  89.0840833
  42.6009983  22.3682229  89.5125681  43.2774121  21.7249971  88.3206767
  36.1893705  19.0406132  89.6568759  36.7018226  19.8349382  89.8074323
  36.8416418  18.3432422  89.5902360  37.9988590  22.1571888  91.7391512
  38.1755218  23.0789853  91.5512496  38.7945424  21.8430307  92.1685891
  46.0507054  15.0369867  86.1212162  45.5353678  15.8074471  86.3600549
  45.7784363  14.3635003  86.7445223  51.0241328  17.7902221  88.0565335
  50.2470771  17.4513381  87.6120498  51.7032809  17.7954845  87.3820301
  45.8393357  12.9096959  87.9471943  45.5343493  13.2243108  88.7982086
  46.7923800  12.9878379  87.9899276  44.2839789  19.0687182  89.5964897
  43.7561151  18.3339942  89.2838135  43.7827292  19.8461858  89.3504865
  49.2632635  17.2636203  94.7131943  48.6056310  17.9535464  94.8012072
  50.0673035  17.6532635  95.0565930  48.0738094  15.6180575  92.7635885
  48.5869976  16.2510567  93.2657595  48.7239318  15.0181771  92.3979245
  39.3428104  11.7611309  85.9767394  38.5065416  12.0985996  86.2976669
  39.2032874  11.6260289  85.0394531  42.4292390  16.8867392  82.5999870
  41.5219451  16.6556646  82.7991019  42.9263422  16.0905012  82.7873852
  45.3360468  25.5964900  85.5196556  44.6622167  25.8996596  86.1281514
  45.7226290  26.3993980  85.1702013  45.3353973  14.4921447  90.1396906
  46.0825792  15.0042844  89.8304028  45.6045562  14.1705499  91.0001300
  43.6080623  16.9879987  87.1223860  42.6991842  16.7039020  87.2196330
  43.6375707  17.4079066  86.2627167  48.8399890  20.5986577  90.8915028
  48.3862217  19.7577487  90.9480218  48.2093857  21.2347975  91.2289808
  47.7832810  11.5278563  92.1215695  47.0455567  11.0155949  92.4525938
  48.0359583  11.0878944  91.3098972  47.2832830  22.4363073  91.8264846
  47.5755804  22.9968131  91.1077212  47.7931450  22.7291634  92.5818005
  43.3056711  18.5288731  84.4611939  42.8676141  17.8124590  84.0017576
  44.0467152  18.7564846  83.8997030  42.2466455  23.2143425  92.9158299
  42.2042634  23.4404271  91.9866831  43.1629154  22.9806799  93.0644100
  51.4229826  16.8045928  90.5188257  51.2847724  16.9947524  89.5909447
  51.0666044  17.5665311  90.9756309  51.4499205  18.8722455  95.5299529
  51.8835712  18.7797744  96.3782583  52.1630786  18.8479955  94.8919545
  40.3632256  20.0906454  92.7120262  41.1572854  19.5956774  92.5102837
  39.6523948  19.5624317  92.3487967  45.1827100  22.4724549  97.0632630
  45.2364122  23.0415485  97.8310345  44.3141881  22.6426434  96.6986667
  36.6715019  14.2349535  88.7880015  35.7412607  14.1733991  89.0049977
  36.7672491  13.7125488  87.9916656  43.5351684  25.7644572  87.7343636
  43.7103439  25.2932615  88.5489258  42.8484472  26.3910338  87.9624896
  44.4908747  20.0417078  93.7806937  44.1558579  20.0017848  94.6764587
  43.9912692  19.3761794  93.3077347  47.4267938  17.3873113  84.0543996
  46.8097109  16.6619941  83.9577049  46.9584427  18.1482473  83.7111071
  38.1012769  28.9133935  94.5083496  38.3409367  29.5452459  95.1862514
  37.2581965  28.5621975  94.7948855  39.2166484  11.6058537  83.1765301
  38.3395951  11.4847338  82.8127547  39.6924237  10.8144615  82.9244189
  42.6140631  24.7213057  96.9125000  42.5410802  25.5268029  97.4244304
  42.1718024  24.9205023  96.0873021  42.4030410  23.9584827  90.4227821
  41.6197932  24.5006507  90.5166046  43.1023156  24.4758807  90.8222062
  53.5656818  15.4719822  94.7080318  53.5546694  16.3544538  94.3374251
  52.6974197  15.1191373  94.5134855  45.0739314  24.6199891  99.0683158
  45.7867286  25.2547356  98.9959060  44.5829343  24.7163757  98.2523160
  46.7956841  18.5251144  90.6400450  45.8613120  18.6452606  90.4705154
  46.9733510  17.6223611  90.3760460  50.1829392  14.3668463  91.1750484
  50.6489845  15.1996455  91.1010787  50.6336893  13.9013445  91.8795743
  48.2505624  20.7112285  88.1736636  48.5265467  20.5968879  89.0830510
  47.3810122  20.3129769  88.1348809  44.8859688  24.9598635  91.8169450
  45.0682082  24.1420291  92.2797202  45.7092674  25.1766328  91.3794340
  45.2201853  23.8866820  89.0784498  45.7489620  23.3759275  88.4654660
  45.4830073  23.5709351  89.9430031  38.5757601  24.9381937  91.8382274
  37.9067976  25.4228065  91.3546314  38.4370471  25.1851158  92.7525653
  42.7162870  26.9725681  98.4364933  43.2681178  27.1357302  99.2014018
  43.0569063  27.5630119  97.7644957  45.8531257  24.9207656  95.4228615
  45.7282396  24.1197396  94.9139560  46.5110348  25.4153850  94.9342585
  47.9166165  22.7216676  97.0508165  46.9696501  22.6022027  96.9786492
  48.2648938  21.8339174  97.1334426  44.9212599  22.5169393  93.2512517
  44.7737561  21.5886100  93.4320087  45.7466092  22.5389483  92.7669592
  48.5246720  23.3397951  94.3377390  49.4493268  23.1340813  94.2001841
  48.3562024  23.0914352  95.2466731  40.7742990   9.6662081  87.3086302
  41.4951353  10.0443334  86.8050019  40.1508294  10.3850958  87.4121280
  44.9174113  10.3707230  88.2444634  45.1337727  11.2531868  87.9433462
  44.4368180   9.9793444  87.5150276  48.3142037  23.8583619  89.6939481
  48.4878914  23.2930041  88.9413334  48.8070928  24.6584514  89.5118971
  54.1681428  16.6220042  91.3129781  54.6112574  15.8727367  90.9148904
  53.2907938  16.6130178  90.9303513  49.3017209  23.1750383  86.7936380
  49.9968114  23.7957076  87.0123694  49.6440359  22.3245734  87.0688757
  51.2008632  20.6250089  88.3223710  51.7259956  20.9637361  87.5973030
  51.1130985  19.6897104  88.1386845  42.8849293  26.6922072  92.6818964
  42.4454283  26.1998451  93.3751820  43.6357410  26.1495040  92.4411039
  35.3641632  22.8833613  92.6843592  36.1899652  22.5837385  92.3042235
  35.0135684  22.1141235  93.1333380  40.3323165  22.2360081  94.7541265
  39.7103174  21.5730786  94.4543493  41.0028032  22.2621213  94.0714913
  39.8936672  20.7864004  88.2299726  40.0424792  21.4699469  87.5766398
  40.7003116  20.7669094  88.7449181  53.7114293  18.0925280  93.7052229
  54.5461184  18.5315084  93.8689789  53.8473421  17.6163933  92.8860474
  37.6489305  16.8129182  89.2360795  37.4035347  15.9091512  89.4341005
  37.8185220  16.8146332  88.2940273  36.9184953  12.5457540  86.7346956
  36.2254198  12.6201895  86.0786992  36.6736704  11.7817883  87.2568473
  43.3932078  23.2812135  85.7011473  42.8206045  23.9002322  85.2481945
  43.9664871  23.8311496  86.2351395  46.6129337  23.5649285  86.8320055
  47.5460011  23.4994847  87.0352931  46.5252550  24.4005552  86.3734588
  49.2417354  22.8815155  83.7924003  49.1630986  22.5475019  84.6859761
  50.0627021  23.3736923  83.7915475  43.7778876  14.6172948  83.0427526
  44.7237981  14.4879156  83.1115944  43.3993121  13.8787609  83.5196954
  57.7572095  16.8092901  96.1406358  58.4875484  16.5478190  96.7014062
  57.1479041  16.0721623  96.1808426  55.8387392  14.9500764  96.7380810
  55.1120556  14.8156729  96.1297301  55.4234679  15.2577593  97.5437528
  41.9621793  12.5422924  82.9782411  41.0553249  12.2456037  83.0545124
  42.2397774  12.2452742  82.1116697  40.7320578   9.4009859  83.1194390
  41.5939742   9.7264757  83.3790207  40.9170922   8.6141355  82.6067456
  48.8853214   8.2738386  90.2629613  48.3051883   8.9323190  89.8807665
  48.6189147   7.4515730  89.8517031  47.6678092  10.4338476  89.3185961
  46.7803947  10.7188127  89.1006156  48.0832081  10.2732239  88.4713238
  51.0192628  10.4584997  93.0340301  51.7953019  10.9481449  93.3064917
  50.2940763  10.8843051  93.4912170  53.4565187  11.1712616  94.0914241
  54.0509678  10.9308352  93.3807549  53.5291771  10.4519747  94.7187777
  35.6762343  25.0146227  94.4057406  35.5416811  24.2546628  93.8395404
  35.2594405  25.7387127  93.9386195  46.8121306  20.1983151  83.4133981
  47.5157156  20.4033153  84.0291637  46.0883955  20.7659913  83.6783065
  47.6419116  15.9493012  89.5336251  47.5854318  16.4061563  88.6943884
  48.1947459  15.1883697  89.3559094  51.4523922  11.7382744  90.3586371
  51.1960856  11.3379379  91.1894579  50.8276790  12.4526538  90.2336510
  55.7636260  14.4778817  92.8657662  55.2035818  14.5472006  93.6389224
  55.1579763  14.3019802  92.1457159  38.8331469  25.9115544  94.6175849
  38.7163853  26.8560977  94.5154539  38.0123915  25.6089106  95.0061648
  48.7208003  20.6365680  85.4632441  49.5553607  20.2046878  85.2809916
  48.5592346  20.4647694  86.3909336  48.3753895  17.1397793  86.8288781
  48.3202699  16.9742065  85.8877225  47.7499951  17.8473826  86.9850970
  41.6850021   6.6405902  86.4074099  41.6728691   7.5847742  86.5642370
  42.5773443   6.4576048  86.1133560  39.8585983  26.5643806  97.8331777
  40.7613230  26.5967416  98.1498272  39.6323353  25.6344257  97.8478113
  41.6139585  25.3174793  94.4941856  40.6635216  25.3176654  94.3806228
  41.9172071  24.5707527  93.9777890  57.3492278  31.1535331  95.5587618
  57.9870688  31.0342078  94.8550958  57.2313121  32.1016175  95.6175570
  54.1581985  31.1062759  95.4949143  53.8200496  30.9903824  94.6069678
  55.0271753  30.7053924  95.4750149  50.0168800  32.9598235  91.4846034
  49.4533665  32.8688172  90.7162322  49.9021195  32.1398140  91.9648526
  54.6401768  32.2597611 101.4535348  54.6290408  31.8650409 100.5815852
  54.8022407  31.5263683 102.0469120  47.5633232  34.4549427  94.3230254
  48.3554524  34.1140252  93.9076554  47.8029882  34.5644402  95.2432408
  55.5968359  36.6269203  86.7960499  54.9456339  37.2123284  86.4094512
  56.3912722  37.1575398  86.8555536  49.5223986  33.7158340  87.1947633
  50.2954862  33.1687327  87.0560509  49.8749385  34.5802590  87.4062094
  51.3609029  35.0434723 100.4014532  51.0698895  35.9480353 100.2861199
  51.9966013  35.0851250 101.1158602  52.2865236  32.4211571  96.9915892
  52.8828808  32.1967594  96.2772855  52.3440207  31.6796317  97.5941340
  51.8590264  29.8751006  84.8266083  52.1115785  29.3532528  84.0649546
  50.9214823  29.7117152  84.9292767  56.9033547  28.8786785  92.6340826
  57.6896636  28.4606208  92.2831243  57.1672251  29.7832877  92.8022475
  57.0743624  34.3159635  87.3329483  56.4389457  34.3894262  88.0450388
  56.7441031  34.9053234  86.6548562  62.3041974  28.8162018  93.5373805
  63.0367146  28.2461235  93.7711634  61.5481330  28.4283618  93.9780310
  51.5786553  31.7779112  87.0290458  51.4622811  31.1024016  87.6971542
  51.6888813  31.2911486  86.2122611  53.9218094  31.2389260  90.7337147
  53.5576301  30.7119880  91.4450069  54.7785210  30.8487729  90.5603633
  59.8267394  22.5283592  97.9968413  59.4950719  23.3979003  97.7729628
  59.2313008  22.2119876  98.6762444  53.5623581  26.2679159  85.7298496
  53.7297983  27.1359396  86.0968967  53.3720750  26.4306441  84.8059785
  56.3198914  34.7296138  97.3964326  56.0199637  35.6321177  97.2880133
  55.9749973  34.4628321  98.2485479  49.7711395  31.1809935  93.4301030
  48.8461892  31.0486149  93.6378722  50.0195809  31.9604154  93.9270973
  59.7196058  27.2478678  95.0761763  58.8112935  27.1794087  94.7820524
  59.6683653  27.7250623  95.9043589  53.5412802  28.7236817  86.7145162
  53.4212427  29.1693867  87.5530643  52.8465390  29.0722134  86.1558701
  47.1320206  30.8243209  94.2644819  47.2612588  31.0777687  95.1784231
  46.4517658  31.4170917  93.9449475  51.3019694  41.4940458  90.3635294
  51.2243723  42.4448284  90.4423774  50.6981337  41.1486331  91.0210220
  53.7936923  28.6668324 103.0196661  53.0170257  29.2262244 103.0099525
  54.4327486  29.1525107 103.5411531  61.5857704  25.4495117  96.8539637
  60.9432084  25.7427650  96.2079432  61.0812633  25.3348037  97.6592834
  59.2397868  29.1958290  87.5425497  60.1515724  29.4285677  87.3673194
  58.7307515  29.7795334  86.9800575  52.0483296  31.4753777 102.5814628
  52.7897980  32.0138821 102.3049451  51.3420281  32.1020066 102.7386179
  57.5238635  33.6182918 101.1786789  57.9321991  33.1765328 100.4341421
  56.8015897  33.0435545 101.4320982  53.8769705  28.5555524  98.5520346
  54.7230901  28.9794938  98.6954995  53.8168343  27.8989149  99.2458909
  57.8467450  34.1784108  94.9339078  57.2176312  34.3429822  94.2315146
  57.4593112  34.5925718  95.7050042  61.7256682  35.1138546  92.2883442
  61.0407720  35.4937448  91.7380475  61.8100531  35.7233873  93.0215389
  57.0269151  26.2159893 100.2101520  56.7830083  26.9701953  99.6735795
  57.3029081  26.5945240 101.0448767  58.9807613  32.7598505  98.8878785
  59.1924509  33.4030265  98.2113166  58.9337362  31.9260822  98.4200715
  56.5833842  25.3716326  95.7915357  55.7218321  25.6697579  96.0832095
  56.6096277  25.5886725  94.8596390  53.3995412  33.9158516  92.1989163
  53.8633757  34.1946219  91.4093786  53.1352210  33.0141961  92.0162254
  50.2919493  33.4629998  95.1368926  50.8620850  33.8917266  94.4986411
  50.8827605  33.1812583  95.8353112  52.3364298  30.0381669  89.0078728
  53.0388341  30.4902712  89.4752655  52.0044926  29.3965488  89.6358621
  50.7844659  28.6293425 103.3829938  50.1543320  29.3109706 103.6165334
  50.6780747  28.5176507 102.4383076  46.0789632  28.2965221  94.3095862
  45.2888686  28.5522750  93.8335972  46.5700879  29.1113559  94.4147902
  60.0953441  35.6370461  97.0601143  60.9170885  35.2350648  96.7783824
  60.0915844  35.5338695  98.0117258  48.0304377  28.6609801  91.2679338
  47.2335541  28.7728495  91.7862834  47.8029969  28.9996453  90.4020229
  53.8610045  35.1854504  99.2161853  53.9254477  35.6474911 100.0520025
  53.1520969  34.5551869  99.3444163  44.3627335  28.5495712  96.7410853
  44.6135373  29.4342722  97.0068429  44.8986883  28.3700313  95.9685944
  68.1859434  31.9809209  93.4086114  67.4323143  31.4116607  93.2530118
  68.3206976  31.9471874  94.3556749  53.5758063  36.8522611  89.0840833
  53.4403737  37.6974147  89.5125681  54.1167875  37.0541889  88.3206767
  47.0287460  34.3698049  89.6568759  47.5411980  35.1641300  89.8074323
  47.6810173  33.6724340  89.5902360  48.8382345  37.4863806  91.7391512
  49.0148973  38.4081770  91.5512496  49.6339178  37.1722225  92.1685891
  48.1234701  29.5328438 101.6153675  48.0088216  28.6313695 101.9160774
  47.2679219  29.7792134 101.2638491  55.2026539  37.4746178 103.2141176
  54.7590393  36.6882556 102.8962080  55.8643752  37.6625328 102.5485066
  49.9613660  39.0041980  97.7401854  50.5121085  38.8759043  96.9678848
  49.1225136  39.3036869  97.3896747  57.3007777  37.7548978 101.2422577
  57.2826252  38.5757859 100.7502846  58.2227697  37.6303053 101.4672718
  53.7580831  35.2693107 102.0846085  54.2909168  34.5081396 101.8545393
  53.2294912  34.9766759 102.8270240  56.9250526  20.3753173  97.6139727
  56.5814795  21.2654815  97.5378837  57.2929489  20.1854831  96.7509312
  44.9936377  32.6986704  90.4328329  45.8311599  33.1083712  90.2162037
  45.1714644  31.7586146  90.4028523  56.8900809  30.3661784  86.1212162
  56.3747432  31.1366389  86.3600549  56.6178117  29.6926921  86.7445223
  54.4747920  25.2111485  91.1797400  53.6189516  24.8218336  91.0003039
  54.8874872  25.2903446  90.3197186  56.0047066  22.7457828  95.5788960
  55.5011862  22.7087964  94.7656765  56.2977673  23.6550571  95.6385617
  52.2489952  22.8296558  94.5855142  53.1142949  22.6339367  94.2261031
  52.3167461  22.6006910  95.5124499  61.8635083  33.1194139  88.0565335
  61.0864526  32.7805299  87.6120498  62.5426564  33.1246762  87.3820301
  56.6787112  28.2388877  87.9471943  56.3737248  28.5535026  88.7982086
  57.6317554  28.3170296  87.9899276  55.1233544  34.3979100  89.5964897
  54.5954905  33.6631859  89.2838135  54.6221047  35.1753776  89.3504865
  60.1026390  32.5928120  94.7131943  59.4450064  33.2827382  94.8012072
  60.9066789  32.9824552  95.0565930  49.8552271  25.0598766  91.9571509
  50.4296023  24.8373948  91.2244702  50.4423254  25.1287461  92.7100110
  58.9131849  30.9472493  92.7635885  59.4263730  31.5802485  93.2657595
  59.5633073  30.3473689  92.3979245  50.1821859  27.0903227  85.9767394
  49.3459171  27.4277914  86.2976669  50.0426628  26.9552207  85.0394531
  52.1574939  21.9340015  90.6846578  51.5039351  21.6189032  90.0603193
  52.1155413  21.3115755  91.4106401  53.2686144  32.2159310  82.5999870
  52.3613206  31.9848564  82.7991019  53.7657176  31.4196929  82.7873852
  56.1754223  40.9256817  85.5196556  55.5015922  41.2288514  86.1281514
  56.5620045  41.7285898  85.1702013  55.3912680  28.4221949  95.0094226
  54.4735241  28.6436896  94.8515914  55.8072823  28.4968259  94.1505933
  56.1747727  29.8213364  90.1396906  56.9219546  30.3334761  89.8304028
  56.4439317  29.4997417  91.0001300  54.4474377  32.3171905  87.1223860
  53.5385597  32.0330938  87.2196330  54.4769461  32.7370984  86.2627167
  59.6793645  35.9278494  90.8915028  59.2255972  35.0869404  90.9480218
  59.0487612  36.5639893  91.2289808  58.6226564  26.8570480  92.1215695
  57.8849321  26.3447867  92.4525938  58.8753338  26.4170862  91.3098972
  58.1226584  37.7654991  91.8264846  58.4149558  38.3260048  91.1077212
  58.6325205  38.0583552  92.5818005  58.7238192  19.6346732  92.7157465
  59.0297069  18.7744096  92.4283380  59.4490797  20.2264353  92.5156458
  45.0162548  30.0377419  91.1039062  44.8186948  29.4446780  90.3790129
  44.4609212  29.7329629  91.8215001  52.9959271  29.9300526  93.2233656
  53.0507881  28.9774362  93.1476132  52.1850474  30.0859965  93.7074954
  54.1450465  33.8580649  84.4611939  53.7069895  33.1416508  84.0017576
  54.8860906  34.0856763  83.8997030  50.9351631  28.5477585  90.9824034
  50.1219497  28.8471756  91.3889227  51.4310626  28.1533274  91.6998517
  53.0860209  38.5435342  92.9158299  53.0436388  38.7696189  91.9866831
  54.0022908  38.3098717  93.0644100  56.5325843  29.0119410  99.8138928
  56.8875231  29.2390883 100.6733394  57.1797974  29.3437787  99.1916184
  62.2623580  32.1337846  90.5188257  62.1241479  32.3239442  89.5909447
  61.9059799  32.8957228  90.9756309  50.4265706  26.1195941  96.5985269
  51.0665085  25.9784700  95.9008233  49.5943237  25.8330454  96.2223871
  62.2892960  34.2014373  95.5299529  62.7229466  34.1089662  96.3782583
  63.0024540  34.1771873  94.8919545  51.2026010  35.4198371  92.7120262
  51.9966609  34.9248691  92.5102837  50.4917702  34.8916234  92.3487967
  56.0220855  37.8016467  97.0632630  56.0757877  38.3707403  97.8310345
  55.1535636  37.9718352  96.6986667  47.5108774  29.5641453  88.7880015
  46.5806362  29.5025908  89.0049977  47.6066246  29.0417406  87.9916656
  47.4294323  26.0896266  91.3758256  47.6901140  27.0041599  91.2667417
  48.2511495  25.6220708  91.5254869  48.9019248  27.5034023  98.5457081
  49.5742301  27.2951385  97.8969730  48.0749034  27.3056109  98.1062313
  63.1508509  34.2438073  98.0632414  63.3444399  35.1483884  98.3091689
  63.0509127  33.7845492  98.8970999  54.8044820  24.1295964 100.5622742
  54.1572735  24.8285914 100.4687218  55.5745835  24.5632108 100.9298990
  58.2123618  34.3944816 103.6373295  58.0609124  34.1655368 102.7203379
  58.2028297  35.3515417 103.6504640  54.9808954  31.9676729  98.6219561
  55.9101014  32.1187888  98.4488529  54.5599984  32.0560750  97.7668208
  53.7797286  35.9927393  96.3918099  53.6408372  35.6246178  97.2644037
  52.9911882  36.5075033  96.2202057  54.3745438  41.0936490  87.7343636
  54.5497194  40.6224533  88.5489258  53.6878226  41.7202256  87.9624896
  55.3302501  35.3708996  93.7806937  54.9952334  35.3309766  94.6764587
  54.8306447  34.7053712  93.3077347  49.3046745  30.7776626  99.3059518
  49.1666543  30.0456865  99.9071057  50.2151669  30.6885526  99.0243706
  58.2661693  32.7165030  84.0543996  57.6490864  31.9911858  83.9577049
  57.7978181  33.4774391  83.7111071  51.9329046  30.4896585  98.7943198
  52.6428664  29.8489777  98.7529816  51.8898354  30.7409480  99.7169378
  59.9215825  37.4263939 101.7149777  59.8628371  36.7423159 101.0480360
  60.3235343  38.1682929 101.2630403  50.6457980  27.4761803 100.6138837
  50.1095337  27.0252542 101.2660433  50.0574688  27.6107712  99.8709301
  48.9406523  44.2425852  94.5083496  49.1803122  44.8744377  95.1862514
  48.0975720  43.8913892  94.7948855  50.0560239  26.9350455  83.1765301
  49.1789705  26.8139255  82.8127547  50.5317992  26.1436533  82.9244189
  59.9233232  35.3903523  99.9463756  59.0360011  35.0529444 100.0690155
  60.4931783  34.6586554 100.1832522  41.5762379  31.7227614  93.2706808
  42.2633419  31.4089344  92.6827823  41.4210508  32.6268979  92.9974059
  46.3797101  26.6117811  97.6991832  46.2955290  26.0043480  96.9642241
  45.5579807  27.1026829  97.7001328  53.4534385  40.0504975  96.9125000
  53.3804557  40.8559946  97.4244304  53.0111778  40.2496941  96.0873021
  53.2424165  39.2876745  90.4227821  52.4591687  39.8298425  90.5166046
  53.9416910  39.8050725  90.8222062  56.5520815  25.0971374  93.0662027
  57.0489514  24.3441337  92.7463097  55.7807796  25.1335691  92.5005236
  64.4050572  30.8011740  94.7080318  64.3940449  31.6836455  94.3374251
  63.5367952  30.4483291  94.5134855  55.9133069  39.9491809  99.0683158
  56.6261041  40.5839274  98.9959060  55.4223097  40.0455675  98.2523160
  57.6350596  33.8543062  90.6400450  56.7006874  33.9744524  90.4705154
  57.8127264  32.9515528  90.3760460  53.1355784  27.2388757  92.7933711
  52.7653571  26.6859798  93.4814617  53.6314876  26.6346891  92.2408711
  61.0223147  29.6960381  91.1750484  61.4883599  30.5288372  91.1010787
  61.4730647  29.2305362  91.8795743  50.9644982  37.6986252  99.8888729
  51.6654442  38.3322735 100.0418123  50.4940097  38.0400984  99.1284368
  59.0899378  36.0404202  88.1736636  59.3659222  35.9260797  89.0830510
  58.2203877  35.6421687  88.1348809  58.9939810  22.0640968  95.2141385
  58.0802890  22.2945195  95.3823592  59.4232911  22.1479412  96.0655418
  58.7646268  30.2530860  97.7141280  58.1117718  30.5006767  97.0593732
  59.1426648  29.4394998  97.3803757  55.7253442  40.2890553  91.8169450
  55.9075837  39.4712209  92.2797202  56.5486428  40.5058245  91.3794340
  56.0595608  39.2158738  89.0784498  56.5883374  38.7051193  88.4654660
  56.3223827  38.9001268  89.9430031  54.8133841  30.9950671 104.2007317
  54.1374478  30.8944800 104.8709692  55.6361475  30.8389885 104.6643314
  46.5612700  37.2322607  96.8219832  47.1466137  36.4866295  96.9547736
  46.3637539  37.5426564  97.7056496  49.4151356  40.2673855  91.8382274
  48.7461731  40.7519982  91.3546314  49.2764225  40.5143075  92.7525653
  41.1530355  29.8028208  95.5424275  41.1914455  29.2691798  96.3361393
  40.6470648  29.2763413  94.9235252  53.5556624  42.3017598  98.4364933
  54.1074932  42.4649220  99.2014018  53.8962818  42.8922036  97.7644957
  48.5321117  24.6492748  99.0386817  48.5962444  25.5107579  98.6264215
  48.4688238  24.0366750  98.3059176  58.4067498  37.1278856 104.2913587
  58.9507402  37.7408814 103.7968542  57.8254343  37.6858434 104.8080600
  44.7838933  28.5292310  88.6178206  45.0792374  27.6202988  88.5645260
  43.8826968  28.5080049  88.2959209  56.6925011  40.2499574  95.4228615
  56.5676151  39.4489314  94.9139560  57.3504103  40.7445767  94.9342585
  48.3133180  26.6048306  94.6005755  47.5919765  27.2184274  94.4613228
  49.1026435  27.1406071  94.5222401  58.7559920  38.0508594  97.0508165
  57.8090255  37.9313945  96.9786492  59.1042693  37.1631092  97.1334426
  51.1159493  23.9402733 100.8746407  51.6393895  24.1865029 101.6372716
  50.8971826  24.7722768 100.4549544  46.5126774  26.2106407  88.7417532
  46.1839480  25.3303786  88.5592637  46.8666145  26.1554076  89.6293921
  55.7606353  37.8461310  93.2512517  55.6131316  36.9178018  93.4320087
  56.5859847  37.8681401  92.7669592  49.6268597  26.4979377  89.1093009
  49.9664670  27.0265299  88.3871618  50.0740718  26.8359783  89.8851576
  59.3640475  38.6689869  94.3377390  60.2887022  38.4632730  94.2001841
  59.1955778  38.4206270  95.2466731  52.3212038  24.8816428  98.5596077
  51.9808859  24.0824241  98.9616757  51.6151044  25.1818139  97.9872910
  52.9728510  21.9665740  97.0123400  53.7954579  21.4926219  96.8902291
  53.2166574  22.7456224  97.5122087  51.6136745  24.9953999  87.3086302
  52.3345107  25.3735252  86.8050019  50.9902049  25.7142876  87.4121280
  55.7567867  25.6999148  88.2444634  55.9731482  26.5823786  87.9433462
  55.2761935  25.3085361  87.5150276  50.4967089  28.6584861  94.8215379
  50.3511669  28.9725164  95.7139660  50.0192292  29.2769761  94.2686278
  52.3563472  25.6487409  94.8696268  52.3425040  24.7528502  94.5328566
  53.0735900  25.6558073  95.5034555  54.2089602  26.0824749  96.9149396
  53.9507380  27.0041820  96.9133726  53.6774643  25.6855184  97.6049860
  59.1535791  39.1875536  89.6939481  59.3272669  38.6221959  88.9413334
  59.6464682  39.9876431  89.5118971  44.9712751  31.1990205  97.7603040
  44.4266219  31.9750013  97.8923314  45.8492101  31.5461010  97.6022162
  51.7600368  24.5301789  90.1383839  51.8816279  23.6018436  90.3374726
  51.4702410  24.5440475  89.2262154  54.6291558  22.2156700  93.2750558
  54.6513255  22.2796033  92.3202538  55.0459617  21.3761208  93.4691065
  65.0075182  31.9511959  91.3129781  65.4506328  31.2019285  90.9148904
  64.1301693  31.9422096  90.9303513  60.1410964  38.5042301  86.7936380
  60.8361868  39.1248993  87.0123694  60.4834114  37.6537652  87.0688757
  45.7578773  30.3260102 100.6533197  45.0160509  30.4742737 101.2397827
  45.4371517  30.5868367  99.7899946  62.0402387  35.9542006  88.3223710
  62.5653711  36.2929279  87.5973030  61.9524739  35.0189022  88.1386845
  53.7022435  39.8676080 100.4513587  54.0109562  39.6225227 101.3236287
  54.4997917  40.0722718  99.9632457  53.7243047  42.0213990  92.6818964
  53.2848038  41.5290368  93.3751820  54.4751164  41.4786957  92.4411039
  46.2035386  38.2125530  92.6843592  47.0293406  37.9129302  92.3042235
  45.8529438  37.4433153  93.1333380  51.1716920  37.5651999  94.7541265
  50.5496929  36.9022704  94.4543493  51.8421787  37.5913131  94.0714913
  44.4043992  36.1311857  93.6432525  43.5675900  35.7034031  93.4616526
  44.3767637  36.3244300  94.5803316  61.7296293  36.5874910 103.6274908
  60.9391837  36.5699049 103.0879408  61.4929647  37.1263204 104.3823945
  61.8494168  33.4367376 100.9407637  61.8992173  33.2717384 101.8823160
  61.7408091  32.5694635 100.5505518  50.7330427  36.1155922  88.2299726
  50.8818547  36.7991386  87.5766398  51.5396870  36.0961012  88.7449181
  59.1397930  29.4198304 102.2566944  60.0407793  29.2804769 101.9650941
  59.2145905  29.5852759 103.1965121  53.4740736  26.7965159 101.1020130
  52.6044045  27.0898725 100.8302718  53.7100216  27.3805604 101.8227393
  63.3512365  35.8564318 101.1849658  63.0597173  36.2194298 102.0213119
  62.7384496  35.1431326 101.0062990  64.5508047  33.4217198  93.7052229
  65.3854938  33.8607002  93.8689789  64.6867176  32.9455851  92.8860474
  61.5999553  30.9796932  99.6529716  62.0753675  31.1724579  98.8448568
  60.6765118  31.0356118  99.4073100  48.4883060  32.1421100  89.2360795
  48.2429101  31.2383430  89.4341005  48.6578974  32.1438250  88.2940273
  56.1779769  23.0144776  98.6185550  56.6961713  23.7505803  98.2932039
  55.8234902  23.3208769  99.4532309  47.7578707  27.8749457  86.7346956
  47.0647952  27.9493812  86.0786992  47.5130459  27.1109801  87.2568473
  56.4292364  19.4345059  94.1386447  56.7094117  18.7668248  94.7646873
  57.2142971  19.6274154  93.6261111  54.2325832  38.6104052  85.7011473
  53.6599799  39.2294240  85.2481945  54.8058626  39.1603414  86.2351395
  60.3001222  27.8562693  97.8858022  61.2518645  27.9560790  97.9070246
  60.1304672  27.0640961  98.3956106  58.3215601  24.9418276  98.0717423
  57.7265534  25.2223288  97.3763911  58.0365298  25.4312177  98.8434164
  57.4523092  38.8941203  86.8320055  58.3853765  38.8286764  87.0352931
  57.3646305  39.7297469  86.3734588  60.0811109  38.2107073  83.7924003
  60.0024740  37.8766937  84.6859761  60.9020775  38.7028841  83.7915475
  62.7789300  31.0768812  97.0000322  62.7465620  30.1384813  97.1860005
  63.3889923  31.1552849  96.2666146  54.6172631  29.9464865  83.0427526
  55.5631735  29.8171073  83.1115944  54.2386876  29.2079527  83.5196954
  62.9283788  27.8679856  97.0458605  62.4122837  27.0838312  96.8588534
  63.8123737  27.5398572  97.2105124  60.5894515  21.6120871  93.0054417
  60.3919336  21.3035959  93.8897749  61.1994221  22.3382510  93.1352347
  68.5965850  32.1384819  96.1406358  69.3269238  31.8770107  96.7014062
  67.9872795  31.4013541  96.1808426  66.6781147  30.2792682  96.7380810
  65.9514310  30.1448647  96.1297301  66.2628434  30.5869510  97.5437528
  54.5011323  33.9982611 104.5028183  55.4214333  34.1761210 104.6968229
  54.4660906  33.0538657 104.3507882  52.8015548  27.8714842  82.9782411
  51.8947003  27.5747954  83.0545124  53.0791529  27.5744660  82.1116697
  43.7193488  29.1921205  93.4281457  43.3996272  28.3386513  93.1355831
  43.1726916  29.4069783  94.1839425  47.4973396  31.9083646  97.1450964
  47.7159405  32.8400754  97.1638998  47.9099169  31.5491620  97.9305768
  54.4177613  22.4151731  89.1326652  53.6078342  22.0698816  89.5081898
  55.1062030  22.1059275  89.7214264  56.3468162  21.4929778  90.7550949
  56.8999200  21.9125232  91.4140972  56.5838248  20.5665526  90.7973905
  51.5714332  24.7301777  83.1194390  52.4333496  25.0556675  83.3790207
  51.7564677  23.9433273  82.6067456  43.5881748  32.8124116  95.3974579
  42.8945220  32.3978069  94.8844533  44.3354739  32.8544653  94.8007998
  59.7246969  23.6030303  90.2629613  59.1445638  24.2615107  89.8807665
  59.4582902  22.7807648  89.8517031  58.1750535  23.0035361  92.4650933
  58.6750314  23.1151896  91.6565252  58.8186143  22.6996414  93.1051742
  52.2332531  30.9113991 105.3518774  51.7499613  31.7114351 105.5582663
  52.3193470  30.9221935 104.3986218  45.5018491  32.7442370  93.2740594
  45.4789179  32.8430058  92.3222477  45.8119127  33.5907521  93.5957760
  48.1605869  34.8018525  97.3887208  49.1149122  34.7702468  97.3217140
  47.9618392  34.3409149  98.2037434  48.7505251  33.3719641  99.9558006
  49.5698140  33.8663720  99.9792843  49.0242058  32.4551609  99.9275573
  58.5071847  25.7630394  89.3185961  57.6197702  26.0480044  89.1006156
  58.9225836  25.6024157  88.4713238  61.8586383  25.7876915  93.0340301
  62.6346773  26.2773367  93.3064917  61.1334517  26.2134969  93.4912170
  64.2958942  26.5004534  94.0914241  64.8903432  26.2600270  93.3807549
  64.3685525  25.7811664  94.7187777  46.5156097  40.3438145  94.4057406
  46.3810565  39.5838546  93.8395404  46.0988160  41.0679045  93.9386195
  57.6515060  35.5275068  83.4133981  58.3550910  35.7325071  84.0291637
  56.9277709  36.0951830  83.6783065  58.4812871  31.2784930  89.5336251
  58.4248072  31.7353481  88.6943884  59.0341213  30.5175614  89.3559094
  62.2917677  27.0674661  90.3586371  62.0354611  26.6671297  91.1894579
  61.6670545  27.7818455  90.2336510  66.6030014  29.8070735  92.8657662
  66.0429572  29.8763924  93.6389224  65.9973518  29.6311719  92.1457159
  49.6725223  41.2407462  94.6175849  49.5557607  42.1852894  94.5154539
  48.8517669  40.9381023  95.0061648  59.5601758  35.9657598  85.4632441
  60.3947362  35.5338796  85.2809916  59.3986101  35.7939611  86.3909336
  59.2147650  32.4689711  86.8288781  59.1596454  32.3033982  85.8877225
  58.5893705  33.1765744  86.9850970  56.5293557  34.7738623 106.1542343
  57.3984717  34.9479275 105.7928978  56.0500309  35.5933040 106.0318073
  52.5243775  21.9697820  86.4074099  52.5122445  22.9139660  86.5642370
  53.4167197  21.7867965  86.1133560  50.6979737  41.8935724  97.8331777
  51.6006984  41.9259334  98.1498272  50.4717107  40.9636175  97.8478113
  52.4533339  40.6466710  94.4941856  51.5028970  40.6468572  94.3806228
  52.7565825  39.8999445  93.9777890  56.3395895  18.5640596  90.6620036
  55.5728291  18.0099083  90.8076718  56.7506600  18.6362465  91.5234187
  68.1886033  46.4827249  95.5587618  68.8264443  46.3633996  94.8550958
  68.0706876  47.4308093  95.6175570  64.9975739  46.4354677  95.4949143
  64.6594251  46.3195741  94.6069678  65.8665507  46.0345842  95.4750149
  60.8562555  48.2890153  91.4846034  60.2927420  48.1980090  90.7162322
  60.7414950  47.4690058  91.9648526  65.4795522  47.5889528 101.4535348
  65.4684163  47.1942327 100.5815852  65.6416162  46.8555601 102.0469120
  58.4026987  49.7841345  94.3230254  59.1948279  49.4432169  93.9076554
  58.6423637  49.8936320  95.2432408  66.4362114  51.9561121  86.7960499
  65.7850093  52.5415201  86.4094512  67.2306476  52.4867316  86.8555536
  60.3617741  49.0450258  87.1947633  61.1348617  48.4979245  87.0560509
  60.7143140  49.9094507  87.4062094  62.2002783  50.3726640 100.4014532
  61.9092649  51.2772271 100.2861199  62.8359768  50.4143168 101.1158602
  63.1258990  47.7503489  96.9915892  63.7222562  47.5259511  96.2772855
  63.1833962  47.0088234  97.5941340  62.6984018  45.2042924  84.8266083
  62.9509539  44.6824445  84.0649546  61.7608578  45.0409070  84.9292767
  67.7427301  44.2078702  92.6340826  68.5290391  43.7898126  92.2831243
  68.0066006  45.1124795  92.8022475  67.9137379  49.6451553  87.3329483
  67.2783212  49.7186179  88.0450388  67.5834785  50.2345152  86.6548562
  73.1435728  44.1453936  93.5373805  73.8760900  43.5753153  93.7711634
  72.3875084  43.7575536  93.9780310  62.4180307  47.1071030  87.0290458
  62.3016565  46.4315933  87.6971542  62.5282567  46.6203404  86.2122611
  64.7611848  46.5681177  90.7337147  64.3970055  46.0411798  91.4450069
  65.6178964  46.1779646  90.5603633  70.6661149  37.8575510  97.9968413
  70.3344474  38.7270921  97.7729628  70.0706762  37.5411794  98.6762444
  64.4017335  41.5971077  85.7298496  64.5691737  42.4651313  86.0968967
  64.2114504  41.7598359  84.8059785  67.1592668  50.0588056  97.3964326
  66.8593391  50.9613095  97.2880133  66.8143728  49.7920239  98.2485479
  60.6105150  46.5101853  93.4301030  59.6855646  46.3778067  93.6378722
  60.8589563  47.2896072  93.9270973  70.5589812  42.5770596  95.0761763
  69.6506689  42.5086004  94.7820524  70.5077408  43.0542541  95.9043589
  64.3806556  44.0528734  86.7145162  64.2606181  44.4985785  87.5530643
  63.6859144  44.4014052  86.1558701  57.9713961  46.1535126  94.2644819
  58.1006342  46.4069605  95.1784231  57.2911412  46.7462834  93.9449475
  62.1413448  56.8232376  90.3635294  62.0637478  57.7740201  90.4423774
  61.5375092  56.4778249  91.0210220  64.6330678  43.9960242 103.0196661
  63.8564012  44.5554162 103.0099525  65.2721241  44.4817025 103.5411531
  72.4251459  40.7787034  96.8539637  71.7825839  41.0719568  96.2079432
  71.9206387  40.6639955  97.6592834  70.0791622  44.5250208  87.5425497
  70.9909478  44.7577594  87.3673194  69.5701269  45.1087252  86.9800575
  62.8877050  46.8045695 102.5814628  63.6291735  47.3430739 102.3049451
  62.1814036  47.4311984 102.7386179  68.3632390  48.9474835 101.1786789
  68.7715746  48.5057246 100.4341421  67.6409651  48.3727463 101.4320982
  64.7163460  43.8847442  98.5520346  65.5624655  44.3086856  98.6954995
  64.6562098  43.2281066  99.2458909  68.6861204  49.5076026  94.9339078
  68.0570067  49.6721740  94.2315146  68.2986867  49.9217636  95.7050042
  72.5650436  50.4430464  92.2883442  71.8801475  50.8229365  91.7380475
  72.6494286  51.0525791  93.0215389  67.8662905  41.5451811 100.2101520
  67.6223837  42.2993871  99.6735795  68.1422836  41.9237158 101.0448767
  69.8201368  48.0890423  98.8878785  70.0318263  48.7322183  98.2113166
  69.7731116  47.2552739  98.4200715  67.4227597  40.7008244  95.7915357
  66.5612076  40.9989497  96.0832095  67.4490032  40.9178642  94.8596390
  64.2389166  49.2450434  92.1989163  64.7027512  49.5238137  91.4093786
  63.9745964  48.3433879  92.0162254  61.1313247  48.7921916  95.1368926
  61.7014604  49.2209184  94.4986411  61.7221359  48.5104500  95.8353112
  63.1758052  45.3673586  89.0078728  63.8782096  45.8194630  89.4752655
  62.8438681  44.7257405  89.6358621  61.6238414  43.9585343 103.3829938
  60.9937075  44.6401624 103.6165334  61.5174502  43.8468425 102.4383076
  56.9183386  43.6257139  94.3095862  56.1282440  43.8814668  93.8335972
  57.4094634  44.4405477  94.4147902  70.9347196  50.9662378  97.0601143
  71.7564640  50.5642566  96.7783824  70.9309599  50.8630612  98.0117258
  58.8698132  43.9901718  91.2679338  58.0729295  44.1020413  91.7862834
  58.6423724  44.3288371  90.4020229  64.7003799  50.5146422  99.2161853
  64.7648232  50.9766829 100.0520025  63.9914723  49.8843787  99.3444163
  55.2021089  43.8787630  96.7410853  55.4529128  44.7634639  97.0068429
  55.7380638  43.6992231  95.9685944  79.0253189  47.3101127  93.4086114
  78.2716897  46.7408525  93.2530118  79.1600730  47.2763791  94.3556749
  64.4151817  52.1814529  89.0840833  64.2797492  53.0266065  89.5125681
  64.9561630  52.3833807  88.3206767  60.9019157  38.2606109 105.7455189
  60.5086102  37.7072308 106.4202833  61.7185297  38.5716687 106.1361706
  57.8681214  49.6989967  89.6568759  58.3805735  50.4933217  89.8074323
  58.5203927  49.0016258  89.5902360  59.6776099  52.8155723  91.7391512
  59.8542727  53.7373688  91.5512496  60.4732933  52.5014143  92.1685891
  63.8187118  39.6763988 103.3375445  64.5596831  40.2771141 103.2579908
  64.0505040  38.9341626 102.7793488  58.9628456  44.8620355 101.6153675
  58.8481971  43.9605613 101.9160774  58.1072973  45.1084052 101.2638491
  66.0420293  52.8038096 103.2141176  65.5984148  52.0174474 102.8962080
  66.7037507  52.9917246 102.5485066  60.8007415  54.3333897  97.7401854
  61.3514840  54.2050961  96.9678848  59.9618890  54.6328786  97.3896747
  68.1401531  53.0840896 101.2422577  68.1220007  53.9049777 100.7502846
  69.0621452  52.9594971 101.4672718  64.5974586  50.5985025 102.0846085
  65.1302922  49.8373313 101.8545393  64.0688667  50.3058677 102.8270240
  67.7644281  35.7045091  97.6139727  67.4208550  36.5946733  97.5378837
  68.1323243  35.5146749  96.7509312  55.8330131  48.0278621  90.4328329
  56.6705353  48.4375630  90.2162037  56.0108399  47.0878064  90.4028523
  67.7294563  45.6953702  86.1212162  67.2141187  46.4658307  86.3600549
  67.4571872  45.0218838  86.7445223  65.3141674  40.5403403  91.1797400
  64.4583271  40.1510253  91.0003039  65.7268626  40.6195364  90.3197186
  66.8440821  38.0749746  95.5788960  66.3405617  38.0379881  94.7656765
  67.1371428  38.9842489  95.6385617  63.0883707  38.1588476  94.5855142
  63.9536704  37.9631285  94.2261031  63.1561216  37.9298828  95.5124499
  72.7028837  48.4486057  88.0565335  71.9258280  48.1097216  87.6120498
  73.3820318  48.4538680  87.3820301  67.5180866  43.5680794  87.9471943
  67.2131002  43.8826943  88.7982086  68.4711309  43.6462214  87.9899276
  65.9627298  49.7271018  89.5964897  65.4348660  48.9923777  89.2838135
  65.4614801  50.5045694  89.3504865  70.9420144  47.9220038  94.7131943
  70.2843819  48.6119299  94.8012072  71.7460544  48.3116470  95.0565930
  60.6946026  40.3890684  91.9571509  61.2689778  40.1665865  91.2244702
  61.2817008  40.4579378  92.7100110  69.7525603  46.2764411  92.7635885
  70.2657485  46.9094403  93.2657595  70.4026827  45.6765606  92.3979245
  61.0215613  42.4195145  85.9767394  60.1852925  42.7569831  86.2976669
  60.8820383  42.2844125  85.0394531  62.9968694  37.2631933  90.6846578
  62.3433106  36.9480950  90.0603193  62.9549168  36.6407673  91.4106401
  64.1079899  47.5451228  82.5999870  63.2006960  47.3140481  82.7991019
  64.6050930  46.7488847  82.7873852  67.0147977  56.2548735  85.5196556
  66.3409676  56.5580432  86.1281514  67.4013799  57.0577815  85.1702013
  66.2306434  43.7513866  95.0094226  65.3128995  43.9728813  94.8515914
  66.6466578  43.8260177  94.1505933  67.0141482  45.1505282  90.1396906
  67.7613301  45.6626679  89.8304028  67.2833071  44.8289335  91.0001300
  65.2868132  47.6463823  87.1223860  64.3779351  47.3622855  87.2196330
  65.3163216  48.0662901  86.2627167  70.5187399  51.2570412  90.8915028
  70.0649726  50.4161322  90.9480218  69.8881366  51.8931810  91.2289808
  69.4620319  42.1862398  92.1215695  68.7243076  41.6739784  92.4525938
  69.7147092  41.7462780  91.3098972  68.9620339  53.0946909  91.8264846
  69.2543313  53.6551966  91.1077212  69.4718959  53.3875470  92.5818005
  69.5631946  34.9638650  92.7157465  69.8690823  34.1036014  92.4283380
  70.2884551  35.5556270  92.5156458  55.8556302  45.3669337  91.1039062
  55.6580702  44.7738697  90.3790129  55.3002966  45.0621547  91.8215001
  63.8353026  45.2592443  93.2233656  63.8901636  44.3066280  93.1476132
  63.0244228  45.4151882  93.7074954  64.9844220  49.1872566  84.4611939
  64.5463650  48.4708425  84.0017576  65.7254661  49.4148681  83.8997030
  61.7745386  43.8769503  90.9824034  60.9613251  44.1763674  91.3889227
  62.2704380  43.4825192  91.6998517  63.9253964  53.8727260  92.9158299
  63.8830143  54.0988106  91.9866831  64.8416663  53.6390634  93.0644100
  67.3719598  44.3411327  99.8138928  67.7268985  44.5682801 100.6733394
  68.0191729  44.6729704  99.1916184  73.1017335  47.4629763  90.5188257
  72.9635233  47.6531359  89.5909447  72.7453553  48.2249146  90.9756309
  61.2659461  41.4487858  96.5985269  61.9058840  41.3076618  95.9008233
  60.4336991  41.1622372  96.2223871  73.1286714  49.5306290  95.5299529
  73.5623221  49.4381579  96.3782583  73.8418295  49.5063791  94.8919545
  62.0419765  50.7490289  92.7120262  62.8360363  50.2540609  92.5102837
  61.3311457  50.2208152  92.3487967  66.8614609  53.1308384  97.0632630
  66.9151631  53.6999321  97.8310345  65.9929390  53.3010269  96.6986667
  58.3502528  44.8933371  88.7880015  57.4200116  44.8317826  89.0049977
  58.4460000  44.3709323  87.9916656  58.2688077  41.4188183  91.3758256
  58.5294894  42.3333517  91.2667417  59.0905249  40.9512626  91.5254869
  59.7413002  42.8325941  98.5457081  60.4136056  42.6243303  97.8969730
  58.9142789  42.6348027  98.1062313  73.9902264  49.5729991  98.0632414
  74.1838154  50.4775802  98.3091689  73.8902882  49.1137410  98.8970999
  65.6438574  39.4587882 100.5622742  64.9966489  40.1577831 100.4687218
  66.4139590  39.8924026 100.9298990  69.0517372  49.7236734 103.6373295
  68.9002879  49.4947285 102.7203379  69.0422052  50.6807335 103.6504640
  65.8202709  47.2968646  98.6219561  66.7494769  47.4479806  98.4488529
  65.3993739  47.3852667  97.7668208  64.6191041  51.3219311  96.3918099
  64.4802126  50.9538095  97.2644037  63.8305637  51.8366950  96.2202057
  65.2139193  56.4228407  87.7343636  65.3890948  55.9516451  88.5489258
  64.5271981  57.0494174  87.9624896  66.1696256  50.7000914  93.7806937
  65.8346088  50.6601684  94.6764587  65.6700201  50.0345630  93.3077347
  60.1440500  46.1068544  99.3059518  60.0060298  45.3748782  99.9071057
  61.0545423  46.0177444  99.0243706  69.1055447  48.0456948  84.0543996
  68.4884618  47.3203776  83.9577049  68.6371936  48.8066308  83.7111071
  62.7722800  45.8188503  98.7943198  63.4822419  45.1781695  98.7529816
  62.7292108  46.0701398  99.7169378  70.7609579  52.7555856 101.7149777
  70.7022125  52.0715076 101.0480360  71.1629097  53.4974846 101.2630403
  61.4851734  42.8053721 100.6138837  60.9489091  42.3544459 101.2660433
  60.8968443  42.9399630  99.8709301  59.7800278  59.5717770  94.5083496
  60.0196876  60.2036294  95.1862514  58.9369474  59.2205810  94.7948855
  60.8953993  42.2642372  83.1765301  60.0183460  42.1431173  82.8127547
  61.3711746  41.4728451  82.9244189  70.7626986  50.7195440  99.9463756
  69.8753765  50.3821362 100.0690155  71.3325537  49.9878471 100.1832522
  52.4156133  47.0519532  93.2706808  53.1027173  46.7381262  92.6827823
  52.2604262  47.9560897  92.9974059  57.2190856  41.9409729  97.6991832
  57.1349044  41.3335398  96.9642241  56.3973562  42.4318747  97.7001328
  64.2928140  55.3796893  96.9125000  64.2198311  56.1851864  97.4244304
  63.8505533  55.5788858  96.0873021  64.0817919  54.6168663  90.4227821
  63.2985441  55.1590343  90.5166046  64.7810664  55.1342642  90.8222062
  67.3914569  40.4263292  93.0662027  67.8883269  39.6733254  92.7463097
  66.6201551  40.4627609  92.5005236  75.2444327  46.1303658  94.7080318
  75.2334203  47.0128373  94.3374251  74.3761706  45.7775208  94.5134855
  66.7526823  55.2783727  99.0683158  67.4654795  55.9131191  98.9959060
  66.2616852  55.3747593  98.2523160  68.4744350  49.1834979  90.6400450
  67.5400629  49.3036442  90.4705154  68.6521019  48.2807446  90.3760460
  63.9749538  42.5680675  92.7933711  63.6047326  42.0151715  93.4814617
  64.4708631  41.9638809  92.2408711  71.8616901  45.0252299  91.1750484
  72.3277354  45.8580290  91.1010787  72.3124402  44.5597280  91.8795743
  61.8038737  53.0278170  99.8888729  62.5048196  53.6614653 100.0418123
  61.3333852  53.3692902  99.1284368  69.9293133  51.3696120  88.1736636
  70.2052976  51.2552714  89.0830510  69.0597631  50.9713605  88.1348809
  69.8333564  37.3932886  95.2141385  68.9196644  37.6237112  95.3823592
  70.2626666  37.4771330  96.0655418  69.6040023  45.5822778  97.7141280
  68.9511473  45.8298685  97.0593732  69.9820403  44.7686916  97.3803757
  66.5647197  55.6182471  91.8169450  66.7469591  54.8004127  92.2797202
  67.3880183  55.8350163  91.3794340  66.8989362  54.5450656  89.0784498
  67.4277129  54.0343110  88.4654660  67.1617582  54.2293186  89.9430031
  65.6527596  46.3242589 104.2007317  64.9768233  46.2236718 104.8709692
  66.4755230  46.1681802 104.6643314  57.4006455  52.5614525  96.8219832
  57.9859892  51.8158213  96.9547736  57.2031293  52.8718482  97.7056496
  60.2545110  55.5965773  91.8382274  59.5855485  56.0811900  91.3546314
  60.1157980  55.8434993  92.7525653  51.9924110  45.1320125  95.5424275
  52.0308209  44.5983716  96.3361393  51.4864402  44.6055331  94.9235252
  64.3950379  57.6309516  98.4364933  64.9468687  57.7941138  99.2014018
  64.7356572  58.2213954  97.7644957  59.3714872  39.9784666  99.0386817
  59.4356198  40.8399497  98.6264215  59.3081992  39.3658667  98.3059176
  58.8467144  42.0507798 102.6859852  59.4739183  41.6684876 103.2997376
  57.9895063  41.8322000 103.0515544  69.2461253  52.4570774 104.2913587
  69.7901157  53.0700732 103.7968542  68.6648098  53.0150352 104.8080600
  55.6232687  43.8584227  88.6178206  55.9186128  42.9494906  88.5645260
  54.7220723  43.8371967  88.2959209  67.5318766  55.5791492  95.4228615
  67.4069905  54.7781231  94.9139560  68.1897857  56.0737685  94.9342585
  59.1526934  41.9340224  94.6005755  58.4313520  42.5476192  94.4613228
  59.9420190  42.4697989  94.5222401  69.5953674  53.3800512  97.0508165
  68.6484010  53.2605863  96.9786492  69.9436447  52.4923010  97.1334426
  61.9553248  39.2694651 100.8746407  62.4787649  39.5156947 101.6372716
  61.7365581  40.1014685 100.4549544  57.3520529  41.5398325  88.7417532
  57.0233235  40.6595704  88.5592637  57.7059899  41.4845994  89.6293921
  66.6000108  53.1753228  93.2512517  66.4525070  52.2469935  93.4320087
  67.4253601  53.1973319  92.7669592  60.4662352  41.8271295  89.1093009
  60.8058424  42.3557216  88.3871618  60.9134472  42.1651701  89.8851576
  70.2034229  53.9981787  94.3377390  71.1280777  53.7924648  94.2001841
  70.0349533  53.7498188  95.2466731  63.1605793  40.2108346  98.5596077
  62.8202613  39.4116159  98.9616757  62.4544799  40.5110057  97.9872910
  63.8122264  37.2957658  97.0123400  64.6348334  36.8218136  96.8902291
  64.0560328  38.0748142  97.5122087  62.4530499  40.3245917  87.3086302
  63.1738861  40.7027169  86.8050019  61.8295803  41.0434793  87.4121280
  66.5961622  41.0291066  88.2444634  66.8125236  41.9115703  87.9433462
  66.1155689  40.6377279  87.5150276  61.3360843  43.9876779  94.8215379
  61.1905424  44.3017082  95.7139660  60.8586047  44.6061679  94.2686278
  63.1957226  40.9779327  94.8696268  63.1818795  40.0820420  94.5328566
  63.9129654  40.9849990  95.5034555  65.0483357  41.4116667  96.9149396
  64.7901135  42.3333738  96.9133726  64.5168397  41.0147101  97.6049860
  69.9929546  54.5167454  89.6939481  70.1666423  53.9513877  88.9413334
  70.4858437  55.3168349  89.5118971  55.8106505  46.5282123  97.7603040
  55.2659973  47.3041931  97.8923314  56.6885855  46.8752928  97.6022162
  62.5994122  39.8593707  90.1383839  62.7210033  38.9310353  90.3374726
  62.3096164  39.8732393  89.2262154  65.4685312  37.5448617  93.2750558
  65.4907009  37.6087951  92.3202538  65.8853371  36.7053126  93.4691065
  75.8468937  47.2803877  91.3129781  76.2900083  46.5311202  90.9148904
  74.9695447  47.2714013  90.9303513  70.9804718  53.8334218  86.7936380
  71.6755623  54.4540911  87.0123694  71.3227868  52.9829570  87.0688757
  56.5972527  45.6552019 100.6533197  55.8554263  45.8034655 101.2397827
  56.2765272  45.9160285  99.7899946  72.8796141  51.2833924  88.3223710
  73.4047465  51.6221197  87.5973030  72.7918494  50.3480939  88.1386845
  64.5416190  55.1967998 100.4513587  64.8503316  54.9517144 101.3236287
  65.3391672  55.4014636  99.9632457  64.5636802  57.3505907  92.6818964
  64.1241792  56.8582286  93.3751820  65.3144919  56.8078875  92.4411039
  57.0429141  53.5417448  92.6843592  57.8687161  53.2421220  92.3042235
  56.6923193  52.7725071  93.1333380  62.0110674  52.8943916  94.7541265
  61.3890683  52.2314621  94.4543493  62.6815541  52.9205048  94.0714913
  55.2437746  51.4603775  93.6432525  54.4069654  51.0325949  93.4616526
  55.2161391  51.6536218  94.5803316  62.0835202  41.3725704 104.3473771
  62.1323357  42.2487827 103.9651541  62.6257716  40.8303097 103.7745414
  72.5690047  51.9166828 103.6274908  71.7785591  51.8990966 103.0879408
  72.3323402  52.4555121 104.3823945  72.6887922  48.7659294 100.9407637
  72.7385927  48.6009301 101.8823160  72.5801846  47.8986553 100.5505518
  61.5724181  51.4447840  88.2299726  61.7212301  52.1283304  87.5766398
  62.3790624  51.4252930  88.7449181  69.9791685  44.7490222 102.2566944
  70.8801547  44.6096687 101.9650941  70.0539659  44.9144677 103.1965121
  64.3134490  42.1257077 101.1020130  63.4437799  42.4190643 100.8302718
  64.5493970  42.7097522 101.8227393  74.1906119  51.1856236 101.1849658
  73.8990927  51.5486216 102.0213119  73.5778250  50.4723244 101.0062990
  75.3901801  48.7509115  93.7052229  76.2248693  49.1898919  93.8689789
  75.5260930  48.2747769  92.8860474  72.4393307  46.3088850  99.6529716
  72.9147429  46.5016496  98.8448568  71.5158873  46.3648036  99.4073100
  59.3276814  47.4713017  89.2360795  59.0822856  46.5675347  89.4341005
  59.4972729  47.4730168  88.2940273  67.0173524  38.3436694  98.6185550
  67.5355468  39.0797721  98.2932039  66.6628657  38.6500687  99.4532309
  58.5972462  43.2041375  86.7346956  57.9041706  43.2785730  86.0786992
  58.3524213  42.4401719  87.2568473  67.2686118  34.7636976  94.1386447
  67.5487872  34.0960165  94.7646873  68.0536725  34.9566072  93.6261111
  65.0719587  53.9395970  85.7011473  64.4993554  54.5586157  85.2481945
  65.6452380  54.4895332  86.2351395  71.1394976  43.1854610  97.8858022
  72.0912399  43.2852708  97.9070246  70.9698427  42.3932879  98.3956106
  69.1609356  40.2710193  98.0717423  68.5659288  40.5515206  97.3763911
  68.8759053  40.7604094  98.8434164  68.2916846  54.2233120  86.8320055
  69.2247520  54.1578682  87.0352931  68.2040059  55.0589387  86.3734588
  70.9204863  53.5398991  83.7924003  70.8418495  53.2058854  84.6859761
  71.7414530  54.0320759  83.7915475  73.6183054  46.4060730  97.0000322
  73.5859374  45.4676731  97.1860005  74.2283678  46.4844767  96.2666146
  65.4566385  45.2756783  83.0427526  66.4025490  45.1462991  83.1115944
  65.0780630  44.5371445  83.5196954  73.7677543  43.1971773  97.0458605
  73.2516591  42.4130230  96.8588534  74.6517491  42.8690490  97.2105124
  71.4288270  36.9412789  93.0054417  71.2313091  36.6327877  93.8897749
  72.0387975  37.6674428  93.1352347  79.4359604  47.4676737  96.1406358
  80.1662993  47.2062025  96.7014062  78.8266550  46.7305459  96.1808426
  77.5174901  45.6084599  96.7380810  76.7908065  45.4740564  96.1297301
  77.1022188  45.9161428  97.5437528  65.3405078  49.3274529 104.5028183
  66.2608087  49.5053128 104.6968229  65.3054661  48.3830574 104.3507882
  63.6409302  43.2006759  82.9782411  62.7340758  42.9039872  83.0545124
  63.9185283  42.9036577  82.1116697  54.5587243  44.5213123  93.4281457
  54.2390027  43.6678431  93.1355831  54.0120671  44.7361701  94.1839425
  58.3367150  47.2375564  97.1450964  58.5553160  48.1692671  97.1638998
  58.7492924  46.8783538  97.9305768  65.2571368  37.7443649  89.1326652
  64.4472096  37.3990734  89.5081898  65.9455785  37.4351193  89.7214264
  67.1861916  36.8221696  90.7550949  67.7392955  37.2417149  91.4140972
  67.4232003  35.8957444  90.7973905  63.2095015  42.8108769 106.5353713
  63.1091742  43.7603126 106.4665804  62.9916558  42.4827008 105.6629783
  62.4108087  40.0593694  83.1194390  63.2727251  40.3848593  83.3790207
  62.5958431  39.2725190  82.6067456  54.4275503  48.1416034  95.3974579
  53.7338974  47.7269987  94.8844533  55.1748494  48.1836571  94.8007998
  70.5640723  38.9322221  90.2629613  69.9839392  39.5907025  89.8807665
  70.2976656  38.1099566  89.8517031  69.0144290  38.3327279  92.4650933
  69.5144068  38.4443813  91.6565252  69.6579898  38.0288332  93.1051742
  63.0726286  46.2405908 105.3518774  62.5893367  47.0406268 105.5582663
  63.1587225  46.2513853 104.3986218  56.3412245  48.0734288  93.2740594
  56.3182933  48.1721975  92.3222477  56.6512882  48.9199439  93.5957760
  58.9999623  50.1310443  97.3887208  59.9542877  50.0994385  97.3217140
  58.8012147  49.6701067  98.2037434  59.5899005  48.7011559  99.9558006
  60.4091894  49.1955638  99.9792843  59.8635813  47.7843527  99.9275573
  69.3465601  41.0922311  89.3185961  68.4591456  41.3771962  89.1006156
  69.7619590  40.9316075  88.4713238  72.6980137  41.1168832  93.0340301
  73.4740528  41.6065285  93.3064917  71.9728272  41.5426887  93.4912170
  75.1352696  41.8296452  94.0914241  75.7297187  41.5892187  93.3807549
  75.2079280  41.1103582  94.7187777  57.3549852  55.6730062  94.4057406
  57.2204320  54.9130463  93.8395404  56.9381914  56.3970962  93.9386195
  68.4908815  50.8566986  83.4133981  69.1944665  51.0616989  84.0291637
  67.7671464  51.4243748  83.6783065  69.3206625  46.6076847  89.5336251
  69.2641826  47.0645399  88.6943884  69.8734968  45.8467532  89.3559094
  73.1311431  42.3966579  90.3586371  72.8748365  41.9963215  91.1894579
  72.5064299  43.1110373  90.2336510  77.4423769  45.1362652  92.8657662
  76.8823327  45.2055842  93.6389224  76.8367272  44.9603637  92.1457159
  60.5118978  56.5699379  94.6175849  60.3951362  57.5144812  94.5154539
  59.6911424  56.2672941  95.0061648  70.3995512  51.2949515  85.4632441
  71.2341116  50.8630714  85.2809916  70.2379855  51.1231529  86.3909336
  70.0541404  47.7981629  86.8288781  69.9990208  47.6325900  85.8877225
  69.4287460  48.5057661  86.9850970  54.8433919  43.0349693 100.6550203
  55.4892783  42.5248647 101.1437428  54.6351070  43.7718375 101.2293628
  67.3687312  50.1030540 106.1542343  68.2378471  50.2771193 105.7928978
  66.8894063  50.9224957 106.0318073  63.3637530  37.2989738  86.4074099
  63.3516200  38.2431577  86.5642370  64.2560952  37.1159883  86.1133560
  61.5373492  57.2227641  97.8331777  62.4400738  57.2551252  98.1498272
  61.3110862  56.2928092  97.8478113  63.2927094  55.9758628  94.4941856
  62.3422725  55.9760490  94.3806228  63.5959580  55.2291362  93.9777890
  67.1789649  33.8932514  90.6620036  66.4122045  33.3391001  90.8076718
  67.5900354  33.9654383  91.5234187  59.1831410  40.1817310 104.7525217
  60.0462872  39.8254115 104.9628542  58.6096821  39.8431205 105.4400621
  79.0279787  61.8119166  95.5587618  79.6658197  61.6925914  94.8550958
  78.9100630  62.7600010  95.6175570  75.8369494  61.7646594  95.4949143
  75.4988005  61.6487659  94.6069678  76.7059262  61.3637760  95.4750149
  71.6956309  63.6182071  91.4846034  71.1321174  63.5272008  90.7162322
  71.5808704  62.7981975  91.9648526  76.3189277  62.9181446 101.4535348
  76.3077917  62.5234244 100.5815852  76.4809916  62.1847519 102.0469120
  69.2420741  65.1133262  94.3230254  70.0342033  64.7724087  93.9076554
  69.4817391  65.2228237  95.2432408  77.2755868  67.2853039  86.7960499
  76.6243848  67.8707119  86.4094512  78.0700231  67.8159233  86.8555536
  71.2011495  64.3742176  87.1947633  71.9742371  63.8271163  87.0560509
  71.5536894  65.2386425  87.4062094  73.0396538  65.7018558 100.4014532
  72.7486404  66.6064189 100.2861199  73.6753522  65.7435086 101.1158602
  73.9652745  63.0795406  96.9915892  74.5616317  62.8551429  96.2772855
  74.0227716  62.3380152  97.5941340  73.5377773  60.5334842  84.8266083
  73.7903294  60.0116363  84.0649546  72.6002332  60.3700987  84.9292767
  78.5821056  59.5370620  92.6340826  79.3684145  59.1190043  92.2831243
  78.8459760  60.4416712  92.8022475  78.7531133  64.9743470  87.3329483
  78.1176966  65.0478097  88.0450388  78.4228540  65.5637069  86.6548562
  83.9829483  59.4745853  93.5373805  84.7154655  58.9045070  93.7711634
  83.2268839  59.0867454  93.9780310  73.2574062  62.4362948  87.0290458
  73.1410320  61.7607851  87.6971542  73.3676322  61.9495322  86.2122611
  75.6005603  61.8973095  90.7337147  75.2363810  61.3703716  91.4450069
  76.4572719  61.5071564  90.5603633  81.5054903  53.1867427  97.9968413
  81.1738228  54.0562838  97.7729628  80.9100517  52.8703711  98.6762444
  75.2411090  56.9262995  85.7298496  75.4085492  57.7943231  86.0968967
  75.0508259  57.0890276  84.8059785  77.9986423  65.3879973  97.3964326
  77.6987146  66.2905012  97.2880133  77.6537482  65.1212157  98.2485479
  71.4498904  61.8393770  93.4301030  70.5249401  61.7069984  93.6378722
  71.6983317  62.6187990  93.9270973  81.3983567  57.9062514  95.0761763
  80.4900444  57.8377922  94.7820524  81.3471162  58.3834459  95.9043589
  75.2200310  59.3820652  86.7145162  75.0999936  59.8277703  87.5530643
  74.5252899  59.7305970  86.1558701  68.8107715  61.4827044  94.2644819
  68.9400096  61.7361523  95.1784231  68.1305167  62.0754752  93.9449475
  72.9807203  72.1524294  90.3635294  72.9031232  73.1032119  90.4423774
  72.3768846  71.8070166  91.0210220  75.4724432  59.3252159 103.0196661
  74.6957766  59.8846079 103.0099525  76.1114995  59.8108942 103.5411531
  83.2645213  56.1078952  96.8539637  82.6219593  56.4011485  96.2079432
  82.7600142  55.9931872  97.6592834  80.9185377  59.8542125  87.5425497
  81.8303233  60.0869512  87.3673194  80.4095024  60.4379169  86.9800575
  73.7270805  62.1337613 102.5814628  74.4685489  62.6722657 102.3049451
  73.0207790  62.7603901 102.7386179  79.2026144  64.2766753 101.1786789
  79.6109500  63.8349164 100.4341421  78.4803406  63.7019381 101.4320982
  75.5557214  59.2139360  98.5520346  76.4018410  59.6378773  98.6954995
  75.4955852  58.5572984  99.2458909  79.5254959  64.8367944  94.9339078
  78.8963821  65.0013658  94.2315146  79.1380621  65.2509553  95.7050042
  83.4044191  65.7722382  92.2883442  82.7195229  66.1521283  91.7380475
  83.4888040  66.3817708  93.0215389  78.7056660  56.8743728 100.2101520
  78.4617592  57.6285789  99.6735795  78.9816590  57.2529076 101.0448767
  80.6595122  63.4182341  98.8878785  80.8712018  64.0614100  98.2113166
  80.6124871  62.5844657  98.4200715  78.2621351  56.0300161  95.7915357
  77.4005830  56.3281415  96.0832095  78.2883786  56.2470560  94.8596390
  75.0782921  64.5742352  92.1989163  75.5421266  64.8530055  91.4093786
  74.8139719  63.6725796  92.0162254  71.9707002  64.1213833  95.1368926
  72.5408359  64.5501102  94.4986411  72.5615114  63.8396418  95.8353112
  74.0151807  60.6965504  89.0078728  74.7175850  61.1486548  89.4752655
  73.6832435  60.0549323  89.6358621  72.4632168  59.2877261 103.3829938
  71.8330829  59.9693542 103.6165334  72.3568256  59.1760342 102.4383076
  67.7577141  58.9549057  94.3095862  66.9676195  59.2106585  93.8335972
  68.2488388  59.7697395  94.4147902  81.7740950  66.2954296  97.0601143
  82.5958394  65.8934483  96.7783824  81.7703353  66.1922530  98.0117258
  69.7091886  59.3193636  91.2679338  68.9123050  59.4312330  91.7862834
  69.4817478  59.6580288  90.4020229  75.5397554  65.8438339  99.2161853
  75.6041986  66.3058747 100.0520025  74.8308478  65.2135704  99.3444163
  66.0414844  59.2079547  96.7410853  66.2922882  60.0926557  97.0068429
  66.5774392  59.0284149  95.9685944  89.8646943  62.6393044  93.4086114
  89.1110652  62.0700443  93.2530118  89.9994485  62.6055709  94.3556749
  75.2545572  67.5106447  89.0840833  75.1191246  68.3557983  89.5125681
  75.7955384  67.7125724  88.3206767  71.7412911  53.5898027 105.7455189
  71.3479857  53.0364225 106.4202833  72.5579051  53.9008605 106.1361706
  68.7074969  65.0281885  89.6568759  69.2199489  65.8225135  89.8074323
  69.3597682  64.3308175  89.5902360  70.5169854  68.1447641  91.7391512
  70.6936482  69.0665606  91.5512496  71.3126687  67.8306060  92.1685891
  74.6580872  55.0055906 103.3375445  75.3990586  55.6063059 103.2579908
  74.8898795  54.2633544 102.7793488  69.8022210  60.1912273 101.6153675
  69.6875725  59.2897530 101.9160774  68.9466728  60.4375970 101.2638491
  76.8814048  68.1330013 103.2141176  76.4377902  67.3466392 102.8962080
  77.5431261  68.3209164 102.5485066  71.6401169  69.6625815  97.7401854
  72.1908594  69.5342878  96.9678848  70.8012645  69.9620704  97.3896747
  78.9795286  68.4132813 101.2422577  78.9613761  69.2341694 100.7502846
  79.9015206  68.2886888 101.4672718  75.4368340  65.9276943 102.0846085
  75.9696677  65.1665231 101.8545393  74.9082421  65.6350595 102.8270240
  78.6038035  51.0337009  97.6139727  78.2602304  51.9238650  97.5378837
  78.9716998  50.8438666  96.7509312  66.6723886  63.3570539  90.4328329
  67.5099108  63.7667547  90.2162037  66.8502153  62.4169981  90.4028523
  78.5688318  61.0245620  86.1212162  78.0534941  61.7950224  86.3600549
  78.2965626  60.3510756  86.7445223  76.1535429  55.8695321  91.1797400
  75.2977025  55.4802171  91.0003039  76.5662381  55.9487281  90.3197186
  77.6834575  53.4041664  95.5788960  77.1799371  53.3671799  94.7656765
  77.9765182  54.3134407  95.6385617  73.9277461  53.4880394  94.5855142
  74.7930458  53.2923202  94.2261031  73.9954970  53.2590745  95.5124499
  83.5422592  63.7777974  88.0565335  82.7652035  63.4389134  87.6120498
  84.2214073  63.7830598  87.3820301  78.3574621  58.8972712  87.9471943
  78.0524757  59.2118861  88.7982086  79.3105063  58.9754132  87.9899276
  76.8021053  65.0562935  89.5964897  76.2742414  64.3215695  89.2838135
  76.3008556  65.8337612  89.3504865  81.7813899  63.2511956  94.7131943
  81.1237573  63.9411217  94.8012072  82.5854298  63.6408388  95.0565930
  71.5339780  55.7182601  91.9571509  72.1083532  55.4957783  91.2244702
  72.1210763  55.7871296  92.7100110  80.5919358  61.6056328  92.7635885
  81.1051239  62.2386320  93.2657595  81.2420582  61.0057524  92.3979245
  71.8609368  57.7487062  85.9767394  71.0246680  58.0861749  86.2976669
  71.7214137  57.6136042  85.0394531  73.8362448  52.5923850  90.6846578
  73.1826860  52.2772868  90.0603193  73.7942922  51.9699591  91.4106401
  74.9473653  62.8743145  82.5999870  74.0400715  62.6432399  82.7991019
  75.4444685  62.0780765  82.7873852  77.8541732  71.5840653  85.5196556
  77.1803431  71.8872349  86.1281514  78.2407554  72.3869733  85.1702013
  77.0700188  59.0805784  95.0094226  76.1522750  59.3020731  94.8515914
  77.4860332  59.1552094  94.1505933  77.8535236  60.4797200  90.1396906
  78.6007055  60.9918597  89.8304028  78.1226826  60.1581252  91.0001300
  76.1261886  62.9755740  87.1223860  75.2173106  62.6914773  87.2196330
  76.1556970  63.3954819  86.2627167  81.3581154  66.5862330  90.8915028
  80.9043481  65.7453240  90.9480218  80.7275121  67.2223728  91.2289808
  80.3014073  57.5154316  92.1215695  79.5636830  57.0031702  92.4525938
  80.5540847  57.0754697  91.3098972  79.8014093  68.4238826  91.8264846
  80.0937067  68.9843884  91.1077212  80.3112714  68.7167387  92.5818005
  80.4025701  50.2930568  92.7157465  80.7084578  49.4327931  92.4283380
  81.1278306  50.8848188  92.5156458  66.6950057  60.6961254  91.1039062
  66.4974457  60.1030615  90.3790129  66.1396721  60.3913465  91.8215001
  74.6746780  60.5884361  93.2233656  74.7295390  59.6358197  93.1476132
  73.8637983  60.7443800  93.7074954  75.8237974  64.5164484  84.4611939
  75.3857404  63.8000343  84.0017576  76.5648415  64.7440599  83.8997030
  72.6139140  59.2061421  90.9824034  71.8007006  59.5055591  91.3889227
  73.1098135  58.8117109  91.6998517  74.7647718  69.2019178  92.9158299
  74.7223897  69.4280024  91.9866831  75.6810417  68.9682552  93.0644100
  78.2113352  59.6703245  99.8138928  78.5662740  59.8974718 100.6733394
  78.8585483  60.0021622  99.1916184  83.9411089  62.7921681  90.5188257
  83.8028988  62.9823277  89.5909447  83.5847308  63.5541064  90.9756309
  72.1053215  56.7779776  96.5985269  72.7452594  56.6368535  95.9008233
  71.2730746  56.4914290  96.2223871  83.9680469  64.8598208  95.5299529
  84.4016975  64.7673497  96.3782583  84.6812049  64.8355708  94.8919545
  72.8813519  66.0782207  92.7120262  73.6754118  65.5832527  92.5102837
  72.1705211  65.5500070  92.3487967  77.7008364  68.4600302  97.0632630
  77.7545386  69.0291238  97.8310345  76.8323145  68.6302187  96.6986667
  69.1896283  60.2225288  88.7880015  68.2593871  60.1609744  89.0049977
  69.2853755  59.7001241  87.9916656  69.1081832  56.7480101  91.3758256
  69.3688649  57.6625434  91.2667417  69.9299004  56.2804544  91.5254869
  70.5806757  58.1617858  98.5457081  71.2529810  57.9535220  97.8969730
  69.7536543  57.9639944  98.1062313  84.8296018  64.9021909  98.0632414
  85.0231908  65.8067719  98.3091689  84.7296636  64.4429328  98.8970999
  76.4832329  54.7879799 100.5622742  75.8360244  55.4869749 100.4687218
  77.2533344  55.2215943 100.9298990  76.6596463  62.6260564  98.6219561
  77.5888523  62.7771724  98.4488529  76.2387493  62.7144585  97.7668208
  75.4584795  66.6511229  96.3918099  75.3195881  66.2830013  97.2644037
  74.6699391  67.1658868  96.2202057  76.0532947  71.7520325  87.7343636
  76.2284703  71.2808368  88.5489258  75.3665735  72.3786091  87.9624896
  77.0090010  66.0292831  93.7806937  76.6739843  65.9893601  94.6764587
  76.5093956  65.3637547  93.3077347  70.9834254  61.4360461  99.3059518
  70.8454052  60.7040700  99.9071057  71.8939178  61.3469361  99.0243706
  79.9449202  63.3748866  84.0543996  79.3278372  62.6495694  83.9577049
  79.4765690  64.1358226  83.7111071  73.6116555  61.1480421  98.7943198
  74.3216173  60.5073613  98.7529816  73.5685863  61.3993315  99.7169378
  72.3245489  58.1345639 100.6138837  71.7882846  57.6836377 101.2660433
  71.7362197  58.2691547  99.8709301  70.6194032  74.9009688  94.5083496
  70.8590631  75.5328212  95.1862514  69.7763229  74.5497728  94.7948855
  71.7347748  57.5934290  83.1765301  70.8577214  57.4723091  82.8127547
  72.2105501  56.8020368  82.9244189  81.6020741  66.0487358  99.9463756
  80.7147520  65.7113280 100.0690155  82.1719292  65.3170389 100.1832522
  63.2549888  62.3811450  93.2706808  63.9420928  62.0673180  92.6827823
  63.0998017  63.2852814  92.9974059  68.0584610  57.2701646  97.6991832
  67.9742799  56.6627316  96.9642241  67.2367316  57.7610665  97.7001328
  75.1321894  70.7088810  96.9125000  75.0592066  71.5143782  97.4244304
  74.6899287  70.9080776  96.0873021  74.9211674  69.9460580  90.4227821
  74.1379196  70.4882260  90.5166046  75.6204419  70.4634560  90.8222062
  78.2308324  55.7555210  93.0662027  78.7277023  55.0025172  92.7463097
  77.4595305  55.7919526  92.5005236  86.0838081  61.4595575  94.7080318
  86.0727958  62.3420291  94.3374251  85.2155461  61.1067126  94.5134855
  77.5920578  70.6075644  99.0683158  78.3048550  71.2423109  98.9959060
  77.1010606  70.7039510  98.2523160  79.3138105  64.5126897  90.6400450
  78.3794383  64.6328359  90.4705154  79.4914773  63.6099364  90.3760460
  74.8143293  57.8972593  92.7933711  74.4441080  57.3443633  93.4814617
  75.3102385  57.2930726  92.2408711  82.7010656  60.3544216  91.1750484
  83.1671108  61.1872208  91.1010787  83.1518156  59.8889198  91.8795743
  72.6432491  68.3570088  99.8888729  73.3441951  68.9906571 100.0418123
  72.1727606  68.6984819  99.1284368  80.7686887  66.6988038  88.1736636
  81.0446731  66.5844632  89.0830510  79.8991386  66.3005522  88.1348809
  80.6727319  52.7224803  95.2141385  79.7590398  52.9529030  95.3823592
  81.1020420  52.8063247  96.0655418  80.4433777  60.9114695  97.7141280
  79.7905227  61.1590603  97.0593732  80.8214157  60.0978833  97.3803757
  77.4040951  70.9474388  91.8169450  77.5863346  70.1296044  92.2797202
  78.2273937  71.1642081  91.3794340  77.7383117  69.8742574  89.0784498
  78.2670883  69.3635028  88.4654660  78.0011336  69.5585104  89.9430031
  76.4921350  61.6534506 104.2007317  75.8161987  61.5528636 104.8709692
  77.3148984  61.4973720 104.6643314  68.2400209  67.8906443  96.8219832
  68.8253646  67.1450131  96.9547736  68.0425048  68.2010400  97.7056496
  71.0938865  70.9257690  91.8382274  70.4249240  71.4103818  91.3546314
  70.9551734  71.1726911  92.7525653  62.8317864  60.4612043  95.5424275
  62.8701964  59.9275634  96.3361393  62.3258157  59.9347249  94.9235252
  75.2344133  72.9601434  98.4364933  75.7862441  73.1233055  99.2014018
  75.5750327  73.5505872  97.7644957  70.2108626  55.3076584  99.0386817
  70.2749953  56.1691414  98.6264215  70.1475747  54.6950585  98.3059176
  69.6860899  57.3799716 102.6859852  70.3132938  56.9976793 103.2997376
  68.8288818  57.1613918 103.0515544  66.4626442  59.1876145  88.6178206
  66.7579883  58.2786824  88.5645260  65.5614477  59.1663885  88.2959209
  78.3712520  70.9083409  95.4228615  78.2463660  70.1073149  94.9139560
  79.0291611  71.4029603  94.9342585  69.9920689  57.2632142  94.6005755
  69.2707274  57.8768109  94.4613228  70.7813944  57.7989907  94.5222401
  80.4347429  68.7092429  97.0508165  79.4877764  68.5897781  96.9786492
  80.7830202  67.8214927  97.1334426  72.7947002  54.5986568 100.8746407
  73.3181404  54.8448865 101.6372716  72.5759335  55.4306603 100.4549544
  68.1914283  56.8690243  88.7417532  67.8626989  55.9887622  88.5592637
  68.5453654  56.8137912  89.6293921  77.4393862  68.5045146  93.2512517
  77.2918824  67.5761853  93.4320087  78.2647356  68.5265236  92.7669592
  71.3056106  57.1563213  89.1093009  71.6452179  57.6849134  88.3871618
  71.7528227  57.4943619  89.8851576  81.0427984  69.3273704  94.3377390
  81.9674531  69.1216566  94.2001841  80.8743287  69.0790105  95.2466731
  73.9999547  55.5400263  98.5596077  73.6596368  54.7408076  98.9616757
  73.2938553  55.8401974  97.9872910  74.6516019  52.6249576  97.0123400
  75.4742088  52.1510054  96.8902291  74.8954083  53.4040060  97.5122087
  73.2924253  55.6537834  87.3086302  74.0132616  56.0319087  86.8050019
  72.6689558  56.3726711  87.4121280  77.4355376  56.3582983  88.2444634
  77.6518991  57.2407621  87.9433462  76.9549444  55.9669197  87.5150276
  72.1754598  59.3168696  94.8215379  72.0299178  59.6308999  95.7139660
  71.6979801  59.9353597  94.2686278  74.0350981  56.3071244  94.8696268
  74.0212549  55.4112338  94.5328566  74.7523409  56.3141908  95.5034555
  75.8877111  56.7408585  96.9149396  75.6294889  57.6625655  96.9133726
  75.3562152  56.3439019  97.6049860  80.8323300  69.8459372  89.6939481
  81.0060178  69.2805794  88.9413334  81.3252191  70.6460267  89.5118971
  66.6500260  61.8574041  97.7603040  66.1053728  62.6333849  97.8923314
  67.5279610  62.2044845  97.6022162  73.4387877  55.1885625  90.1383839
  73.5603788  54.2602271  90.3374726  73.1489919  55.2024311  89.2262154
  76.3079067  52.8740535  93.2750558  76.3300764  52.9379868  92.3202538
  76.7247126  52.0345044  93.4691065  86.6862691  62.6095795  91.3129781
  87.1293837  61.8603120  90.9148904  85.8089202  62.6005931  90.9303513
  81.8198473  69.1626136  86.7936380  82.5149377  69.7832829  87.0123694
  82.1621623  68.3121487  87.0688757  67.4366282  60.9843937 100.6533197
  66.6948018  61.1326572 101.2397827  67.1159026  61.2452203  99.7899946
  83.7189896  66.6125842  88.3223710  84.2441220  66.9513114  87.5973030
  83.6312248  65.6772857  88.1386845  75.3809944  70.5259915 100.4513587
  75.6897071  70.2809062 101.3236287  76.1785426  70.7306554  99.9632457
  75.4030556  72.6797825  92.6818964  74.9635547  72.1874204  93.3751820
  76.1538673  72.1370793  92.4411039  67.8822895  68.8709366  92.6843592
  68.7080915  68.5713138  92.3042235  67.5316947  68.1016988  93.1333380
  72.8504429  68.2235834  94.7541265  72.2284438  67.5606539  94.4543493
  73.5209296  68.2496966  94.0714913  66.0831500  66.7895692  93.6432525
  65.2463409  66.3617867  93.4616526  66.0555146  66.9828136  94.5803316
  72.9228956  56.7017622 104.3473771  72.9717112  57.5779745 103.9651541
  73.4651470  56.1595015 103.7745414  83.5281677  64.0951212 100.9407637
  83.5779682  63.9301219 101.8823160  83.4195600  63.2278471 100.5505518
  72.4117936  66.7739757  88.2299726  72.5606056  67.4575222  87.5766398
  73.2184379  66.7544847  88.7449181  80.8185439  60.0782140 102.2566944
  81.7195302  59.9388605 101.9650941  80.8933414  60.2436595 103.1965121
  75.1528245  57.4548994 101.1020130  74.2831554  57.7482561 100.8302718
  75.3887725  58.0389439 101.8227393  86.2295556  64.0801033  93.7052229
  87.0642447  64.5190837  93.8689789  86.3654685  63.6039686  92.8860474
  83.2787062  61.6380768  99.6529716  83.7541183  61.8308414  98.8448568
  82.3552627  61.6939954  99.4073100  70.1670569  62.8004935  89.2360795
  69.9216610  61.8967265  89.4341005  70.3366483  62.8022085  88.2940273
  77.8567278  53.6728611  98.6185550  78.3749222  54.4089638  98.2932039
  77.5022411  53.9792605  99.4532309  69.4366216  58.5333293  86.7346956
  68.7435461  58.6077648  86.0786992  69.1917968  57.7693636  87.2568473
  78.1079873  50.0928894  94.1386447  78.3881626  49.4252083  94.7646873
  78.8930479  50.2857990  93.6261111  75.9113341  69.2687888  85.7011473
  75.3387308  69.8878075  85.2481945  76.4846135  69.8187250  86.2351395
  81.9788731  58.5146528  97.8858022  82.9306154  58.6144626  97.9070246
  81.8092181  57.7224796  98.3956106  80.0003110  55.6002111  98.0717423
  79.4053042  55.8807124  97.3763911  79.7152807  56.0896012  98.8434164
  79.1310601  69.5525038  86.8320055  80.0641274  69.4870600  87.0352931
  79.0433814  70.3881305  86.3734588  81.7598618  68.8690908  83.7924003
  81.6812249  68.5350772  84.6859761  82.5808284  69.3612676  83.7915475
  84.4576809  61.7352648  97.0000322  84.4253129  60.7968648  97.1860005
  85.0677432  61.8136684  96.2666146  76.2960140  60.6048701  83.0427526
  77.2419244  60.4754909  83.1115944  75.9174385  59.8663362  83.5196954
  84.6071297  58.5263691  97.0458605  84.0910346  57.7422148  96.8588534
  85.4911246  58.1982408  97.2105124  82.2682024  52.2704707  93.0054417
  82.0706845  51.9619795  93.8897749  82.8781730  52.9966346  93.1352347
  90.2753359  62.7968654  96.1406358  91.0056747  62.5353943  96.7014062
  89.6660304  62.0597376  96.1808426  88.3568656  60.9376517  96.7380810
  87.6301819  60.8032482  96.1297301  87.9415943  61.2453346  97.5437528
  76.1798832  64.6566447 104.5028183  77.1001842  64.8345046 104.6968229
  76.1448415  63.7122492 104.3507882  74.4803057  58.5298677  82.9782411
  73.5734512  58.2331790  83.0545124  74.7579038  58.2328495  82.1116697
  65.3980997  59.8505040  93.4281457  65.0783781  58.9970349  93.1355831
  64.8514425  60.0653619  94.1839425  69.1760905  62.5667481  97.1450964
  69.3946914  63.4984589  97.1638998  69.5886678  62.2075456  97.9305768
  76.0965122  53.0735567  89.1326652  75.2865851  52.7282652  89.5081898
  76.7849539  52.7643110  89.7214264  78.0255671  52.1513613  90.7550949
  78.5786709  52.5709067  91.4140972  78.2625757  51.2249362  90.7973905
  74.0488770  58.1400687 106.5353713  73.9485497  59.0895044 106.4665804
  73.8310312  57.8118926 105.6629783  73.2501841  55.3885612  83.1194390
  74.1121005  55.7140510  83.3790207  73.4352185  54.6017108  82.6067456
  65.2669257  63.4707952  95.3974579  64.5732729  63.0561905  94.8844533
  66.0142248  63.5128488  94.8007998  81.4034478  54.2614139  90.2629613
  80.8233147  54.9198943  89.8807665  81.1370410  53.4391483  89.8517031
  79.8538044  53.6619196  92.4650933  80.3537823  53.7735731  91.6565252
  80.4973652  53.3580249  93.1051742  73.9120040  61.5697826 105.3518774
  73.4287122  62.3698186 105.5582663  73.9980979  61.5805771 104.3986218
  67.1806000  63.4026206  93.2740594  67.1576688  63.5013893  92.3222477
  67.4906636  64.2491356  93.5957760  69.8393377  65.4602361  97.3887208
  70.7936631  65.4286303  97.3217140  69.6405901  64.9992984  98.2037434
  70.4292760  64.0303477  99.9558006  71.2485649  64.5247555  99.9792843
  70.7029567  63.1135445  99.9275573  80.1859356  56.4214229  89.3185961
  79.2985211  56.7063880  89.1006156  80.6013345  56.2607992  88.4713238
  83.5373892  56.4460750  93.0340301  84.3134282  56.9357202  93.3064917
  82.8122026  56.8718804  93.4912170  85.9746451  57.1588369  94.0914241
  86.5690941  56.9184105  93.3807549  86.0473034  56.4395500  94.7187777
  68.1943606  71.0021980  94.4057406  68.0598074  70.2422381  93.8395404
  67.7775669  71.7262880  93.9386195  79.3302569  66.1858904  83.4133981
  80.0338419  66.3908906  84.0291637  78.6065218  66.7535666  83.6783065
  80.1600380  61.9368765  89.5336251  80.1035581  62.3937316  88.6943884
  80.7128722  61.1759450  89.3559094  83.9705185  57.7258497  90.3586371
  83.7142120  57.3255132  91.1894579  83.3458054  58.4402291  90.2336510
  88.2817523  60.4654570  92.8657662  87.7217081  60.5347759  93.6389224
  87.6761027  60.2895555  92.1457159  71.3512732  71.8991297  94.6175849
  71.2345116  72.8436730  94.5154539  70.5305178  71.5964859  95.0061648
  81.2389267  66.6241433  85.4632441  82.0734871  66.1922631  85.2809916
  81.0773610  66.4523447  86.3909336  80.8935159  63.1273546  86.8288781
  80.8383963  62.9617818  85.8877225  80.2681214  63.8349579  86.9850970
  65.6827674  58.3641611 100.6550203  66.3286537  57.8540565 101.1437428
  65.4744825  59.1010292 101.2293628  74.2031284  52.6281655  86.4074099
  74.1909954  53.5723495  86.5642370  75.0954706  52.4451801  86.1133560
  72.3767246  72.5519559  97.8331777  73.2794493  72.5843169  98.1498272
  72.1504616  71.6220010  97.8478113  74.1320848  71.3050546  94.4941856
  73.1816479  71.3052407  94.3806228  74.4353334  70.5583280  93.9777890
  78.0183404  49.2224432  90.6620036  77.2515800  48.6682919  90.8076718
  78.4294109  49.2946301  91.5234187  70.0225165  55.5109228 104.7525217
  70.8856626  55.1546032 104.9628542  69.4490576  55.1723122 105.4400621
  82.5350064  78.9473989  91.4846034  81.9714929  78.8563925  90.7162322
  82.4202459  78.1273893  91.9648526  88.1149622  82.6144956  86.7960499
  87.4637602  83.1999037  86.4094512  88.9093985  83.1451151  86.8555536
  82.0405250  79.7034093  87.1947633  82.8136126  79.1563080  87.0560509
  82.3930649  80.5678343  87.4062094  84.3771527  75.8626759  84.8266083
  84.6297048  75.3408281  84.0649546  83.4396087  75.6992905  84.9292767
  89.4214810  74.8662538  92.6340826  90.2077900  74.4481961  92.2831243
  89.6853515  75.7708630  92.8022475  89.5924888  80.3035388  87.3329483
  88.9570721  80.3770015  88.0450388  89.2622294  80.8928987  86.6548562
  84.0967816  77.7654865  87.0290458  83.9804074  77.0899769  87.6971542
  84.2070076  77.2787239  86.2122611  86.4399357  77.2265013  90.7337147
  86.0757564  76.6995634  91.4450069  87.2966473  76.8363482  90.5603633
  86.0804844  72.2554912  85.7298496  86.2479246  73.1235149  86.0968967
  85.8902013  72.4182194  84.8059785  82.2892659  77.1685688  93.4301030
  81.3643155  77.0361902  93.6378722  82.5377072  77.9479907  93.9270973
  86.0594065  74.7112570  86.7145162  85.9393690  75.1569621  87.5530643
  85.3646653  75.0597887  86.1558701  79.6501470  76.8118962  94.2644819
  79.7793851  77.0653440  95.1784231  78.9698921  77.4046670  93.9449475
  91.7579131  75.1834043  87.5425497  92.6696987  75.4161430  87.3673194
  91.2488778  75.7671087  86.9800575  89.1015106  71.3592079  95.7915357
  88.2399585  71.6573332  96.0832095  89.1277541  71.5762478  94.8596390
  85.9176675  79.9034269  92.1989163  86.3815021  80.1821972  91.4093786
  85.6533473  79.0017714  92.0162254  84.8545561  76.0257422  89.0078728
  85.5569605  76.4778465  89.4752655  84.5226190  75.3841241  89.6358621
  78.5970895  74.2840974  94.3095862  77.8069949  74.5398503  93.8335972
  79.0882143  75.0989312  94.4147902  80.5485641  74.6485554  91.2679338
  79.7516804  74.7604248  91.7862834  80.3211233  74.9872206  90.4020229
  76.8808598  74.5371465  96.7410853  77.1316637  75.4218475  97.0068429
  77.4168147  74.3576066  95.9685944  86.0939326  82.8398364  89.0840833
  85.9585001  83.6849900  89.5125681  86.6349139  83.0417642  88.3206767
  79.5468723  80.3573802  89.6568759  80.0593244  81.1517053  89.8074323
  80.1991436  79.6600093  89.5902360  81.3563608  83.4739559  91.7391512
  81.5330236  84.3957523  91.5512496  82.1520442  83.1597978  92.1685891
  89.4431790  66.3628926  97.6139727  89.0996059  67.2530568  97.5378837
  89.8110752  66.1730584  96.7509312  77.5117640  78.6862457  90.4328329
  78.3492862  79.0959465  90.2162037  77.6895908  77.7461899  90.4028523
  89.4082072  76.3537537  86.1212162  88.8928696  77.1242142  86.3600549
  89.1359381  75.6802674  86.7445223  86.9929183  71.1987238  91.1797400
  86.1370780  70.8094089  91.0003039  87.4056135  71.2779199  90.3197186
  88.5228330  68.7333581  95.5788960  88.0193126  68.6963717  94.7656765
  88.8158937  69.6426324  95.6385617  84.7671216  68.8172311  94.5855142
  85.6324213  68.6215120  94.2261031  84.8348725  68.5882663  95.5124499
  94.3816346  79.1069892  88.0565335  93.6045789  78.7681052  87.6120498
  95.0607827  79.1122515  87.3820301  89.1968375  74.2264630  87.9471943
  88.8918511  74.5410779  88.7982086  90.1498818  74.3046049  87.9899276
  87.6414807  80.3854853  89.5964897  87.1136169  79.6507612  89.2838135
  87.1402310  81.1629529  89.3504865  82.3733535  71.0474519  91.9571509
  82.9477287  70.8249701  91.2244702  82.9604517  71.1163214  92.7100110
  82.7003122  73.0778980  85.9767394  81.8640434  73.4153667  86.2976669
  82.5607892  72.9427960  85.0394531  84.6756203  67.9215768  90.6846578
  84.0220615  67.6064785  90.0603193  84.6336677  67.2991508  91.4106401
  85.7867407  78.2035063  82.5999870  84.8794469  77.9724317  82.7991019
  86.2838439  77.4072682  82.7873852  88.6935486  86.9132570  85.5196556
  88.0197185  87.2164267  86.1281514  89.0801308  87.7161651  85.1702013
  87.9093943  74.4097702  95.0094226  86.9916504  74.6312649  94.8515914
  88.3254087  74.4844012  94.1505933  88.6928991  75.8089117  90.1396906
  89.4400810  76.3210514  89.8304028  88.9620580  75.4873170  91.0001300
  86.9655641  78.3047658  87.1223860  86.0566860  78.0206691  87.2196330
  86.9950725  78.7246737  86.2627167  91.1407828  72.8446234  92.1215695
  90.4030585  72.3323620  92.4525938  91.3934601  72.4046615  91.3098972
  91.2419455  65.6222486  92.7157465  91.5478332  64.7619849  92.4283380
  91.9672060  66.2140106  92.5156458  77.5343811  76.0253172  91.1039062
  77.3368211  75.4322533  90.3790129  76.9790475  75.7205382  91.8215001
  85.5140535  75.9176279  93.2233656  85.5689145  74.9650115  93.1476132
  84.7031737  76.0735718  93.7074954  86.6631729  79.8456402  84.4611939
  86.2251159  79.1292261  84.0017576  87.4042170  80.0732516  83.8997030
  83.4532895  74.5353338  90.9824034  82.6400760  74.8347509  91.3889227
  83.9491889  74.1409027  91.6998517  82.9446970  72.1071694  96.5985269
  83.5846349  71.9660453  95.9008233  82.1124500  71.8206207  96.2223871
  83.7207274  81.4074124  92.7120262  84.5147872  80.9124444  92.5102837
  83.0098966  80.8791987  92.3487967  80.0290037  75.5517206  88.7880015
  79.0987625  75.4901662  89.0049977  80.1247509  75.0293159  87.9916656
  79.9475586  72.0772019  91.3758256  80.2082403  72.9917352  91.2667417
  80.7692758  71.6096461  91.5254869  90.7842956  78.7040783  84.0543996
  90.1672127  77.9787611  83.9577049  90.3159445  79.4650144  83.7111071
  82.5741502  72.9226208  83.1765301  81.6970969  72.8015008  82.8127547
  83.0499255  72.1312286  82.9244189  74.0943642  77.7103367  93.2706808
  74.7814682  77.3965097  92.6827823  73.9391771  78.6144732  92.9974059
  78.8978365  72.5993564  97.6991832  78.8136553  71.9919233  96.9642241
  78.0761071  73.0902582  97.7001328  89.0702078  71.0847127  93.0662027
  89.5670778  70.3317090  92.7463097  88.2989060  71.1211444  92.5005236
  90.1531859  79.8418815  90.6400450  89.2188138  79.9620277  90.4705154
  90.3308528  78.9391281  90.3760460  85.6537047  73.2264510  92.7933711
  85.2834835  72.6735551  93.4814617  86.1496140  72.6222644  92.2408711
  93.5404410  75.6836134  91.1750484  94.0064863  76.5164126  91.1010787
  93.9911911  75.2181115  91.8795743  91.6080642  82.0279955  88.1736636
  91.8840485  81.9136550  89.0830510  90.7385140  81.6297440  88.1348809
  91.5121073  68.0516721  95.2141385  90.5984153  68.2820948  95.3823592
  91.9414175  68.1355165  96.0655418  73.6711619  75.7903961  95.5424275
  73.7095718  75.2567551  96.3361393  73.1651911  75.2639166  94.9235252
  81.0502381  70.6368501  99.0386817  81.1143707  71.4983332  98.6264215
  80.9869501  70.0242503  98.3059176  77.3020196  74.5168063  88.6178206
  77.5973637  73.6078741  88.5645260  76.4008232  74.4955802  88.2959209
  80.8314443  72.5924059  94.6005755  80.1101029  73.2060027  94.4613228
  81.6207699  73.1281824  94.5222401  79.0308038  72.1982160  88.7417532
  78.7020744  71.3179539  88.5592637  79.3847408  72.1429829  89.6293921
  82.1449861  72.4855130  89.1093009  82.4845933  73.0141052  88.3871618
  82.5921981  72.8235536  89.8851576  85.4909773  67.9541493  97.0123400
  86.3135843  67.4801972  96.8902291  85.7347837  68.7331977  97.5122087
  84.1318008  70.9829752  87.3086302  84.8526370  71.3611005  86.8050019
  83.5083312  71.7018629  87.4121280  88.2749131  71.6874901  88.2444634
  88.4912745  72.5699539  87.9433462  87.7943198  71.2961114  87.5150276
  83.0148352  74.6460614  94.8215379  82.8692933  74.9600917  95.7139660
  82.5373556  75.2645514  94.2686278  84.8744735  71.6363162  94.8696268
  84.8606304  70.7404255  94.5328566  85.5917163  71.6433826  95.5034555
  84.2781631  70.5177542  90.1383839  84.3997542  69.5894189  90.3374726
  83.9883673  70.5316228  89.2262154  87.1472821  68.2032453  93.2750558
  87.1694518  68.2671786  92.3202538  87.5640880  67.3636961  93.4691065
  78.7216650  84.2001283  92.6843592  79.5474670  83.9005055  92.3042235
  78.3710702  83.4308906  93.1333380  76.9225255  82.1187610  93.6432525
  76.0857163  81.6909784  93.4616526  76.8948900  82.3120053  94.5803316
  83.2511690  82.1031675  88.2299726  83.3999810  82.7867139  87.5766398
  84.0578133  82.0836765  88.7449181  81.0064323  78.1296853  89.2360795
  80.7610365  77.2259183  89.4341005  81.1760238  78.1314003  88.2940273
  80.2759971  73.8625210  86.7346956  79.5829215  73.9369565  86.0786992
  80.0311722  73.0985554  87.2568473  88.9473627  65.4220812  94.1386447
  89.2275381  64.7544001  94.7646873  89.7324234  65.6149907  93.6261111
  86.7507096  84.5979805  85.7011473  86.1781063  85.2169993  85.2481945
  87.3239889  85.1479167  86.2351395  89.9704355  84.8816956  86.8320055
  90.9035028  84.8162517  87.0352931  89.8827568  85.7173222  86.3734588
  92.5992372  84.1982826  83.7924003  92.5206004  83.8642690  84.6859761
  93.4202039  84.6904594  83.7915475  87.1353894  75.9340618  83.0427526
  88.0812999  75.8046826  83.1115944  86.7568139  75.1955280  83.5196954
  93.1075779  67.5996624  93.0054417  92.9100600  67.2911712  93.8897749
  93.7175484  68.3258263  93.1352347  85.3196811  73.8590595  82.9782411
  84.4128267  73.5623707  83.0545124  85.5972792  73.5620413  82.1116697
  76.2374752  75.1796958  93.4281457  75.9177536  74.3262266  93.1355831
  75.6908180  75.3945536  94.1839425  86.9358877  68.4027484  89.1326652
  86.1259605  68.0574569  89.5081898  87.6243294  68.0935028  89.7214264
  88.8649425  67.4805531  90.7550949  89.4180464  67.9000985  91.4140972
  89.1019512  66.5541279  90.7973905  84.0895596  70.7177530  83.1194390
  84.9514760  71.0432428  83.3790207  84.2745940  69.9309026  82.6067456
  76.1063012  78.7999870  95.3974579  75.4126483  78.3853822  94.8844533
  76.8536003  78.8420406  94.8007998  92.2428232  69.5906056  90.2629613
  91.6626901  70.2490860  89.8807665  91.9764165  68.7683401  89.8517031
  90.6931799  68.9911114  92.4650933  91.1931577  69.1027649  91.6565252
  91.3367407  68.6872167  93.1051742  78.0199754  78.7318123  93.2740594
  77.9970442  78.8305811  92.3222477  78.3300391  79.5783274  93.5957760
  91.0253110  71.7506147  89.3185961  90.1378965  72.0355797  89.1006156
  91.4407099  71.5899910  88.4713238  94.3767646  71.7752668  93.0340301
  95.1528037  72.2649120  93.3064917  93.6515781  72.2010722  93.4912170
  90.1696324  81.5150821  83.4133981  90.8732174  81.7200824  84.0291637
  89.4458973  82.0827583  83.6783065  90.9994134  77.2660683  89.5336251
  90.9429335  77.7229234  88.6943884  91.5522477  76.5051367  89.3559094
  94.8098940  73.0550414  90.3586371  94.5535874  72.6547050  91.1894579
  94.1851808  73.7694208  90.2336510  92.0783021  81.9533351  85.4632441
  92.9128625  81.5214549  85.2809916  91.9167364  81.7815364  86.3909336
  91.7328913  78.4565464  86.8288781  91.6777717  78.2909735  85.8877225
  91.1074969  79.1641497  86.9850970  85.0425039  67.9573573  86.4074099
  85.0303709  68.9015413  86.5642370  85.9348461  67.7743718  86.1133560
  88.8577158  64.5516350  90.6620036  88.0909554  63.9974836  90.8076718
  89.2687863  64.6238218  91.5234187  93.4135257  88.2518125  83.1765301
  92.5364723  88.1306926  82.8127547  93.8893010  87.4604204  82.9244189
  96.1590566  89.1882512  82.9782411  95.2522021  88.8915625  83.0545124
  96.4366547  88.8912330  82.1116697  94.9289350  86.0469448  83.1194390
  95.7908514  86.3724346  83.3790207  95.1139694  85.2600943  82.6067456
  39.1775047  -5.3631560  78.2091340  38.6139912  -5.4541623  77.4407628
  39.0627442  -6.1831655  78.6893833  44.7574606  -1.6960592  73.5205805
  44.1062586  -1.1106511  73.1339819  45.5518969  -1.1654397  73.5800843
  38.6830233  -4.6071455  73.9192940  39.4561109  -5.1542468  73.7805815
  39.0355632  -3.7427205  74.1307401  46.2349871  -4.0070160  74.0574790
  45.5995704  -3.9335533  74.7695694  45.9047277  -3.4176561  73.3793869
  40.7392799  -6.5450683  73.7535765  40.6229058  -7.2205779  74.4216849
  40.8495059  -7.0318309  72.9367918  40.4625940   3.1710663  77.0880600
  40.3849970   4.1218488  77.1669081  39.8587584   2.8256536  77.7455527
  47.0073697  -4.1445687  81.6584385  46.3782559  -3.9799973  80.9560452
  46.6199359  -3.7304077  82.4295349  50.8862929  -3.2091249  79.0128748
  50.2013967  -2.8292348  78.4625782  50.9706778  -2.5995922  79.7460696
  42.5601659  -4.4071279  78.9234470  43.0240004  -4.1283576  78.1339092
  42.2958457  -5.3087834  78.7407560  49.2559688  -2.6859334  83.7846449
  50.0777132  -3.0879147  83.5029131  49.2522091  -2.7891100  84.7362565
  42.7364309  -1.4707184  75.8086140  42.6009984  -0.6255648  76.2370988
  43.2774122  -1.2687906  75.0452074  36.1893707  -3.9531746  76.3814065
  36.7018227  -3.1588495  76.5319630  36.8416420  -4.6505455  76.3147667
  37.9988591  -0.8365989  78.4636818  38.1755220   0.0851975  78.2757802
  38.7945425  -1.1507570  78.8931198  44.2839791  -3.9250695  76.3210204
  43.7561152  -4.6597936  76.0083441  43.7827293  -3.1476019  76.0750172
  42.4292391  -6.1070485  69.3245177  41.5219453  -6.3381232  69.5236326
  42.9263423  -6.9032866  69.5119158  45.3360470   2.6027022  72.2441863
  44.6622168   2.9058719  72.8526821  45.7226292   3.4056103  71.8947320
  43.6080624  -6.0057890  73.8469167  42.6991843  -6.2898857  73.9441637
  43.6375708  -5.5858812  72.9872474  48.8399892  -2.3951301  77.6160334
  48.3862219  -3.2360391  77.6725525  48.2093858  -1.7589902  77.9535115
  47.2832831  -0.5574804  78.5510153  47.5755805   0.0030253  77.8322518
  47.7931451  -0.2646243  79.3063312  43.3056712  -4.4649146  71.1857246
  42.8676142  -5.1813288  70.7262883  44.0467153  -4.2373032  70.6242337
  42.2466456   0.2205547  79.6403606  42.2042635   0.4466393  78.7112138
  43.1629155  -0.0131078  79.7889407  40.3632257  -2.9031424  79.4365569
  41.1572855  -3.3981104  79.2348144  39.6523949  -3.4313561  79.0733274
  45.1827101  -0.5213328  83.7877936  45.2364124   0.0477608  84.5555652
  44.3141883  -0.3511443  83.4231973  43.5351685   2.7706695  74.4588942
  43.7103441   2.2994738  75.2734565  42.8484473   3.3972461  74.6870203
  44.4908748  -2.9520799  80.5052243  44.1558581  -2.9920029  81.4009893
  43.9912694  -3.6176083  80.0322654  38.1012770   5.9196057  81.2328802
  38.3409368   6.5514582  81.9107821  37.2581967   5.5684097  81.5194162
  42.6140632   1.7275180  83.6370306  42.5410803   2.5330151  84.1489611
  42.1718025   1.9267146  82.8118328  42.4030412   0.9646950  77.1473128
  41.6197933   1.5068630  77.2411352  43.1023157   1.4820929  77.5467369
  45.0739315   1.6262014  85.7928465  45.7867288   2.2609479  85.7204366
  44.5829344   1.7225880  84.9768467  46.7956842  -4.4686733  77.3645757
  45.8613121  -4.3485271  77.1950461  46.9733511  -5.3714267  77.1005766
  48.2505625  -2.2825593  74.8981943  48.5265469  -2.3968998  75.8075817
  47.3810124  -2.6808108  74.8594116  44.8859689   1.9660758  78.5414756
  45.0682083   1.1482414  79.0042509  45.7092675   2.1828450  78.1039646
  45.2201854   0.8928943  75.8029805  45.7489621   0.3821398  75.1899967
  45.4830074   0.5771473  76.6675338  38.5757602   1.9444060  78.5627581
  37.9067978   2.4290187  78.0791621  38.4370472   2.1913280  79.4770959
  42.7162871   3.9787803  85.1610239  43.2681179   4.1419425  85.9259324
  43.0569064   4.5692241  84.4890264  45.8531258   1.9269779  82.1473921
  45.7282398   1.1259519  81.6384867  46.5110349   2.4215972  81.6587891
  47.9166167  -0.2721201  83.7753471  46.9696502  -0.3915850  83.7031798
  48.2648940  -1.1598703  83.8579733  44.9212600  -0.4768485  79.9757824
  44.7737562  -1.4051777  80.1565394  45.7466093  -0.4548394  79.4914899
  48.5246722   0.3460074  81.0622696  49.4493269   0.1402935  80.9247148
  48.3562025   0.0976475  81.9712038  48.3142038   0.8645741  76.4184788
  48.4878915   0.2992164  75.6658640  48.8070929   1.6646636  76.2364278
  49.3017210   0.1812506  73.5181686  49.9968115   0.8019198  73.7369001
  49.6440361  -0.6692143  73.7934064  51.2008634  -2.3687789  75.0469017
  51.7259958  -2.0300516  74.3218337  51.1130986  -3.3040773  74.8632152
  42.8849294   3.6984195  79.4064270  42.4454285   3.2060573  80.0997127
  43.6357411   3.1557162  79.1656345  35.3641633  -0.1104265  79.4088898
  36.1899653  -0.4100493  79.0287542  35.0135685  -0.8796642  79.8578687
  40.3323166  -0.7577796  81.4786572  39.7103176  -1.4207091  81.1788800
  41.0028033  -0.7316665  80.7960220  39.8936673  -2.2073873  74.9545032
  40.0424794  -1.5238409  74.3011705  40.7003117  -2.2268783  75.4694488
  37.6489306  -6.1808695  75.9606101  37.4035348  -7.0846365  76.1586311
  37.8185221  -6.1791545  75.0185579  43.3932079   0.2874257  72.4256780
  42.8206046   0.9064445  71.9727252  43.9664873   0.8373619  72.9596702
  46.6129339   0.5711408  73.5565362  47.5460012   0.5056969  73.7598238
  46.5252551   1.4067674  73.0979895  49.2417355  -0.1122722  70.5169310
  49.1630987  -0.4462859  71.4105068  50.0627022   0.3799046  70.5160782
  35.6762344   2.0208350  81.1302713  35.5416812   1.2608751  80.5640711
  35.2594406   2.7449250  80.6631502  46.8121307  -2.7954727  70.1379288
  47.5157157  -2.5904724  70.7536944  46.0883956  -2.2277965  70.4028371
  38.8331470   2.9177667  81.3421155  38.7163854   3.8623099  81.2399846
  38.0123916   2.6151228  81.7306955  48.7208004  -2.3572198  72.1877748
  49.5553608  -2.7890999  72.0055223  48.5592347  -2.5290184  73.1154642
  39.8585984   3.5705929  84.5577084  40.7613231   3.6029539  84.8743579
  39.6323354   2.6406380  84.5723420  41.6139586   2.3236915  81.2187162
  40.6635217   2.3238777  81.1051535  41.9172072   1.5769650  80.7023197
  57.3492280   8.1597454  82.2832925  57.9870690   8.0404201  81.5796265
  57.2313122   9.1078298  82.3420877  54.1581986   8.1124882  82.2194449
  53.8200497   7.9965946  81.3314984  55.0271754   7.7116047  82.1995456
  50.0168802   9.9660358  78.2091340  49.4533667   9.8750295  77.4407628
  49.9021197   9.1460263  78.6893833  54.6401769   9.2659733  88.1780655
  54.6290410   8.8712532  87.3061159  54.8022408   8.5325806  88.7714426
  47.5633233  11.4611550  81.0475561  48.3554525  11.1202374  80.6321860
  47.8029884  11.5706525  81.9677714  55.5968360  13.6331326  73.5205805
  54.9456340  14.2185406  73.1339819  56.3912723  14.1637521  73.5800843
  49.5223987  10.7220463  73.9192940  50.2954863  10.1749450  73.7805815
  49.8749386  11.5864712  74.1307401  51.3609030  12.0496845  87.1259839
  51.0698896  12.9542476  87.0106505  51.9966014  12.0913373  87.8403909
  52.2865237   9.4273694  83.7161199  52.8828809   9.2029716  83.0018162
  52.3440208   8.6858439  84.3186646  51.8590265   6.8813129  71.5511390
  52.1115786   6.3594650  70.7894853  50.9214824   6.7179274  71.6538073
  56.9033548   5.8848907  79.3586133  57.6896637   5.4668331  79.0076550
  57.1672252   6.7895000  79.5267781  57.0743625  11.3221758  74.0574790
  56.4389458  11.3956384  74.7695694  56.7441032  11.9115357  73.3793869
  62.3041975   5.8224141  80.2619111  63.0367147   5.2523357  80.4956941
  61.5481331   5.4345741  80.7025617  51.5786554   8.7841235  73.7535765
  51.4622812   8.1086138  74.4216849  51.6888814   8.2973609  72.9367918
  53.9218095   8.2451382  77.4582454  53.5576302   7.7182003  78.1695375
  54.7785211   7.8549851  77.2848939  59.8267396  -0.4654285  84.7213720
  59.4950720   0.4041126  84.4974935  59.2313009  -0.7818001  85.4007750
  53.5623582   3.2741282  72.4543802  53.7297984   4.1421518  72.8214273
  53.3720751   3.4368564  71.5305092  56.3198915  11.7358261  84.1209633
  56.0199638  12.6383300  84.0125440  55.9749975  11.4690444  84.9730786
  49.7711397   8.1872058  80.1546337  48.8461893   8.0548272  80.3624029
  50.0195810   8.9666277  80.6516279  59.7196059   4.2540801  81.8007070
  58.8112936   4.1856209  81.5065831  59.6683655   4.7312746  82.6288895
  53.5412803   5.7298939  73.4390469  53.4212428   6.1755990  74.2775949
  52.8465391   6.0784257  72.8804007  47.1320208   7.8305331  80.9890126
  47.2612589   8.0839810  81.9029538  46.4517659   8.4233039  80.6694781
  51.3019695  18.5002581  77.0880600  51.2243725  19.4510406  77.1669081
  50.6981338  18.1548454  77.7455527  53.7936925   5.6730446  89.7441967
  53.0170259   6.2324367  89.7344832  54.4327488   6.1587229  90.2656837
  61.5857705   2.4557239  83.5784944  60.9432086   2.7489772  82.9324738
  61.0812634   2.3410160  84.3838141  59.2397869   6.2020412  74.2670803
  60.1515725   6.4347799  74.0918501  58.7307516   6.7857457  73.7045882
  52.0483297   8.4815900  89.3059934  52.7897981   9.0200944  89.0294758
  51.3420282   9.1082189  89.4631486  57.5238637  10.6245040  87.9032096
  57.9321993  10.1827451  87.1586728  56.8015898  10.0497668  88.1566289
  53.8769707   5.5617647  85.2765653  54.7230902   5.9857061  85.4200302
  53.8168344   4.9051271  85.9704216  57.8467451  11.1846231  81.6584385
  57.2176314  11.3491945  80.9560452  57.4593113  11.5987840  82.4295349
  61.7256683  12.1200669  79.0128748  61.0407721  12.4999570  78.4625782
  61.8100532  12.7295995  79.7460696  57.0269152   3.2222015  86.9346826
  56.7830084   3.9764076  86.3981102  57.3029082   3.6007363  87.7694073
  58.9807615   9.7660628  85.6124092  59.1924510  10.4092388  84.9358473
  58.9337363   8.9322944  85.1446022  56.5833844   2.3778448  82.5160664
  55.7218323   2.6759702  82.8077402  56.6096278   2.5948847  81.5841697
  53.3995413  10.9220639  78.9234470  53.8633759  11.2008342  78.1339092
  53.1352211  10.0204084  78.7407560  50.2919494  10.4692121  81.8614233
  50.8620851  10.8979389  81.2231717  50.8827606  10.1874705  82.5598419
  52.3364299   7.0443791  75.7324035  53.0388343   7.4964835  76.1997961
  52.0044928   6.4027610  76.3603928  50.7844661   5.6355548  90.1075244
  50.1543321   6.3171829  90.3410641  50.6780749   5.5238630  89.1628382
  46.0789633   5.3027344  81.0341168  45.2888687   5.5584873  80.5581279
  46.5700881   6.1175682  81.1393209  60.0953443  12.6432583  83.7846449
  60.9170886  12.2412771  83.5029131  60.0915846  12.5400817  84.7362565
  48.0304379   5.6671923  77.9924645  47.2335542   5.7790618  78.5108141
  47.8029971   6.0058576  77.1265536  53.8610046  12.1916627  85.9407160
  53.9254479  12.6537034  86.7765332  53.1520970  11.5613991  86.0689470
  44.3627336   5.5557835  83.4656159  44.6135375   6.4404844  83.7313735
  44.8986885   5.3762436  82.6931251  68.1859436   8.9871332  80.1331421
  67.4323144   8.4178730  79.9775425  68.3206977   8.9533996  81.0802055
  53.5758064  13.8584734  75.8086140  53.4403739  14.7036270  76.2370988
  54.1167876  14.0604012  75.0452074  47.0287461  11.3760172  76.3814065
  47.5411982  12.1703422  76.5319630  47.6810174  10.6786463  76.3147667
  48.8382346  14.4925928  78.4636818  49.0148974  15.4143893  78.2757802
  49.6339179  14.1784348  78.8931198  48.1234702   6.5390560  88.3398982
  48.0088218   5.6375817  88.6406080  47.2679220   6.7854257  87.9883798
  55.2026540  14.4808301  89.9386482  54.7590394  13.6944679  89.6207387
  55.8643754  14.6687451  89.2730373  49.9613661  16.0104102  84.4647161
  50.5121086  15.8821165  83.6924155  49.1225137  16.3098991  84.1142053
  57.3007778  14.7611100  87.9667883  57.2826254  15.5819981  87.4748153
  58.2227698  14.6365176  88.1918025  53.7580832  12.2755230  88.8091392
  54.2909169  11.5143518  88.5790700  53.2294913  11.9828882  89.5515546
  44.9936378   9.7048826  77.1573636  45.8311600  10.1145835  76.9407343
  45.1714646   8.7648269  77.1273830  56.8900810   7.3723907  72.8457469
  56.3747434   8.1428512  73.0845856  56.6178119   6.6989043  73.4690530
  54.4747921   2.2173608  77.9042707  53.6189517   1.8280458  77.7248346
  54.8874873   2.2965569  77.0442493  56.0047068  -0.2480049  82.3034267
  55.5011863  -0.2849914  81.4902072  56.2977675   0.6612694  82.3630923
  52.2489954  -0.1641319  81.3100449  53.1142950  -0.3598511  80.9506338
  52.3167463  -0.3930967  82.2369805  61.8635084  10.1256262  74.7810642
  61.0864527   9.7867421  74.3365804  62.5426565  10.1308885  74.1065607
  56.6787113   5.2450999  74.6717250  56.3737249   5.5597148  75.5227393
  57.6317555   5.3232419  74.7144583  55.1233545  11.4041222  76.3210204
  54.5954907  10.6693982  76.0083441  54.6221048  12.1815899  76.0750172
  60.1026391   9.5990243  81.4377250  59.4450066  10.2889504  81.5257379
  60.9066790   9.9886675  81.7811236  49.8552273   2.0660889  78.6816815
  50.4296025   1.8436070  77.9490008  50.4423255   2.1349583  79.4345417
  58.9131850   7.9534616  79.4881192  59.4263732   8.5864607  79.9902902
  59.5633074   7.3535811  79.1224552  50.1821860   4.0965350  72.7012701
  49.3459172   4.4340036  73.0221975  50.0426629   3.9614330  71.7639838
  52.1574940  -1.0597862  77.4091885  51.5039353  -1.3748845  76.7848500
  52.1155415  -1.6822122  78.1351708  53.2686145   9.2221433  69.3245177
  52.3613207   8.9910686  69.5236326  53.7657177   8.4259052  69.5119158
  56.1754224  17.9318940  72.2441863  55.5015923  18.2350637  72.8526821
  56.5620046  18.7348020  71.8947320  55.3912681   5.4284071  81.7339532
  54.4735242   5.6499018  81.5761220  55.8072824   5.5030382  80.8751240
  56.1747729   6.8275487  76.8642213  56.9219547   7.3396884  76.5549335
  56.4439318   6.5059540  77.7246606  54.4474379   9.3234028  73.8469167
  53.5385598   9.0393060  73.9441637  54.4769463   9.7433106  72.9872474
  59.6793646  12.9340617  77.6160334  59.2255973  12.0931527  77.6725525
  59.0487613  13.5702015  77.9535115  58.6226566   3.8632603  78.8461002
  57.8849322   3.3509989  79.1771245  58.8753339   3.4232985  78.0344279
  58.1226585  14.7717114  78.5510153  58.4149560  15.3322171  77.8322518
  58.6325206  15.0645675  79.3063312  45.0162549   7.0439542  77.8284369
  44.8186949   6.4508902  77.1035436  44.4609213   6.7391752  78.5460308
  52.9959273   6.9362648  79.9478962  53.0507883   5.9836485  79.8721439
  52.1850475   7.0922087  80.4320261  54.1450467  10.8642771  71.1857246
  53.7069896  10.1478630  70.7262883  54.8860907  11.0918886  70.6242337
  50.9351633   5.5539708  77.7069341  50.1219498   5.8533878  78.1134533
  51.4310627   5.1595397  78.4243823  53.0860211  15.5497465  79.6403606
  53.0436389  15.7758311  78.7112138  54.0022909  15.3160839  79.7889407
  56.5325844   6.0181532  86.5384235  56.8875232   6.2453006  87.3978701
  57.1797976   6.3499909  85.9161490  62.2623581   9.1399968  77.2433564
  62.1241480   9.3301564  76.3154753  61.9059800   9.9019351  77.7001615
  50.4265707   3.1258063  83.3230576  51.0665087   2.9846823  82.6253539
  49.5943238   2.8392577  82.9469178  62.2892961  11.2076495  82.2544836
  62.7229468  11.1151784  83.1027890  63.0024542  11.1833996  81.6164852
  51.2026011  12.4260494  79.4365569  51.9966610  11.9310814  79.2348144
  50.4917704  11.8978357  79.0733274  56.0220856  14.8078589  83.7877936
  56.0757878  15.3769526  84.5555652  55.1535637  14.9780474  83.4231973
  47.5108775   6.5703576  75.5125321  46.5806363   6.5088031  75.7295283
  47.6066247   6.0479528  74.7161962  47.4294324   3.0958388  78.1003563
  47.6901141   4.0103722  77.9912723  48.2511496   2.6282831  78.2500176
  48.9019249   4.5096146  85.2702387  49.5742303   4.3013508  84.6215036
  48.0749036   4.3118232  84.8307620  63.1508510  11.2500196  84.7877721
  63.3444401  12.1546006  85.0336996  63.0509129  10.7907615  85.6216306
  54.8044821   1.1358086  87.2868048  54.1572736   1.8348036  87.1932525
  55.5745837   1.5694230  87.6544297  58.2123619  11.4006939  90.3618602
  58.0609126  11.1717490  89.4448685  58.2028299  12.3577540  90.3749947
  54.9808956   8.9738851  85.3464868  55.9101016   9.1250011  85.1733835
  54.5599986   9.0622872  84.4913515  53.7797287  12.9989516  83.1163406
  53.6408373  12.6308300  83.9889344  52.9911884  13.5137155  82.9447363
  54.3745439  18.0998612  74.4588942  54.5497195  17.6286655  75.2734565
  53.6878227  18.7264378  74.6870203  55.3302502  12.3771119  80.5052243
  54.9952335  12.3371888  81.4009893  54.8306448  11.7115834  80.0322654
  49.3046746   7.7838749  86.0304825  49.1666544   7.0518987  86.6316364
  50.2151670   7.6947649  85.7489012  58.2661694   9.7227153  70.7789303
  57.6490865   8.9973981  70.6822356  57.7978183  10.4836513  70.4356377
  51.9329047   7.4958708  85.5188504  52.6428666   6.8551900  85.4775123
  51.8898355   7.7471603  86.4414685  59.9215826  14.4326061  88.4395083
  59.8628372  13.7485281  87.7725666  60.3235344  15.1745051  87.9875709
  50.6457981   4.4823926  87.3384144  50.1095338   4.0314664  87.9905740
  50.0574690   4.6169835  86.5954608  48.9406525  21.2487975  81.2328802
  49.1803123  21.8806499  81.9107821  48.0975721  20.8976015  81.5194162
  50.0560240   3.9412577  69.9010607  49.1789706   3.8201378  69.5372854
  50.5317993   3.1498655  69.6489496  59.9233233  12.3965645  86.6709063
  59.0360012  12.0591567  86.7935462  60.4931784  11.6648676  86.9077829
  41.5762380   8.7289737  79.9952115  42.2633420   8.4151467  79.4073130
  41.4210509   9.6331102  79.7219366  46.3797102   3.6179933  84.4237138
  46.2955291   3.0105603  83.6887548  45.5579809   4.1088952  84.4246635
  53.4534386  17.0567097  83.6370306  53.3804558  17.8622069  84.1489611
  53.0111780  17.2559063  82.8118328  53.2424166  16.2938868  77.1473128
  52.4591688  16.8360548  77.2411352  53.9416911  16.8112847  77.5467369
  56.5520816   2.1033497  79.7907333  57.0489516   1.3503459  79.4708403
  55.7807798   2.1397814  79.2250543  64.4050574   7.8073863  81.4325625
  64.3940450   8.6898578  81.0619558  63.5367953   7.4545413  81.2380162
  55.9133070  16.9553932  85.7928465  56.6261042  17.5901396  85.7204366
  55.4223099  17.0517798  84.9768467  57.6350597  10.8605184  77.3645757
  56.7006876  10.9806647  77.1950461  57.8127265   9.9577651  77.1005766
  53.1355785   4.2450880  79.5179018  52.7653572   3.6921920  80.2059923
  53.6314877   3.6409013  78.9654018  61.0223148   6.7022503  77.8995791
  61.4883600   7.5350495  77.8256093  61.4730649   6.2367485  78.6041049
  50.9644984  14.7048375  86.6134036  51.6654443  15.3384858  86.7663430
  50.4940099  15.0463107  85.8529675  59.0899379  13.0466325  74.8981943
  59.3659223  12.9322919  75.8075817  58.2203878  12.6483810  74.8594116
  58.9939811  -0.9296910  81.9386692  58.0802891  -0.6992683  82.1068899
  59.4232912  -0.8458465  82.7900724  58.7646269   7.2592982  84.4386586
  58.1117720   7.5068890  83.7839039  59.1426649   6.4457121  84.1049063
  55.7253443  17.2952676  78.5414756  55.9075838  16.4774332  79.0042509
  56.5486429  17.5120368  78.1039646  56.0595609  16.2220861  75.8029805
  56.5883375  15.7113315  75.1899967  56.3223828  15.9063391  76.6675338
  54.8133842   8.0012794  90.9252623  54.1374480   7.9006923  91.5954998
  55.6361476   7.8452007  91.3888620  46.5612702  14.2384730  83.5465138
  47.1466138  13.4928418  83.6793043  46.3637540  14.5488687  84.4301802
  49.4151357  17.2735977  78.5627581  48.7461732  17.7582105  78.0791621
  49.2764226  17.5205198  79.4770959  41.1530356   6.8090330  82.2669582
  41.1914456   6.2753921  83.0606700  40.6470649   6.2825536  81.6480559
  53.5556625  19.3079721  85.1610239  54.1074933  19.4711342  85.9259324
  53.8962819  19.8984159  84.4890264  48.5321119   1.6554871  85.7632124
  48.5962445   2.5169702  85.3509522  48.4688239   1.0428872  85.0304482
  58.4067500  14.1340978  91.0158894  58.9507404  14.7470937  90.5213848
  57.8254345  14.6920557  91.5325907  44.7838934   5.5354432  75.3423513
  45.0792375   4.6265111  75.2890567  43.8826970   5.5142172  75.0204515
  56.6925013  17.2561696  82.1473921  56.5676152  16.4551436  81.6384867
  57.3504104  17.7507890  81.6587891  48.3133181   3.6110429  81.3251062
  47.5919767   4.2246397  81.1858535  49.1026437   4.1468194  81.2467708
  58.7559921  15.0570717  83.7753471  57.8090257  14.9376068  83.7031798
  59.1042694  14.1693215  83.8579733  51.1159494   0.9464855  87.5991713
  51.6393896   1.1927152  88.3618023  50.8971828   1.7784890  87.1794851
  46.5126775   3.2168530  75.4662838  46.1839482   2.3365909  75.2837944
  46.8666146   3.1616199  76.3539227  55.7606354  14.8523433  79.9757824
  55.6131317  13.9240140  80.1565394  56.5859848  14.8743523  79.4914899
  49.6268599   3.5041500  75.8338316  49.9664671   4.0327421  75.1116924
  50.0740719   3.8421906  76.6096882  59.3640476  15.6751992  81.0622696
  60.2887024  15.4694853  80.9247148  59.1955780  15.4268393  81.9712038
  52.3212039   1.8878551  85.2841384  51.9808860   1.0886364  85.6862064
  51.6151046   2.1880261  84.7118217  52.9728511  -1.0272137  83.7368707
  53.7954581  -1.5011659  83.6147597  53.2166575  -0.2481653  84.2367393
  51.6136746   2.0016121  74.0331609  52.3345108   2.3797374  73.5295325
  50.9902050   2.7204998  74.1366587  55.7567869   2.7061270  74.9689941
  55.9731483   3.5885908  74.6678769  55.2761936   2.3147484  74.2395583
  50.4967090   5.6646984  81.5460686  50.3511671   5.9787287  82.4384967
  50.0192294   6.2831884  80.9931584  52.3563473   2.6549532  81.5941575
  52.3425042   1.7590625  81.2573873  53.0735901   2.6620195  82.2279861
  54.2089604   3.0886872  83.6394703  53.9507381   4.0103942  83.6379033
  53.6774644   2.6917306  84.3295167  59.1535792  16.1937659  76.4184788
  59.3272670  15.6284081  75.6658640  59.6464684  16.9938554  76.2364278
  44.9712752   8.2052328  84.4848347  44.4266220   8.9812136  84.6168621
  45.8492102   8.5523133  84.3267468  51.7600369   1.5363912  76.8629145
  51.8816280   0.6080558  77.0620033  51.4702411   1.5502598  75.9507461
  54.6291559  -0.7781178  79.9995865  54.6513256  -0.7141845  79.0447845
  55.0459618  -1.6176669  80.1936371  65.0075184   8.9574082  78.0375088
  65.4506330   8.2081407  77.6394211  64.1301694   8.9484218  77.6548820
  60.1410965  15.5104423  73.5181686  60.8361870  16.1311116  73.7369001
  60.4834115  14.6599775  73.7934064  45.7578774   7.3322224  87.3778504
  45.0160510   7.4804860  87.9643134  45.4371518   7.5930490  86.5145253
  62.0402388  12.9604129  75.0469017  62.5653712  13.2991402  74.3218337
  61.9524741  12.0251144  74.8632152  53.7022437  16.8738203  87.1758894
  54.0109563  16.6287349  88.0481593  54.4997919  17.0784841  86.6877764
  53.7243049  19.0276112  79.4064270  53.2848039  18.5352491  80.0997127
  54.4751166  18.4849080  79.1656345  46.2035388  15.2187653  79.4088898
  47.0293408  14.9191425  79.0287542  45.8529440  14.4495275  79.8578687
  51.1716921  14.5714121  81.4786572  50.5496930  13.9084826  81.1788800
  51.8421788  14.5975253  80.7960220  44.4043993  13.1373979  80.3677832
  43.5675901  12.7096154  80.1861833  44.3767638  13.3306423  81.3048623
  61.7296294  13.5937033  90.3520215  60.9391838  13.5761171  89.8124714
  61.4929649  14.1325326  91.1069252  61.8494169  10.4429499  87.6652943
  61.8992174  10.2779506  88.6068466  61.7408092   9.5756758  87.2750824
  50.7330428  13.1218045  74.9545032  50.8818548  13.8053509  74.3011705
  51.5396871  13.1023135  75.4694488  59.1397932   6.4260427  88.9812250
  60.0407794   6.2866892  88.6896248  59.2145906   6.5914882  89.9210428
  53.4740737   3.8027282  87.8265436  52.6044046   4.0960848  87.5548025
  53.7100217   4.3867727  88.5472700  63.3512366  12.8626440  87.9094965
  63.0597174  13.2256421  88.7458426  62.7384497  12.1493449  87.7308297
  64.5508048  10.4279320  80.4297535  65.3854940  10.8669124  80.5935096
  64.6867177   9.9517973  79.6105781  61.5999554   7.9859055  86.3775023
  62.0753676   8.1786701  85.5693874  60.6765120   8.0418241  86.1318407
  48.4883061   9.1483222  75.9606101  48.2429103   8.2445552  76.1586311
  48.6578975   9.1500373  75.0185579  56.1779771   0.0206899  85.3430857
  56.6961715   0.7567926  85.0177345  55.8234903   0.3270892  86.1777616
  47.7578708   4.8811580  73.4592263  47.0647953   4.9555935  72.8032299
  47.5130460   4.1171923  73.9813780  54.2325833  15.6166175  72.4256780
  53.6599800  16.2356362  71.9727252  54.8058627  16.1665537  72.9596702
  60.3001223   4.8624815  84.6103329  61.2518646   4.9622913  84.6315553
  60.1304674   4.0703084  85.1201413  58.3215603   1.9480398  84.7962730
  57.7265535   2.2285411  84.1009218  58.0365299   2.4374299  85.5679471
  57.4523093  15.9003325  73.5565362  58.3853766  15.8348887  73.7598238
  57.3646306  16.7359592  73.0979895  60.0811110  15.2169196  70.5169310
  60.0024741  14.8829059  71.4105068  60.9020777  15.7090963  70.5160782
  62.7789301   8.0830935  83.7245628  62.7465621   7.1446936  83.9105312
  63.3889925   8.1614972  82.9911453  54.6172632   6.9526988  69.7672832
  55.5631737   6.8233196  69.8361250  54.2386877   6.2141650  70.2442260
  62.9283789   4.8741978  83.7703911  62.4122838   4.0900435  83.5833840
  63.8123738   4.5460695  83.9350431  68.5965851   9.1446942  82.8651665
  69.3269239   8.8832230  83.4259368  67.9872796   8.4075664  82.9053733
  66.6781148   7.2854804  83.4626116  65.9514312   7.1510769  82.8542608
  66.2628435   7.5931633  84.2682834  54.5011324  11.0044734  91.2273489
  55.4214334  11.1823333  91.4213536  54.4660907  10.0600779  91.0753189
  52.8015549   4.8776964  69.7027718  51.8947004   4.5810077  69.7790431
  53.0791530   4.5806782  68.8362004  43.7193489   6.1983328  80.1526764
  43.3996274   5.3448636  79.8601138  43.1726918   6.4131906  80.9084731
  47.4973397   8.9145769  83.8696270  47.7159407   9.8462876  83.8884304
  47.9099171   8.5553743  84.6551074  54.4177615  -0.5786146  75.8571959
  53.6078343  -0.9239061  76.2327205  55.1062032  -0.8878602  76.4459570
  51.5714334   1.7363899  69.8439697  52.4333498   2.0618798  70.1035514
  51.7564678   0.9495395  69.3312762  43.5881749   9.8186239  82.1219885
  42.8945221   9.4040192  81.6089840  44.3354740   9.8606776  81.5253304
  59.7246970   0.6092426  76.9874920  59.1445639   1.2677230  76.6052972
  59.4582903  -0.2130230  76.5762337  58.1750536   0.0097484  79.1896240
  58.6750315   0.1214018  78.3810559  58.8186144  -0.2941464  79.8297048
  52.2332532   7.9176113  92.0764081  51.7499614   8.7176473  92.2827970
  52.3193471   7.9284058  91.1231525  45.5018492   9.7504493  79.9985900
  45.4789180   9.8492180  79.0467783  45.8119128  10.5969644  80.3203066
  48.1605870  11.8080648  84.1132515  49.1149123  11.7764590  84.0462446
  47.9618393  11.3471272  84.9282741  48.7505252  10.3781764  86.6803312
  49.5698141  10.8725843  86.7038150  49.0242060   9.4613732  86.6520880
  58.5071848   2.7692516  76.0431268  57.6197703   3.0542167  75.8251463
  58.9225837   2.6086280  75.1958545  61.8586384   2.7939037  79.7585607
  62.6346774   3.2835490  80.0310224  61.1334518   3.2197091  80.2157477
  64.2958943   3.5066656  80.8159548  64.8903434   3.2662392  80.1052856
  64.3685527   2.7873787  81.4433084  46.5156099  17.3500267  81.1302713
  46.3810566  16.5900668  80.5640711  46.0988161  18.0741167  80.6631502
  57.6515062  12.5337191  70.1379288  58.3550912  12.7387193  70.7536944
  56.9277710  13.1013953  70.4028371  58.4812872   8.2847052  76.2581558
  58.4248073   8.7415604  75.4189191  59.0341214   7.5237737  76.0804401
  62.2917678   4.0736784  77.0831678  62.0354612   3.6733420  77.9139885
  61.6670546   4.7880578  76.9581817  66.6030016   6.8132857  79.5902969
  66.0429574   6.8826047  80.3634531  65.9973519   6.6373842  78.8702465
  49.6725224  18.2469584  81.3421155  49.5557609  19.1915017  81.2399846
  48.8517671  17.9443146  81.7306955  59.5601759  12.9719720  72.1877748
  60.3947363  12.5400919  72.0055223  59.3986102  12.8001734  73.1154642
  59.2147651   9.4751833  73.5534087  59.1596455   9.3096105  72.6122531
  58.5893706  10.1827866  73.7096277  56.5293558  11.7800745  92.8787650
  57.3984718  11.9541398  92.5174285  56.0500310  12.5995162  92.7563379
  52.5243777  -1.0240058  73.1319406  52.5122446  -0.0798218  73.2887677
  53.4167198  -1.2069912  72.8378867  50.6979739  18.8997846  84.5577084
  51.6006985  18.9321457  84.8743579  50.4717109  17.9698297  84.5723420
  52.4533341  17.6528833  81.2187162  51.5028972  17.6530694  81.1051535
  52.7565827  16.9061567  80.7023197  68.1886034  23.4889371  82.2832925
  68.8264444  23.3696119  81.5796265  68.0706877  24.4370215  82.3420877
  64.9975740  23.4416799  82.2194449  64.6594252  23.3257864  81.3314984
  65.8665509  23.0407964  82.1995456  60.8562556  25.2952276  78.2091340
  60.2927421  25.2042213  77.4407628  60.7414951  24.4752180  78.6893833
  65.4795523  24.5951651  88.1780655  65.4684164  24.2004449  87.3061159
  65.6416163  23.8617724  88.7714426  58.4026988  26.7903467  81.0475561
  59.1948280  26.4494292  80.6321860  58.6423638  26.8998442  81.9677714
  66.4362115  28.9623243  73.5205805  65.7850095  29.5477324  73.1339819
  67.2306478  29.4929438  73.5800843  60.3617742  26.0512381  73.9192940
  61.1348618  25.5041368  73.7805815  60.7143141  26.9156630  74.1307401
  62.2002784  27.3788763  87.1259839  61.9092650  28.2834394  87.0106505
  62.8359769  27.4205290  87.8403909  63.1258991  24.7565611  83.7161199
  63.7222564  24.5321634  83.0018162  63.1833963  24.0150357  84.3186646
  62.6984020  22.2105047  71.5511390  62.9509540  21.6886568  70.7894853
  61.7608579  22.0471192  71.6538073  67.7427303  21.2140825  79.3586133
  68.5290392  20.7960248  79.0076550  68.0066007  22.1186917  79.5267781
  67.9137380  26.6513675  74.0574790  67.2783213  26.7248302  74.7695694
  67.5834786  27.2407274  73.3793869  73.1435730  21.1516058  80.2619111
  73.8760902  20.5815275  80.4956941  72.3875085  20.7637659  80.7025617
  62.4180308  24.1133153  73.7535765  62.3016567  23.4378056  74.4216849
  62.5282568  23.6265527  72.9367918  64.7611849  23.5743300  77.4582454
  64.3970057  23.0473921  78.1695375  65.6178965  23.1841769  77.2848939
  70.6661150  14.8637632  84.7213720  70.3344475  15.7333043  84.4974935
  70.0706763  14.5473916  85.4007750  64.4017336  18.6033199  72.4543802
  64.5691739  19.4713436  72.8214273  64.2114505  18.7660481  71.5305092
  67.1592670  27.0650178  84.1209633  66.8593393  27.9675217  84.0125440
  66.8143729  26.7982362  84.9730786  60.6105151  23.5163975  80.1546337
  59.6855648  23.3840189  80.3624029  60.8589564  24.2958194  80.6516279
  70.5589813  19.5832719  81.8007070  69.6506691  19.5148127  81.5065831
  70.5077409  20.0604664  82.6288895  64.3806557  21.0590857  73.4390469
  64.2606182  21.5047908  74.2775949  63.6859146  21.4076175  72.8804007
  57.9713962  23.1597249  80.9890126  58.1006343  23.4131728  81.9029538
  57.2911413  23.7524957  80.6694781  62.1413449  33.8294499  77.0880600
  62.0637479  34.7802324  77.1669081  61.5375093  33.4840371  77.7455527
  64.6330679  21.0022364  89.7441967  63.8564013  21.5616284  89.7344832
  65.2721242  21.4879147  90.2656837  72.4251460  17.7849157  83.5784944
  71.7825840  18.0781690  82.9324738  71.9206388  17.6702077  84.3838141
  70.0791623  21.5312330  74.2670803  70.9909480  21.7639717  74.0918501
  69.5701270  22.1149374  73.7045882  62.8877051  23.8107818  89.3059934
  63.6291736  24.3492861  89.0294758  62.1814037  24.4374106  89.4631486
  68.3632391  25.9536958  87.9032096  68.7715747  25.5119369  87.1586728
  67.6409653  25.3789586  88.1566289  64.7163461  20.8909565  85.2765653
  65.5624656  21.3148978  85.4200302  64.6562099  20.2343189  85.9704216
  68.6861206  26.5138149  81.6584385  68.0570068  26.6783863  80.9560452
  68.2986868  26.9279758  82.4295349  72.5650438  27.4492586  79.0128748
  71.8801476  27.8291488  78.4625782  72.6494287  28.0587913  79.7460696
  67.8662906  18.5513933  86.9346826  67.6223838  19.3055994  86.3981102
  68.1422837  18.9299281  87.7694073  69.8201369  25.0952545  85.6124092
  70.0318264  25.7384305  84.9358473  69.7731117  24.2614862  85.1446022
  67.4227598  17.7070366  82.5160664  66.5612077  18.0051620  82.8077402
  67.4490033  17.9240765  81.5841697  64.2389168  26.2512557  78.9234470
  64.7027513  26.5300260  78.1339092  63.9745966  25.3496001  78.7407560
  61.1313249  25.7984038  81.8614233  61.7014606  26.2271307  81.2231717
  61.7221361  25.5166623  82.5598419  63.1758054  22.3735709  75.7324035
  63.8782097  22.8256753  76.1997961  62.8438682  21.7319528  76.3603928
  61.6238415  20.9647466  90.1075244  60.9937076  21.6463747  90.3410641
  61.5174503  20.8530547  89.1628382  56.9183388  20.6319262  81.0341168
  56.1282442  20.8876790  80.5581279  57.4094635  21.4467600  81.1393209
  70.9347197  27.9724501  83.7846449  71.7564641  27.5704688  83.5029131
  70.9309600  27.8692735  84.7362565  58.8698133  20.9963841  77.9924645
  58.0729296  21.1082535  78.5108141  58.6423725  21.3350493  77.1265536
  64.7003801  27.5208544  85.9407160  64.7648233  27.9828951  86.7765332
  63.9914725  26.8905909  86.0689470  55.2021091  20.8849752  83.4656159
  55.4529129  21.7696762  83.7313735  55.7380639  20.7054354  82.6931251
  79.0253190  24.3163249  80.1331421  78.2716899  23.7470647  79.9775425
  79.1600731  24.2825914  81.0802055  64.4151818  29.1876652  75.8086140
  64.2797493  30.0328187  76.2370988  64.9561631  29.3895929  75.0452074
  60.9019158  15.2668232  92.4700495  60.5086103  14.7134430  93.1448140
  61.7185298  15.5778810  92.8607013  57.8681216  26.7052090  76.3814065
  58.3805736  27.4995340  76.5319630  58.5203928  26.0078380  76.3147667
  59.6776100  29.8217846  78.4636818  59.8542729  30.7435811  78.2757802
  60.4732934  29.5076265  78.8931198  63.8187119  16.6826111  90.0620752
  64.5596832  17.2833264  89.9825214  64.0505042  15.9403748  89.5038794
  58.9628457  21.8682478  88.3398982  58.8481972  20.9667735  88.6406080
  58.1072975  22.1146175  87.9883798  66.0420295  29.8100218  89.9386482
  65.5984149  29.0236597  89.6207387  66.7037508  29.9979369  89.2730373
  60.8007416  31.3396020  84.4647161  61.3514841  31.2113083  83.6924155
  59.9618892  31.6390909  84.1142053  68.1401533  30.0903018  87.9667883
  68.1220008  30.9111899  87.4748153  69.0621453  29.9657093  88.1918025
  64.5974587  27.6047148  88.8091392  65.1302924  26.8435436  88.5790700
  64.0688668  27.3120799  89.5515546  67.7644282  12.7107214  84.3385034
  67.4208551  13.6008855  84.2624144  68.1323244  12.5208871  83.4754619
  55.8330132  25.0340744  77.1573636  56.6705354  25.4437752  76.9407343
  56.0108400  24.0940186  77.1273830  67.7294565  22.7015825  72.8457469
  67.2141188  23.4720429  73.0845856  67.4571873  22.0280961  73.4690530
  65.3141676  17.5465525  77.9042707  64.4583272  17.1572376  77.7248346
  65.7268627  17.6257486  77.0442493  66.8440822  15.0811869  82.3034267
  66.3405618  15.0442004  81.4902072  67.1371429  15.9904611  82.3630923
  63.0883708  15.1650598  81.3100449  63.9536705  14.9693407  80.9506338
  63.1561217  14.9360950  82.2369805  72.7028839  25.4548179  74.7810642
  71.9258281  25.1159339  74.3365804  73.3820320  25.4600802  74.1065607
  67.5180868  20.5742917  74.6717250  67.2131003  20.8889066  75.5227393
  68.4711310  20.6524337  74.7144583  65.9627300  26.7333140  76.3210204
  65.4348661  25.9985900  76.0083441  65.4614802  27.5107816  76.0750172
  70.9420146  24.9282161  81.4377250  70.2843820  25.6181422  81.5257379
  71.7460545  25.3178593  81.7811236  60.6946027  17.3952806  78.6816815
  61.2689779  17.1727988  77.9490008  61.2817010  17.4641501  79.4345417
  69.7525604  23.2826533  79.4881192  70.2657486  23.9156525  79.9902902
  70.4026828  22.6827729  79.1224552  61.0215614  19.4257267  72.7012701
  60.1852927  19.7631954  73.0221975  60.8820384  19.2906247  71.7639838
  62.9968695  14.2694055  77.4091885  62.3433107  13.9543072  76.7848500
  62.9549169  13.6469796  78.1351708  64.1079900  24.5513350  69.3245177
  63.2006962  24.3202604  69.5236326  64.6050932  23.7550970  69.5119158
  67.0147979  33.2610858  72.2441863  66.3409677  33.5642554  72.8526821
  67.4013801  34.0639938  71.8947320  66.2306435  20.7575989  81.7339532
  65.3128997  20.9790936  81.5761220  66.6466579  20.8322299  80.8751240
  67.0141483  22.1567405  76.8642213  67.7613302  22.6688802  76.5549335
  67.2833073  21.8351457  77.7246606  65.2868133  24.6525945  73.8469167
  64.3779352  24.3684978  73.9441637  65.3163217  25.0725024  72.9872474
  70.5187401  28.2632535  77.6160334  70.0649728  27.4223445  77.6725525
  69.8881367  28.8993933  77.9535115  69.4620320  19.1924521  78.8461002
  68.7243077  18.6801907  79.1771245  69.7147094  18.7524902  78.0344279
  68.9620340  30.1009031  78.5510153  69.2543314  30.6614089  77.8322518
  69.4718960  30.3937592  79.3063312  69.5631947  11.9700773  79.4402771
  69.8690824  11.1098136  79.1528686  70.2884552  12.5618393  79.2401765
  55.8556304  22.3731459  77.8284369  55.6580703  21.7800820  77.1035436
  55.3002968  22.0683670  78.5460308  63.8353027  22.2654566  79.9478962
  63.8901637  21.3128402  79.8721439  63.0244229  22.4214005  80.4320261
  64.9844221  26.1934689  71.1857246  64.5463651  25.4770548  70.7262883
  65.7254662  26.4210804  70.6242337  61.7745387  20.8831626  77.7069341
  60.9613253  21.1825796  78.1134533  62.2704381  20.4887314  78.4243823
  63.9253965  30.8789383  79.6403606  63.8830144  31.1050229  78.7112138
  64.8416664  30.6452757  79.7889407  67.3719599  21.3473450  86.5384235
  67.7268987  21.5744923  87.3978701  68.0191730  21.6791827  85.9161490
  73.1017336  24.4691886  77.2433564  72.9635234  24.6593482  76.3154753
  72.7453555  25.2311269  77.7001615  61.2659462  18.4549981  83.3230576
  61.9058841  18.3138740  82.6253539  60.4336992  18.1684494  82.9469178
  73.1286715  26.5368413  82.2544836  73.5623222  26.4443702  83.1027890
  73.8418296  26.5125913  81.6164852  62.0419766  27.7552412  79.4365569
  62.8360364  27.2602732  79.2348144  61.3311458  27.2270275  79.0733274
  66.8614610  30.1370507  83.7877936  66.9151633  30.7061443  84.5555652
  65.9929392  30.3072392  83.4231973  58.3502529  21.8995493  75.5125321
  57.4200117  21.8379949  75.7295283  58.4460001  21.3771446  74.7161962
  58.2688078  18.4250306  78.1003563  58.5294896  19.3395639  77.9912723
  59.0905251  17.9574749  78.2500176  59.7413004  19.8388063  85.2702387
  60.4136057  19.6305425  84.6215036  58.9142790  19.6410149  84.8307620
  73.9902265  26.5792114  84.7877721  74.1838155  27.4837924  85.0336996
  73.8902883  26.1199533  85.6216306  65.6438576  16.4650004  87.2868048
  64.9966491  17.1639954  87.1932525  66.4139591  16.8986148  87.6544297
  69.0517374  26.7298856  90.3618602  68.9002880  26.5009408  89.4448685
  69.0422053  27.6869458  90.3749947  65.8202710  24.3030769  85.3464868
  66.7494770  24.4541929  85.1733835  65.3993740  24.3914790  84.4913515
  64.6191042  28.3281434  83.1163406  64.4802128  27.9600218  83.9889344
  63.8305638  28.8429073  82.9447363  65.2139194  33.4290530  74.4588942
  65.3890949  32.9578573  75.2734565  64.5271982  34.0556296  74.6870203
  66.1696257  27.7063036  80.5052243  65.8346090  27.6663806  81.4009893
  65.6700203  27.0407752  80.0322654  60.1440501  23.1130666  86.0304825
  60.0060299  22.3810905  86.6316364  61.0545424  23.0239566  85.7489012
  69.1055449  25.0519071  70.7789303  68.4884619  24.3265899  70.6822356
  68.6371937  25.8128431  70.4356377  62.7722802  22.8250626  85.5188504
  63.4822420  22.1843818  85.4775123  62.7292110  23.0763520  86.4414685
  70.7609580  29.7617979  88.4395083  70.7022126  29.0777199  87.7725666
  71.1629099  30.5036969  87.9875709  61.4851736  19.8115843  87.3384144
  60.9489093  19.3606582  87.9905740  60.8968444  19.9461752  86.5954608
  59.7800279  36.5779893  81.2328802  60.0196877  37.2098417  81.9107821
  58.9369476  36.2267933  81.5194162  60.8953995  19.2704495  69.9010607
  60.0183461  19.1493296  69.5372854  61.3711748  18.4790573  69.6489496
  70.7626988  27.7257563  86.6709063  69.8753766  27.3883485  86.7935462
  71.3325539  26.9940594  86.9077829  52.4156135  24.0581655  79.9952115
  53.1027175  23.7443385  79.4073130  52.2604263  24.9623019  79.7219366
  57.2190857  18.9471851  84.4237138  57.1349046  18.3397521  83.6887548
  56.3973563  19.4380869  84.4246635  64.2928141  32.3859015  83.6370306
  64.2198312  33.1913987  84.1489611  63.8505534  32.5850981  82.8118328
  64.0817921  31.6230785  77.1473128  63.2985442  32.1652465  77.2411352
  64.7810666  32.1404765  77.5467369  67.3914571  17.4325415  79.7907333
  67.8883270  16.6795377  79.4708403  66.6201552  17.4689731  79.2250543
  75.2444328  23.1365780  81.4325625  75.2334204  24.0190496  81.0619558
  74.3761708  22.7837331  81.2380162  66.7526824  32.2845849  85.7928465
  67.4654797  32.9193314  85.7204366  66.2616853  32.3809715  84.9768467
  68.4744351  26.1897102  77.3645757  67.5400630  26.3098564  77.1950461
  68.6521020  25.2869569  77.1005766  63.9749539  19.5742798  79.5179018
  63.6047327  19.0213838  80.2059923  64.4708632  18.9700931  78.9654018
  71.8616903  22.0314421  77.8995791  72.3277355  22.8642413  77.8256093
  72.3124403  21.5659403  78.6041049  61.8038738  30.0340293  86.6134036
  62.5048197  30.6676776  86.7663430  61.3333853  30.3755024  85.8529675
  69.9293134  28.3758242  74.8981943  70.2052978  28.2614837  75.8075817
  69.0597633  27.9775727  74.8594116  69.8333565  14.3995008  81.9386692
  68.9196645  14.6299235  82.1068899  70.2626667  14.4833452  82.7900724
  69.6040024  22.5884900  84.4386586  68.9511474  22.8360808  83.7839039
  69.9820404  21.7749038  84.1049063  66.5647198  32.6244593  78.5414756
  66.7469592  31.8066249  79.0042509  67.3880184  32.8412286  78.1039646
  66.8989363  31.5512778  75.8029805  67.4277130  31.0405233  75.1899967
  67.1617583  31.2355309  76.6675338  65.6527597  23.3304711  90.9252623
  64.9768234  23.2298841  91.5954998  66.4755231  23.1743925  91.3888620
  57.4006456  29.5676648  83.5465138  57.9859893  28.8220336  83.6793043
  57.2031295  29.8780604  84.4301802  60.2545111  32.6027895  78.5627581
  59.5855487  33.0874023  78.0791621  60.1157981  32.8497116  79.4770959
  51.9924111  22.1382248  82.2669582  52.0308210  21.6045839  83.0606700
  51.4864404  21.6117453  81.6480559  64.3950380  34.6371639  85.1610239
  64.9468688  34.8003260  85.9259324  64.7356573  35.2276076  84.4890264
  59.3714873  16.9846788  85.7632124  59.4356200  17.8461619  85.3509522
  59.3081993  16.3720790  85.0304482  58.8467146  19.0569921  89.4105158
  59.4739184  18.6746998  90.0242683  57.9895064  18.8384123  89.7760851
  69.2461254  29.4632896  91.0158894  69.7901158  30.0762854  90.5213848
  68.6648099  30.0212475  91.5325907  55.6232688  20.8646350  75.3423513
  55.9186129  19.9557028  75.2890567  54.7220724  20.8434090  75.0204515
  67.5318767  32.5853614  82.1473921  67.4069907  31.7843354  81.6384867
  68.1897858  33.0799808  81.6587891  59.1526935  18.9402347  81.3251062
  58.4313521  19.5538314  81.1858535  59.9420191  19.4760111  81.2467708
  69.5953676  30.3862634  83.7753471  68.6484011  30.2667985  83.7031798
  69.9436449  29.4985132  83.8579733  61.9553249  16.2756773  87.5991713
  62.4787651  16.5219070  88.3618023  61.7365582  17.1076808  87.1794851
  57.3520530  18.5460448  75.4662838  57.0233236  17.6657827  75.2837944
  57.7059901  18.4908116  76.3539227  66.6000109  30.1815350  79.9757824
  66.4525071  29.2532058  80.1565394  67.4253602  30.2035441  79.4914899
  60.4662353  18.8333418  75.8338316  60.8058426  19.3619339  75.1116924
  60.9134474  19.1713824  76.6096882  70.2034231  31.0043909  81.0622696
  71.1280778  30.7986771  80.9247148  70.0349534  30.7560310  81.9712038
  63.1605794  17.2170468  85.2841384  62.8202614  16.4178281  85.6862064
  62.4544800  17.5172179  84.7118217  63.8122266  14.3019781  83.7368707
  64.6348335  13.8280259  83.6147597  64.0560329  15.0810264  84.2367393
  62.4530500  17.3308039  74.0331609  63.1738863  17.7089292  73.5295325
  61.8295804  18.0496916  74.1366587  66.5961623  18.0353188  74.9689941
  66.8125238  18.9177826  74.6678769  66.1155690  17.6439402  74.2395583
  61.3360845  20.9938901  81.5460686  61.1905425  21.3079204  82.4384967
  60.8586048  21.6123802  80.9931584  63.1957227  17.9841449  81.5941575
  63.1818796  17.0882543  81.2573873  63.9129656  17.9912113  82.2279861
  65.0483358  18.4178790  83.6394703  64.7901136  19.3395860  83.6379033
  64.5168398  18.0209224  84.3295167  69.9929547  31.5229577  76.4184788
  70.1666424  30.9575999  75.6658640  70.4858438  32.3230472  76.2364278
  55.8106507  23.5344246  84.4848347  55.2659975  24.3104054  84.6168621
  56.6885857  23.8815050  84.3267468  62.5994123  16.8655830  76.8629145
  62.7210035  15.9372476  77.0620033  62.3096166  16.8794516  75.9507461
  65.4685314  14.5510740  79.9995865  65.4907011  14.6150073  79.0447845
  65.8853373  13.7115249  80.1936371  75.8468938  24.2866000  78.0375088
  76.2900084  23.5373325  77.6394211  74.9695448  24.2776136  77.6548820
  70.9804719  30.8396341  73.5181686  71.6755624  31.4603034  73.7369001
  71.3227870  29.9891692  73.7934064  56.5972529  22.6614142  87.3778504
  55.8554265  22.8096777  87.9643134  56.2765273  22.9222408  86.5145253
  72.8796142  28.2896047  75.0469017  73.4047467  28.6283319  74.3218337
  72.7918495  27.3543062  74.8632152  64.5416191  32.2030120  87.1758894
  64.8503318  31.9579267  88.0481593  65.3391673  32.4076759  86.6877764
  64.5636803  34.3568030  79.4064270  64.1241794  33.8644409  80.0997127
  65.3144920  33.8140998  79.1656345  57.0429142  30.5479571  79.4088898
  57.8687162  30.2483343  79.0287542  56.6923194  29.7787193  79.8578687
  62.0110675  29.9006039  81.4786572  61.3890685  29.2376744  81.1788800
  62.6815542  29.9267171  80.7960220  55.2437747  28.4665897  80.3677832
  54.4069656  28.0388072  80.1861833  55.2161393  28.6598341  81.3048623
  62.0835203  18.3787827  91.0719078  62.1323358  19.2549950  90.6896847
  62.6257717  17.8365220  90.4990721  72.5690049  28.9228950  90.3520215
  71.7785592  28.9053089  89.8124714  72.3323403  29.4617244  91.1069252
  72.6887924  25.7721417  87.6652943  72.7385929  25.6071424  88.6068466
  72.5801847  24.9048676  87.2750824  61.5724182  28.4509962  74.9545032
  61.7212303  29.1345427  74.3011705  62.3790626  28.4315052  75.4694488
  69.9791686  21.7552345  88.9812250  70.8801549  21.6158809  88.6896248
  70.0539661  21.9206799  89.9210428  64.3134491  19.1319199  87.8265436
  63.4437801  19.4252765  87.5548025  64.5493972  19.7159644  88.5472700
  74.1906120  28.1918358  87.9094965  73.8990929  28.5548339  88.7458426
  73.5778252  27.4785366  87.7308297  75.3901803  25.7571238  80.4297535
  76.2248694  26.1961042  80.5935096  75.5260932  25.2809891  79.6105781
  72.4393309  23.3150973  86.3775023  72.9147430  23.5078619  85.5693874
  71.5158874  23.3710159  86.1318407  59.3276815  24.4775140  75.9606101
  59.0822857  23.5737470  76.1586311  59.4972730  24.4792290  75.0185579
  67.0173525  15.3498816  85.3430857  67.5355469  16.0859843  85.0177345
  66.6628658  15.6562810  86.1777616  58.5972463  20.2103497  73.4592263
  57.9041708  20.2847852  72.8032299  58.3524215  19.4463841  73.9813780
  67.2686119  11.7699099  80.8631753  67.5487873  11.1022288  81.4892180
  68.0536726  11.9628194  80.3506417  65.0719588  30.9458093  72.4256780
  64.4993555  31.5648280  71.9727252  65.6452381  31.4957454  72.9596702
  71.1394978  20.1916733  84.6103329  72.0912401  20.2914830  84.6315553
  70.9698428  19.3995001  85.1201413  69.1609357  17.2772316  84.7962730
  68.5659289  17.5577329  84.1009218  68.8759054  17.7666217  85.5679471
  68.2916848  31.2295243  73.5565362  69.2247521  31.1640805  73.7598238
  68.2040060  32.0651510  73.0979895  70.9204864  30.5461113  70.5169310
  70.8418496  30.2120977  71.4105068  71.7414531  31.0382881  70.5160782
  73.6183055  23.4122853  83.7245628  73.5859376  22.4738853  83.9105312
  74.2283679  23.4906889  82.9911453  65.4566386  22.2818905  69.7672832
  66.4025491  22.1525114  69.8361250  65.0780631  21.5433567  70.2442260
  73.7677544  20.2033896  83.7703911  73.2516593  19.4192353  83.5833840
  74.6517492  19.8752613  83.9350431  71.4288271  13.9474912  79.7299724
  71.2313092  13.6390000  80.6143056  72.0387976  14.6736550  79.8597654
  79.4359605  24.4738859  82.8651665  80.1662994  24.2124147  83.4259368
  78.8266551  23.7367581  82.9053733  77.5174902  22.6146722  83.4626116
  76.7908066  22.4802687  82.8542608  77.1022189  22.9223551  84.2682834
  65.3405079  26.3336652  91.2273489  66.2608088  26.5115251  91.4213536
  65.3054662  25.3892697  91.0753189  63.6409303  20.2068882  69.7027718
  62.7340759  19.9101995  69.7790431  63.9185284  19.9098700  68.8362004
  54.5587244  21.5275245  80.1526764  54.2390028  20.6740553  79.8601138
  54.0120672  21.7423823  80.9084731  58.3367151  24.2437686  83.8696270
  58.5553161  25.1754794  83.8884304  58.7492925  23.8845661  84.6551074
  65.2571369  14.7505772  75.8571959  64.4472098  14.4052857  76.2327205
  65.9455786  14.4413315  76.4459570  67.1861917  13.8283818  77.4796255
  67.7392956  14.2479272  78.1386279  67.4232004  12.9019567  77.5219211
  63.2095017  19.8170892  93.2599019  63.1091744  20.7665249  93.1911110
  62.9916559  19.4889131  92.3875089  62.4108088  17.0655817  69.8439697
  63.2727252  17.3910715  70.1035514  62.5958432  16.2787313  69.3312762
  54.4275504  25.1478157  82.1219885  53.7338975  24.7332110  81.6089840
  55.1748495  25.1898693  81.5253304  70.5640725  15.9384344  76.9874920
  69.9839394  16.5969148  76.6052972  70.2976657  15.1161688  76.5762337
  69.0144291  15.3389401  79.1896240  69.5144069  15.4505936  78.3810559
  69.6579899  15.0350454  79.8297048  63.0726287  23.2468031  92.0764081
  62.5893368  24.0468391  92.2827970  63.1587226  23.2575976  91.1231525
  56.3412246  25.0796411  79.9985900  56.3182934  25.1784098  79.0467783
  56.6512883  25.9261561  80.3203066  58.9999624  27.1372566  84.1132515
  59.9542878  27.1056508  84.0462446  58.8012148  26.6763189  84.9282741
  59.5899006  25.7073682  86.6803312  60.4091895  26.2017760  86.7038150
  59.8635814  24.7905650  86.6520880  69.3465603  18.0984434  76.0431268
  68.4591458  18.3834085  75.8251463  69.7619592  17.9378197  75.1958545
  72.6980139  18.1230955  79.7585607  73.4740529  18.6127407  80.0310224
  71.9728273  18.5489009  80.2157477  75.1352697  18.8358574  80.8159548
  75.7297188  18.5954310  80.1052856  75.2079281  18.1165705  81.4433084
  57.3549853  32.6792185  81.1302713  57.2204321  31.9192586  80.5640711
  56.9381915  33.4033085  80.6631502  68.4908816  27.8629109  70.1379288
  69.1944666  28.0679111  70.7536944  67.7671465  28.4305871  70.4028371
  69.3206626  23.6138970  76.2581558  69.2641828  24.0707521  75.4189191
  69.8734969  22.8529654  76.0804401  73.1311432  19.4028702  77.0831678
  72.8748366  19.0025337  77.9139885  72.5064300  20.1172496  76.9581817
  77.4423770  22.1424775  79.5902969  76.8823328  22.2117964  80.3634531
  76.8367273  21.9665760  78.8702465  60.5118979  33.5761502  81.3421155
  60.3951363  34.5206935  81.2399846  59.6911425  33.2735064  81.7306955
  70.3995513  28.3011638  72.1877748  71.2341117  27.8692836  72.0055223
  70.2379856  28.1293651  73.1154642  70.0541406  24.8043751  73.5534087
  69.9990209  24.6388023  72.6122531  69.4287461  25.5119784  73.7096277
  54.8433921  20.0411815  87.3795510  55.4892784  19.5310769  87.8682735
  54.6351072  20.7780497  87.9538935  67.3687313  27.1092663  92.8787650
  68.2378472  27.2833315  92.5174285  66.8894064  27.9287080  92.7563379
  63.3637531  14.3051860  73.1319406  63.3516201  15.2493700  73.2887677
  64.2560953  14.1222006  72.8378867  61.5373493  34.2289764  84.5577084
  62.4400740  34.2613374  84.8743579  61.3110863  33.2990215  84.5723420
  63.2927095  32.9820751  81.2187162  62.3422726  32.9822612  81.1051535
  63.5959581  32.2353485  80.7023197  67.1789651  10.8994637  77.3865342
  66.4122046  10.3453123  77.5322025  67.5900356  10.9716506  78.2479494
  59.1831412  17.1879433  91.4770524  60.0462873  16.8316237  91.6873848
  58.6096822  16.8493327  92.1645928  79.0279789  38.8181289  82.2832925
  79.6658199  38.6988036  81.5796265  78.9100631  39.7662133  82.3420877
  75.8369495  38.7708717  82.2194449  75.4988006  38.6549782  81.3314984
  76.7059263  38.3699882  82.1995456  71.6956311  40.6244193  78.2091340
  71.1321176  40.5334130  77.4407628  71.5808706  39.8044098  78.6893833
  76.3189278  39.9243569  88.1780655  76.3077919  39.5296367  87.3061159
  76.4809917  39.1909641  88.7714426  69.2420742  42.1195385  81.0475561
  70.0342034  41.7786210  80.6321860  69.4817393  42.2290360  81.9677714
  77.2755869  44.2915161  73.5205805  76.6243849  44.8769242  73.1339819
  78.0700232  44.8221356  73.5800843  71.2011496  41.3804298  73.9192940
  71.9742372  40.8333285  73.7805815  71.5536895  42.2448548  74.1307401
  73.0396539  42.7080681  87.1259839  72.7486405  43.6126311  87.0106505
  73.6753523  42.7497208  87.8403909  73.9652746  40.0857529  83.7161199
  74.5616318  39.8613551  83.0018162  74.0227717  39.3442275  84.3186646
  73.5377774  37.5396964  71.5511390  73.7903295  37.0178486  70.7894853
  72.6002333  37.3763110  71.6538073  78.5821057  36.5432743  79.3586133
  79.3684146  36.1252166  79.0076550  78.8459761  37.4478835  79.5267781
  78.7531134  41.9805593  74.0574790  78.1176967  42.0540220  74.7695694
  78.4228541  42.5699192  73.3793869  83.9829484  36.4807976  80.2619111
  84.7154656  35.9107193  80.4956941  83.2268840  36.0929576  80.7025617
  73.2574063  39.4425070  73.7535765  73.1410321  38.7669974  74.4216849
  73.3676323  38.9557444  72.9367918  75.6005604  38.9035217  77.4582454
  75.2363811  38.3765838  78.1695375  76.4572720  38.5133687  77.2848939
  81.5054905  30.1929550  84.7213720  81.1738229  31.0624961  84.4974935
  80.9100518  29.8765834  85.4007750  75.2411091  33.9325117  72.4543802
  75.4085493  34.8005354  72.8214273  75.0508260  34.0952399  71.5305092
  77.9986424  42.3942096  84.1209633  77.6987147  43.2967135  84.0125440
  77.6537484  42.1274279  84.9730786  71.4498906  38.8455893  80.1546337
  70.5249402  38.7132107  80.3624029  71.6983319  39.6250112  80.6516279
  81.3983568  34.9124636  81.8007070  80.4900445  34.8440045  81.5065831
  81.3471164  35.3896581  82.6288895  75.2200312  36.3882775  73.4390469
  75.0999937  36.8339825  74.2775949  74.5252900  36.7368092  72.8804007
  68.8107717  38.4889166  80.9890126  68.9400098  38.7423645  81.9029538
  68.1305168  39.0816874  80.6694781  72.9807204  49.1586416  77.0880600
  72.9031234  50.1094241  77.1669081  72.3768847  48.8132289  77.7455527
  75.4724434  36.3314282  89.7441967  74.6957768  36.8908202  89.7344832
  76.1114997  36.8171065  90.2656837  83.2645214  33.1141075  83.5784944
  82.6219594  33.4073608  82.9324738  82.7600143  32.9993995  84.3838141
  80.9185378  36.8604248  74.2670803  81.8303234  37.0931635  74.0918501
  80.4095025  37.4441292  73.7045882  73.7270806  39.1399735  89.3059934
  74.4685490  39.6784779  89.0294758  73.0207791  39.7666024  89.4631486
  79.2026146  41.2828876  87.9032096  79.6109502  40.8411286  87.1586728
  78.4803407  40.7081503  88.1566289  75.5557216  36.2201482  85.2765653
  76.4018411  36.6440896  85.4200302  75.4955853  35.5635107  85.9704216
  79.5254960  41.8430066  81.6584385  78.8963823  42.0075780  80.9560452
  79.1380622  42.2571676  82.4295349  83.4044192  42.7784504  79.0128748
  82.7195230  43.1583405  78.4625782  83.4888041  43.3879831  79.7460696
  78.7056661  33.8805851  86.9346826  78.4617593  34.6347911  86.3981102
  78.9816591  34.2591198  87.7694073  80.6595124  40.4244463  85.6124092
  80.8712019  41.0676223  84.9358473  80.6124872  39.5906780  85.1446022
  78.2621353  33.0362284  82.5160664  77.4005832  33.3343537  82.8077402
  78.2883787  33.2532683  81.5841697  75.0782922  41.5804474  78.9234470
  75.5421268  41.8592177  78.1339092  74.8139720  40.6787919  78.7407560
  71.9707003  41.1275956  81.8614233  72.5408360  41.5563224  81.2231717
  72.5615115  40.8458541  82.5598419  74.0151808  37.7027627  75.7324035
  74.7175851  38.1548670  76.1997961  73.6832437  37.0611446  76.3603928
  72.4632170  36.2939383  90.1075244  71.8330830  36.9755664  90.3410641
  72.3568258  36.1822465  89.1628382  67.7577142  35.9611179  81.0341168
  66.9676196  36.2168708  80.5581279  68.2488389  36.7759517  81.1393209
  81.7740952  43.3016419  83.7846449  82.5958395  42.8996606  83.5029131
  81.7703355  43.1984653  84.7362565  69.7091887  36.3255759  77.9924645
  68.9123051  36.4374453  78.5108141  69.4817480  36.6642411  77.1265536
  75.5397555  42.8500462  85.9407160  75.6041988  43.3120869  86.7765332
  74.8308479  42.2197827  86.0689470  66.0414845  36.2141670  83.4656159
  66.2922884  37.0988680  83.7313735  66.5774393  36.0346271  82.6931251
  89.8646945  39.6455167  80.1331421  89.1110653  39.0762565  79.9775425
  89.9994486  39.6117832  81.0802055  75.2545573  44.5168569  75.8086140
  75.1191248  45.3620105  76.2370988  75.7955385  44.7187847  75.0452074
  71.7412912  30.5960149  92.4700495  71.3479858  30.0426348  93.1448140
  72.5579053  30.9070728  92.8607013  68.7074970  42.0344007  76.3814065
  69.2199491  42.8287258  76.5319630  69.3597683  41.3370298  76.3147667
  70.5169855  45.1509764  78.4636818  70.6936483  46.0727728  78.2757802
  71.3126688  44.8368183  78.8931198  74.6580873  32.0118028  90.0620752
  75.3990587  32.6125181  89.9825214  74.8898796  31.2695666  89.5038794
  69.8022211  37.1974396  88.3398982  69.6875727  36.2959653  88.6406080
  68.9466729  37.4438092  87.9883798  76.8814049  45.1392136  89.9386482
  76.4377903  44.3528514  89.6207387  77.5431263  45.3271286  89.2730373
  71.6401170  46.6687937  84.4647161  72.1908595  46.5405001  83.6924155
  70.8012646  46.9682826  84.1142053  78.9795287  45.4194936  87.9667883
  78.9613763  46.2403817  87.4748153  79.9015207  45.2949011  88.1918025
  75.4368341  42.9339065  88.8091392  75.9696678  42.1727353  88.5790700
  74.9082422  42.6412717  89.5515546  78.6038036  28.0399131  84.3385034
  78.2602306  28.9300773  84.2624144  78.9716999  27.8500789  83.4754619
  66.6723887  40.3632662  77.1573636  67.5099109  40.7729670  76.9407343
  66.8502155  39.4232104  77.1273830  78.5688319  38.0307742  72.8457469
  78.0534942  38.8012347  73.0845856  78.2965628  37.3572879  73.4690530
  76.1535430  32.8757443  77.9042707  75.2977026  32.4864294  77.7248346
  76.5662382  32.9549404  77.0442493  77.6834577  30.4103786  82.3034267
  77.1799372  30.3733922  81.4902072  77.9765184  31.3196529  82.3630923
  73.9277463  30.4942516  81.3100449  74.7930459  30.2985325  80.9506338
  73.9954972  30.2652868  82.2369805  83.5422593  40.7840097  74.7810642
  82.7652036  40.4451256  74.3365804  84.2214074  40.7892720  74.1065607
  78.3574622  35.9034834  74.6717250  78.0524758  36.2180984  75.5227393
  79.3105064  35.9816254  74.7144583  76.8021054  42.0625058  76.3210204
  76.2742416  41.3277817  76.0083441  76.3008557  42.8399734  76.0750172
  81.7813900  40.2574078  81.4377250  81.1237575  40.9473340  81.5257379
  82.5854299  40.6470510  81.7811236  71.5339782  32.7244724  78.6816815
  72.1083534  32.5019906  77.9490008  72.1210764  32.7933419  79.4345417
  80.5919359  38.6118451  79.4881192  81.1051241  39.2448443  79.9902902
  81.2420583  38.0119646  79.1224552  71.8609369  34.7549185  72.7012701
  71.0246681  35.0923872  73.0221975  71.7214138  34.6198165  71.7639838
  73.8362449  29.5985973  77.4091885  73.1826862  29.2834990  76.7848500
  73.7942924  28.9761713  78.1351708  74.9473654  39.8805268  69.3245177
  74.0400716  39.6494521  69.5236326  75.4444686  39.0842887  69.5119158
  77.8541733  48.5902775  72.2441863  77.1803432  48.8934472  72.8526821
  78.2407555  49.3931856  71.8947320  77.0700190  36.0867906  81.7339532
  76.1522751  36.3082854  81.5761220  77.4860333  36.1614217  80.8751240
  77.8535238  37.4859322  76.8642213  78.6007056  37.9980719  76.5549335
  78.1226827  37.1643375  77.7246606  76.1261888  39.9817863  73.8469167
  75.2173107  39.6976896  73.9441637  76.1556971  40.4016941  72.9872474
  81.3581155  43.5924452  77.6160334  80.9043482  42.7515362  77.6725525
  80.7275122  44.2285851  77.9535115  80.3014075  34.5216438  78.8461002
  79.5636831  34.0093825  79.1771245  80.5540848  34.0816820  78.0344279
  79.8014094  45.4300949  78.5510153  80.0937069  45.9906006  77.8322518
  80.3112715  45.7229510  79.3063312  80.4025702  27.2992690  79.4402771
  80.7084579  26.4390054  79.1528686  81.1278307  27.8910311  79.2401765
  66.6950058  37.7023377  77.8284369  66.4974458  37.1092738  77.1035436
  66.1396722  37.3975587  78.5460308  74.6746782  37.5946484  79.9478962
  74.7295392  36.6420320  79.8721439  73.8637984  37.7505923  80.4320261
  75.8237975  41.5226607  71.1857246  75.3857405  40.8062465  70.7262883
  76.5648416  41.7502721  70.6242337  72.6139142  36.2123543  77.7069341
  71.8007007  36.5117714  78.1134533  73.1098136  35.8179232  78.4243823
  74.7647720  46.2081300  79.6403606  74.7223898  46.4342146  78.7112138
  75.6810418  45.9744675  79.7889407  78.2113353  36.6765368  86.5384235
  78.5662741  36.9036841  87.3978701  78.8585485  37.0083745  85.9161490
  83.9411090  39.7983804  77.2433564  83.8028989  39.9885400  76.3154753
  83.5847309  40.5603186  77.7001615  72.1053216  33.7841899  83.3230576
  72.7452596  33.6430658  82.6253539  71.2730747  33.4976412  82.9469178
  83.9680470  41.8660331  82.2544836  84.4016977  41.7735620  83.1027890
  84.6812051  41.8417831  81.6164852  72.8813520  43.0844329  79.4365569
  73.6754119  42.5894649  79.2348144  72.1705213  42.5562192  79.0733274
  77.7008365  45.4662425  83.7877936  77.7545387  46.0353361  84.5555652
  76.8323146  45.6364310  83.4231973  69.1896284  37.2287411  75.5125321
  68.2593872  37.1671866  75.7295283  69.2853756  36.7063364  74.7161962
  69.1081833  33.7542224  78.1003563  69.3688650  34.6687557  77.9912723
  69.9299005  33.2866666  78.2500176  70.5806758  35.1679981  85.2702387
  71.2529812  34.9597343  84.6215036  69.7536545  34.9702067  84.8307620
  84.8296019  41.9084031  84.7877721  85.0231910  42.8129842  85.0336996
  84.7296638  41.4491450  85.6216306  76.4832330  31.7941922  87.2868048
  75.8360245  32.4931872  87.1932525  77.2533346  32.2278066  87.6544297
  79.8911128  42.0590774  90.3618602  79.7396635  41.8301326  89.4448685
  79.8815808  43.0161375  90.3749947  76.6596465  39.6322687  85.3464868
  77.5888525  39.7833846  85.1733835  76.2387495  39.7206708  84.4913515
  75.4584796  43.6573351  83.1163406  75.3195882  43.2892136  83.9889344
  74.6699393  44.1720991  82.9447363  76.0532948  48.7582448  74.4588942
  76.2284704  48.2870491  75.2734565  75.3665736  49.3848214  74.6870203
  77.0090011  43.0354954  80.5052243  76.6739844  42.9955724  81.4009893
  76.5093957  42.3699670  80.0322654  70.9834255  38.4422584  86.0304825
  70.8454053  37.7102823  86.6316364  71.8939179  38.3531484  85.7489012
  79.9449203  40.3810988  70.7789303  79.3278374  39.6557816  70.6822356
  79.4765692  41.1420348  70.4356377  73.6116556  38.1542543  85.5188504
  74.3216175  37.5135735  85.4775123  73.5685864  38.4055438  86.4414685
  81.6003335  45.0909897  88.4395083  81.5415881  44.4069117  87.7725666
  82.0022853  45.8328887  87.9875709  72.3245490  35.1407761  87.3384144
  71.7882847  34.6898500  87.9905740  71.7362199  35.2753670  86.5954608
  70.6194034  51.9071810  81.2328802  70.8590632  52.5390335  81.9107821
  69.7763230  51.5559850  81.5194162  71.7347749  34.5996413  69.9010607
  70.8577215  34.4785213  69.5372854  72.2105502  33.8082491  69.6489496
  81.6020742  43.0549481  86.6709063  80.7147521  42.7175402  86.7935462
  82.1719293  42.3232512  86.9077829  63.2549889  39.3873572  79.9952115
  63.9420929  39.0735302  79.4073130  63.0998018  40.2914937  79.7219366
  68.0584611  34.2763769  84.4237138  67.9742800  33.6689438  83.6887548
  67.2367318  34.7672787  84.4246635  75.1321895  47.7150933  83.6370306
  75.0592067  48.5205904  84.1489611  74.6899289  47.9142899  82.8118328
  74.9211675  46.9522703  77.1473128  74.1379197  47.4944383  77.2411352
  75.6204420  47.4696683  77.5467369  78.2308325  32.7617332  79.7907333
  78.7277025  32.0087295  79.4708403  77.4595307  32.7981649  79.2250543
  86.0838083  38.4657698  81.4325625  86.0727959  39.3482413  81.0619558
  85.2155462  38.1129249  81.2380162  77.5920579  47.6137767  85.7928465
  78.3048551  48.2485232  85.7204366  77.1010608  47.7101633  84.9768467
  79.3138106  41.5189020  77.3645757  78.3794385  41.6390482  77.1950461
  79.4914774  40.6161486  77.1005766  74.8143294  34.9034715  79.5179018
  74.4441081  34.3505756  80.2059923  75.3102386  34.2992849  78.9654018
  82.7010657  37.3606339  77.8995791  83.1671109  38.1934330  77.8256093
  83.1518158  36.8951320  78.6041049  72.6432492  45.3632210  86.6134036
  73.3441952  45.9968693  86.7663430  72.1727607  45.7046942  85.8529675
  80.7686888  43.7050160  74.8981943  81.0446732  43.5906755  75.8075817
  79.8991387  43.3067645  74.8594116  80.6727320  29.7286926  81.9386692
  79.7590400  29.9591153  82.1068899  81.1020421  29.8125370  82.7900724
  80.4433778  37.9176818  84.4386586  79.7905229  38.1652725  83.7839039
  80.8214158  37.1040956  84.1049063  77.4040952  47.9536511  78.5414756
  77.5863347  47.1358167  79.0042509  78.2273938  48.1704203  78.1039646
  77.7383118  46.8804696  75.8029805  78.2670884  46.3697151  75.1899967
  78.0011337  46.5647226  76.6675338  76.4921351  38.6596629  90.9252623
  75.8161988  38.5590758  91.5954998  77.3148985  38.5035843  91.3888620
  68.2400211  44.8968565  83.5465138  68.8253647  44.1512253  83.6793043
  68.0425049  45.2072522  84.4301802  71.0938866  47.9319813  78.5627581
  70.4249241  48.4165940  78.0791621  70.9551735  48.1789033  79.4770959
  62.8317865  37.4674166  82.2669582  62.8701965  36.9337756  83.0606700
  62.3258158  36.9409371  81.6480559  75.2344134  49.9663556  85.1610239
  75.7862442  50.1295178  85.9259324  75.5750328  50.5567994  84.4890264
  70.2108628  32.3138706  85.7632124  70.2749954  33.1753537  85.3509522
  70.1475748  31.7012708  85.0304482  69.6860900  34.3861839  89.4105158
  70.3132939  34.0038916  90.0242683  68.8288819  34.1676041  89.7760851
  80.0855009  44.7924814  91.0158894  80.6294913  45.4054772  90.5213848
  79.5041854  45.3504392  91.5325907  66.4626443  36.1938268  75.3423513
  66.7579884  35.2848946  75.2890567  65.5614479  36.1726007  75.0204515
  78.3712522  47.9145532  82.1473921  78.2463661  47.1135272  81.6384867
  79.0291613  48.4091725  81.6587891  69.9920690  34.2694264  81.3251062
  69.2707276  34.8830232  81.1858535  70.7813946  34.8052029  81.2467708
  80.4347430  45.7154552  83.7753471  79.4877766  45.5959903  83.7031798
  80.7830203  44.8277050  83.8579733  72.7947003  31.6048691  87.5991713
  73.3181405  31.8510987  88.3618023  72.5759337  32.4368726  87.1794851
  68.1914284  33.8752365  75.4662838  67.8626991  32.9949744  75.2837944
  68.5453655  33.8200034  76.3539227  77.4393863  45.5107268  79.9757824
  77.2918826  44.5823976  80.1565394  78.2647357  45.5327359  79.4914899
  71.3056108  34.1625335  75.8338316  71.6452180  34.6911256  75.1116924
  71.7528228  34.5005741  76.6096882  81.0427985  46.3335827  81.0622696
  81.9674533  46.1278688  80.9247148  80.8743289  46.0852228  81.9712038
  73.9999548  32.5462386  85.2841384  73.6596369  31.7470199  85.6862064
  73.2938555  32.8464097  84.7118217  74.6516020  29.6311698  83.7368707
  75.4742090  29.1572177  83.6147597  74.8954084  30.4102182  84.2367393
  73.2924255  32.6599957  74.0331609  74.0132617  33.0381210  73.5295325
  72.6689559  33.3788834  74.1366587  77.4355378  33.3645106  74.9689941
  77.6518992  34.2469744  74.6678769  76.9549445  32.9731319  74.2395583
  72.1754599  36.3230819  81.5460686  72.0299180  36.6371122  82.4384967
  71.6979803  36.9415719  80.9931584  74.0350982  33.3133367  81.5941575
  74.0212551  32.4174460  81.2573873  74.7523410  33.3204031  82.2279861
  75.8877113  33.7470707  83.6394703  75.6294890  34.6687778  83.6379033
  75.3562153  33.3501142  84.3295167  80.8323301  46.8521494  76.4184788
  81.0060179  46.2867917  75.6658640  81.3252193  47.6522389  76.2364278
  66.6500261  38.8636163  84.4848347  66.1053729  39.6395971  84.6168621
  67.5279611  39.2106968  84.3267468  73.4387878  32.1947747  76.8629145
  73.5603789  31.2664393  77.0620033  73.1489920  32.2086433  75.9507461
  76.3079068  29.8802658  79.9995865  76.3300765  29.9441991  79.0447845
  76.7247127  29.0407166  80.1936371  86.6862693  39.6157917  78.0375088
  87.1293839  38.8665242  77.6394211  85.8089203  39.6068054  77.6548820
  81.8198474  46.1688259  73.5181686  82.5149378  46.7894951  73.7369001
  82.1621624  45.3183610  73.7934064  67.4366283  37.9906060  87.3778504
  66.6948019  38.1388695  87.9643134  67.1159027  38.2514325  86.5145253
  83.7189897  43.6187964  75.0469017  84.2441221  43.9575237  74.3218337
  83.6312250  42.6834980  74.8632152  75.3809946  47.5322038  87.1758894
  75.6897072  47.2871185  88.0481593  76.1785428  47.7368676  86.6877764
  75.4030558  49.6859948  79.4064270  74.9635548  49.1936326  80.0997127
  76.1538675  49.1432915  79.1656345  67.8822897  45.8771488  79.4088898
  68.7080917  45.5775260  79.0287542  67.5316949  45.1079111  79.8578687
  72.8504430  45.2297957  81.4786572  72.2284439  44.5668662  81.1788800
  73.5209297  45.2559089  80.7960220  66.0831502  43.7957815  80.3677832
  65.2463410  43.3679989  80.1861833  66.0555147  43.9890258  81.3048623
  72.9228957  33.7079745  91.0719078  72.9717113  34.5841867  90.6896847
  73.4651472  33.1657138  90.4990721  83.4083803  44.2520868  90.3520215
  82.6179347  44.2345007  89.8124714  83.1717158  44.7909162  91.1069252
  83.5281678  41.1013334  87.6652943  83.5779683  40.9363342  88.6068466
  83.4195601  40.2340593  87.2750824  72.4117937  43.7801880  74.9545032
  72.5606057  44.4637344  74.3011705  73.2184380  43.7606970  75.4694488
  80.8185440  37.0844262  88.9812250  81.7195303  36.9450727  88.6896248
  80.8933415  37.2498717  89.9210428  75.1528246  34.4611117  87.8265436
  74.2831555  34.7544683  87.5548025  75.3887726  35.0451562  88.5472700
  85.0299875  43.5210276  87.9094965  84.7384683  43.8840256  88.7458426
  84.4172006  42.8077284  87.7308297  86.2295557  41.0863156  80.4297535
  87.0642449  41.5252960  80.5935096  86.3654686  40.6101809  79.6105781
  83.2787063  38.6442890  86.3775023  83.7541185  38.8370537  85.5693874
  82.3552629  38.7002076  86.1318407  70.1670570  39.8067058  75.9606101
  69.9216612  38.9029388  76.1586311  70.3366484  39.8084208  75.0185579
  77.8567280  30.6790734  85.3430857  78.3749224  31.4151761  85.0177345
  77.5022412  30.9854727  86.1777616  69.4366217  35.5395415  73.4592263
  68.7435462  35.6139770  72.8032299  69.1917969  34.7755759  73.9813780
  78.1079874  27.0991017  80.8631753  78.3881628  26.4314206  81.4892180
  78.8930481  27.2920112  80.3506417  81.9788732  35.5208650  84.6103329
  82.9306155  35.6206748  84.6315553  81.8092183  34.7286919  85.1201413
  80.0003112  32.6064234  84.7962730  79.4053044  32.8869246  84.1009218
  79.7152808  33.0958135  85.5679471  79.1310602  46.5587161  73.5565362
  80.0641275  46.4932722  73.7598238  79.0433815  47.3943427  73.0979895
  81.7598619  45.8753031  70.5169310  81.6812250  45.5412894  71.4105068
  82.5808286  46.3674799  70.5160782  84.4576810  38.7414770  83.7245628
  84.4253130  37.8030771  83.9105312  85.0677434  38.8198807  82.9911453
  76.2960141  37.6110823  69.7672832  77.2419246  37.4817031  69.8361250
  75.9174386  36.8725485  70.2442260  84.6071298  35.5325814  83.7703911
  84.0910347  34.7484270  83.5833840  85.4911247  35.2044530  83.9350431
  82.2682025  29.2766829  79.7299724  82.0706846  28.9681917  80.6143056
  82.8781731  30.0028468  79.8597654  90.2753360  39.8030777  82.8651665
  91.0056748  39.5416065  83.4259368  89.6660305  39.0659499  82.9053733
  88.3568657  37.9438640  83.4626116  87.6301821  37.8094605  82.8542608
  87.9415944  38.2515468  84.2682834  76.1798833  41.6628569  91.2273489
  77.1001843  41.8407168  91.4213536  76.1448416  40.7184615  91.0753189
  74.4803058  35.5360800  69.7027718  73.5734513  35.2393912  69.7790431
  74.7579039  35.2390618  68.8362004  65.3980998  36.8567163  80.1526764
  65.0783783  36.0032471  79.8601138  64.8514427  37.0715741  80.9084731
  69.1760906  39.5729604  83.8696270  69.3946916  40.5046712  83.8884304
  69.5886680  39.2137578  84.6551074  76.0965124  30.0797689  75.8571959
  75.2865852  29.7344774  76.2327205  76.7849541  29.7705233  76.4459570
  78.0255672  29.1575736  77.4796255  78.5786711  29.5771189  78.1386279
  78.2625758  28.2311484  77.5219211  74.0488771  35.1462810  93.2599019
  73.9485498  36.0957167  93.1911110  73.8310313  34.8181049  92.3875089
  73.2501843  32.3947735  69.8439697  74.1121007  32.7202633  70.1035514
  73.4352187  31.6079231  69.3312762  65.2669258  40.4770074  82.1219885
  64.5732730  40.0624027  81.6089840  66.0142249  40.5190611  81.5253304
  81.4034479  31.2676261  76.9874920  80.8233148  31.9261065  76.6052972
  81.1370412  30.4453606  76.5762337  79.8538045  30.6681319  79.1896240
  80.3537824  30.7797853  78.3810559  80.4973653  30.3642372  79.8297048
  73.9120041  38.5759949  92.0764081  73.4287123  39.3760309  92.2827970
  73.9980980  38.5867893  91.1231525  67.1806001  40.4088328  79.9985900
  67.1576689  40.5076016  79.0467783  67.4906637  41.2553479  80.3203066
  69.8393379  42.4664483  84.1132515  70.7936632  42.4348426  84.0462446
  69.6405902  42.0055107  84.9282741  70.4292761  41.0365599  86.6803312
  71.2485650  41.5309678  86.7038150  70.7029569  40.1197567  86.6520880
  80.1859357  33.4276352  76.0431268  79.2985212  33.7126002  75.8251463
  80.6013346  33.2670115  75.1958545  83.5373893  33.4522873  79.7585607
  84.3134283  33.9419325  80.0310224  82.8122027  33.8780927  80.2157477
  85.9746452  34.1650492  80.8159548  86.5690943  33.9246228  80.1052856
  86.0473036  33.4457622  81.4433084  68.1943608  48.0084103  81.1302713
  68.0598075  47.2484504  80.5640711  67.7775670  48.7325003  80.6631502
  79.3302571  43.1921026  70.1379288  80.0338421  43.3971029  70.7536944
  78.6065219  43.7597788  70.4028371  80.1600381  38.9430888  76.2581558
  80.1035582  39.3999439  75.4189191  80.7128723  38.1821572  76.0804401
  83.9705187  34.7320619  77.0831678  83.7142121  34.3317255  77.9139885
  83.3458055  35.4464413  76.9581817  88.2817525  37.4716693  79.5902969
  87.7217083  37.5409882  80.3634531  87.6761028  37.2957677  78.8702465
  71.3512733  48.9053420  81.3421155  71.2345118  49.8498852  81.2399846
  70.5305180  48.6026981  81.7306955  81.2389268  43.6303555  72.1877748
  82.0734872  43.1984754  72.0055223  81.0773611  43.4585569  73.1154642
  80.8935160  40.1335669  73.5534087  80.8383964  39.9679940  72.6122531
  80.2681215  40.8411702  73.7096277  65.6827675  35.3703733  87.3795510
  66.3286539  34.8602687  87.8682735  65.4744826  36.1072415  87.9538935
  78.2081067  42.4384581  92.8787650  79.0772227  42.6125233  92.5174285
  77.7287819  43.2578997  92.7563379  74.2031286  29.6343778  73.1319406
  74.1909955  30.5785618  73.2887677  75.0954707  29.4513923  72.8378867
  72.3767248  49.5581682  84.5577084  73.2794494  49.5905292  84.8743579
  72.1504618  48.6282133  84.5723420  74.1320850  48.3112668  81.2187162
  73.1816481  48.3114530  81.1051535  74.4353336  47.5645403  80.7023197
  78.0183405  26.2286554  77.3865342  77.2515801  25.6745041  77.5322025
  78.4294110  26.3008423  78.2479494  70.0225166  32.5171350  91.4770524
  70.8856628  32.1608155  91.6873848  69.4490577  32.1785245  92.1645928
  89.8673543  54.1473207  82.2832925  90.5051953  54.0279954  81.5796265
  89.7494386  55.0954051  82.3420877  86.6763249  54.1000635  82.2194449
  86.3381761  53.9841699  81.3314984  87.5453018  53.6991800  82.1995456
  82.5350065  55.9536111  78.2091340  81.9714930  55.8626048  77.4407628
  82.4202460  55.1336016  78.6893833  87.1583032  55.2535486  88.1780655
  87.1471673  54.8588285  87.3061159  87.3203672  54.5201559  88.7714426
  80.0814497  57.4487303  81.0475561  80.8735789  57.1078127  80.6321860
  80.3211147  57.5582278  81.9677714  88.1149624  59.6207079  73.5205805
  87.4637603  60.2061159  73.1339819  88.9093987  60.1513274  73.5800843
  82.0405251  56.7096216  73.9192940  82.8136127  56.1625203  73.7805815
  82.3930650  57.5740465  74.1307401  83.8790293  58.0372598  87.1259839
  83.5880159  58.9418229  87.0106505  84.5147278  58.0789126  87.8403909
  84.8046500  55.4149447  83.7161199  85.4010073  55.1905469  83.0018162
  84.8621472  54.6734192  84.3186646  84.3771529  52.8688882  71.5511390
  84.6297049  52.3470403  70.7894853  83.4396088  52.7055028  71.6538073
  89.4214812  51.8724660  79.3586133  90.2077901  51.4544084  79.0076550
  89.6853516  52.7770753  79.5267781  89.5924889  57.3097511  74.0574790
  88.9570722  57.3832137  74.7695694  89.2622295  57.8991110  73.3793869
  94.8223239  51.8099894  80.2619111  95.5548411  51.2399110  80.4956941
  94.0662594  51.4221494  80.7025617  84.0967817  54.7716988  73.7535765
  83.9804076  54.0961891  74.4216849  84.2070077  54.2849362  72.9367918
  86.4399358  54.2327135  77.4582454  86.0757566  53.7057756  78.1695375
  87.2966474  53.8425604  77.2848939  92.3448659  45.5221468  84.7213720
  92.0131984  46.3916879  84.4974935  91.7494272  45.2057752  85.4007750
  86.0804845  49.2617035  72.4543802  86.2479248  50.1297271  72.8214273
  85.8902014  49.4244317  71.5305092  88.8380179  57.7234014  84.1209633
  88.5380902  58.6259053  84.0125440  88.4931238  57.4566197  84.9730786
  82.2892660  54.1747811  80.1546337  81.3643156  54.0424025  80.3624029
  82.5377073  54.9542030  80.6516279  92.2377322  50.2416554  81.8007070
  91.3294200  50.1731962  81.5065831  92.1864918  50.7188499  82.6288895
  86.0594066  51.7174692  73.4390469  85.9393691  52.1631743  74.2775949
  85.3646655  52.0660010  72.8804007  79.6501471  53.8181084  80.9890126
  79.7793852  54.0715563  81.9029538  78.9698922  54.4108792  80.6694781
  83.8200958  64.4878334  77.0880600  83.7424988  65.4386159  77.1669081
  83.2162602  64.1424207  77.7455527  86.3118188  51.6606200  89.7441967
  85.5351522  52.2200120  89.7344832  86.9508751  52.1462982  90.2656837
  94.1038969  48.4432992  83.5784944  93.4613349  48.7365525  82.9324738
  93.5993897  48.3285913  84.3838141  91.7579132  52.1896166  74.2670803
  92.6696989  52.4223552  74.0918501  91.2488779  52.7733210  73.7045882
  84.5664560  54.4691653  89.3059934  85.3079245  55.0076697  89.0294758
  83.8601546  55.0957942  89.4631486  90.0419900  56.6120793  87.9032096
  90.4503256  56.1703204  87.1586728  89.3197162  56.0373421  88.1566289
  86.3950970  51.5493400  85.2765653  87.2412165  51.9732814  85.4200302
  86.3349608  50.8927024  85.9704216  90.3648715  57.1721984  81.6584385
  89.7357577  57.3367698  80.9560452  89.9774377  57.5863594  82.4295349
  94.2437947  58.1076422  79.0128748  93.5588985  58.4875323  78.4625782
  94.3281796  58.7171748  79.7460696  89.5450415  49.2097768  86.9346826
  89.3011347  49.9639829  86.3981102  89.8210346  49.5883116  87.7694073
  91.4988878  55.7536381  85.6124092  91.7105773  56.3968141  84.9358473
  91.4518626  54.9198697  85.1446022  89.1015107  48.3654201  82.5160664
  88.2399586  48.6635455  82.8077402  89.1277542  48.5824600  81.5841697
  85.9176677  56.9096392  78.9234470  86.3815022  57.1884095  78.1339092
  85.6533475  56.0079837  78.7407560  82.8100758  56.4567874  81.8614233
  83.3802115  56.8855142  81.2231717  83.4008869  56.1750458  82.5598419
  84.8545563  53.0319544  75.7324035  85.5569606  53.4840588  76.1997961
  84.5226191  52.3903363  76.3603928  83.3025924  51.6231301  90.1075244
  82.6724585  52.3047582  90.3410641  83.1962012  51.5114383  89.1628382
  78.5970897  51.2903097  81.0341168  77.8069951  51.5460626  80.5581279
  79.0882144  52.1051435  81.1393209  92.6134706  58.6308336  83.7846449
  93.4352150  58.2288524  83.5029131  92.6097109  58.5276570  84.7362565
  80.5485642  51.6547676  77.9924645  79.7516805  51.7666371  78.5108141
  80.3211234  51.9934329  77.1265536  86.3791310  58.1792380  85.9407160
  86.4435742  58.6412787  86.7765332  85.6702233  57.5489744  86.0689470
  76.8808600  51.5433588  83.4656159  77.1316638  52.4280597  83.7313735
  77.4168148  51.3638189  82.6931251 100.7040699  54.9747085  80.1331421
  99.9504408  54.4054483  79.9775425 100.8388240  54.9409749  81.0802055
  86.0939327  59.8460487  75.8086140  85.9585002  60.6912023  76.2370988
  86.6349140  60.0479765  75.0452074  82.5806667  45.9252067  92.4700495
  82.1873612  45.3718265  93.1448140  83.3972807  46.2362645  92.8607013
  79.5468725  57.3635925  76.3814065  80.0593245  58.1579175  76.5319630
  80.1991437  56.6662216  76.3147667  81.3563609  60.4801681  78.4636818
  81.5330238  61.4019646  78.2757802  82.1520443  60.1660101  78.8931198
  85.4974628  47.3409946  90.0620752  86.2384341  47.9417099  89.9825214
  85.7292551  46.5987584  89.5038794  80.6415966  52.5266313  88.3398982
  80.5269481  51.6251570  88.6406080  79.7860484  52.7730010  87.9883798
  87.7207804  60.4684054  89.9386482  87.2771658  59.6820432  89.6207387
  88.3825017  60.6563204  89.2730373  82.4794925  61.9979855  84.4647161
  83.0302350  61.8696919  83.6924155  81.6406401  62.2974744  84.1142053
  89.8189042  60.7486853  87.9667883  89.8007517  61.5695735  87.4748153
  90.7408962  60.6240929  88.1918025  86.2762096  58.2630983  88.8091392
  86.8090433  57.5019271  88.5790700  85.7476177  57.9704635  89.5515546
  89.4431791  43.3691049  84.3385034  89.0996060  44.2592691  84.2624144
  89.8110753  43.1792707  83.4754619  77.5117641  55.6924579  77.1573636
  78.3492863  56.1021588  76.9407343  77.6895909  54.7524022  77.1273830
  89.4082074  53.3599660  72.8457469  88.8928697  54.1304265  73.0845856
  89.1359382  52.6864796  73.4690530  86.9929185  48.2049361  77.9042707
  86.1370781  47.8156211  77.7248346  87.4056136  48.2841322  77.0442493
  88.5228331  45.7395704  82.3034267  88.0193127  45.7025839  81.4902072
  88.8158938  46.6488447  82.3630923  84.7671217  45.8234434  81.3100449
  85.6324214  45.6277242  80.9506338  84.8348726  45.5944786  82.2369805
  94.3816348  56.1132015  74.7810642  93.6045790  55.7743174  74.3365804
  95.0607829  56.1184638  74.1065607  89.1968377  51.2326752  74.6717250
  88.8918512  51.5472901  75.5227393  90.1498819  51.3108172  74.7144583
  87.6414809  57.3916975  76.3210204  87.1136170  56.6569735  76.0083441
  87.1402311  58.1691652  76.0750172  92.6207655  55.5865996  81.4377250
  91.9631329  56.2765257  81.5257379  93.4248054  55.9762428  81.7811236
  82.3733536  48.0536642  78.6816815  82.9477288  47.8311823  77.9490008
  82.9604519  48.1225336  79.4345417  91.4313113  53.9410369  79.4881192
  91.9444995  54.5740360  79.9902902  92.0814337  53.3411564  79.1224552
  82.7003123  50.0841103  72.7012701  81.8640436  50.4215789  73.0221975
  82.5607893  49.9490083  71.7639838  84.6756204  44.9277891  77.4091885
  84.0220616  44.6126908  76.7848500  84.6336678  44.3053631  78.1351708
  85.7867409  55.2097186  69.3245177  84.8794470  54.9786439  69.5236326
  86.2838441  54.4134805  69.5119158  88.6935488  63.9194693  72.2441863
  88.0197186  64.2226390  72.8526821  89.0801310  64.7223773  71.8947320
  87.9093944  51.4159824  81.7339532  86.9916506  51.6374771  81.5761220
  88.3254088  51.4906135  80.8751240  88.6928992  52.8151240  76.8642213
  89.4400811  53.3272637  76.5549335  88.9620582  52.4935293  77.7246606
  86.9655642  55.3109781  73.8469167  86.0566861  55.0268813  73.9441637
  86.9950726  55.7308859  72.9872474  92.1974910  58.9216370  77.6160334
  91.7437237  58.0807280  77.6725525  91.5668876  59.5577768  77.9535115
  91.1407829  49.8508356  78.8461002  90.4030586  49.3385742  79.1771245
  91.3934603  49.4108738  78.0344279  90.6407849  60.7592867  78.5510153
  90.9330823  61.3197924  77.8322518  91.1506469  61.0521428  79.3063312
  91.2419456  42.6284608  79.4402771  91.5478333  41.7681972  79.1528686
  91.9672061  43.2202228  79.2401765  77.5343813  53.0315295  77.8284369
  77.3368212  52.4384655  77.1035436  76.9790477  52.7267505  78.5460308
  85.5140536  52.9238401  79.9478962  85.5689146  51.9712238  79.8721439
  84.7031738  53.0797840  80.4320261  86.6631730  56.8518524  71.1857246
  86.2251160  56.1354383  70.7262883  87.4042171  57.0794639  70.6242337
  83.4532896  51.5415461  77.7069341  82.6400762  51.8409631  78.1134533
  83.9491890  51.1471150  78.4243823  85.6041474  61.5373218  79.6403606
  85.5617653  61.7634064  78.7112138  86.5204173  61.3036592  79.7889407
  89.0507108  52.0057285  86.5384235  89.4056496  52.2328759  87.3978701
  89.6979239  52.3375662  85.9161490  94.7804845  55.1275721  77.2433564
  94.6422743  55.3177317  76.3154753  94.4241064  55.8895104  77.7001615
  82.9446971  49.1133816  83.3230576  83.5846350  48.9722576  82.6253539
  82.1124501  48.8268330  82.9469178  94.8074224  57.1952248  82.2544836
  95.2410731  57.1027537  83.1027890  95.5205805  57.1709749  81.6164852
  83.7207275  58.4136247  79.4365569  84.5147873  57.9186567  79.2348144
  83.0098967  57.8854110  79.0733274  88.5402119  60.7954342  83.7877936
  88.5939142  61.3645279  84.5555652  87.6716901  60.9656227  83.4231973
  80.0290038  52.5579329  75.5125321  79.0987626  52.4963784  75.7295283
  80.1247510  52.0355281  74.7161962  79.9475587  49.0834141  78.1003563
  80.2082405  49.9979475  77.9912723  80.7692760  48.6158584  78.2500176
  81.4200513  50.4971899  85.2702387  82.0923566  50.2889261  84.6215036
  80.5930299  50.2993985  84.8307620  95.6689774  57.2375949  84.7877721
  95.8625664  58.1421759  85.0336996  95.5690392  56.7783368  85.6216306
  87.3226085  47.1233840  87.2868048  86.6754000  47.8223789  87.1932525
  88.0927100  47.5569983  87.6544297  90.7304883  57.3882692  90.3618602
  90.5790389  57.1593243  89.4448685  90.7209562  58.3453293  90.3749947
  87.4990219  54.9614604  85.3464868  88.4282279  55.1125764  85.1733835
  87.0781249  55.0498625  84.4913515  86.2978551  58.9865269  83.1163406
  86.1589636  58.6184053  83.9889344  85.5093147  59.5012908  82.9447363
  86.8926703  64.0874365  74.4588942  87.0678458  63.6162409  75.2734565
  86.2059491  64.7140132  74.6870203  87.8483766  58.3646872  80.5052243
  87.5133599  58.3247642  81.4009893  87.3487712  57.6991587  80.0322654
  81.8228010  53.7714502  86.0304825  81.6847808  53.0394740  86.6316364
  82.7332933  53.6823402  85.7489012  90.7842958  55.7102906  70.7789303
  90.1672128  54.9849734  70.6822356  90.3159446  56.4712266  70.4356377
  84.4510311  53.4834461  85.5188504  85.1609929  52.8427653  85.4775123
  84.4079619  53.7347356  86.4414685  92.4397089  60.4201814  88.4395083
  92.3809635  59.7361034  87.7725666  92.8416608  61.1620804  87.9875709
  83.1639245  50.4699679  87.3384144  82.6276602  50.0190417  87.9905740
  82.5755953  50.6045588  86.5954608  81.4587788  67.2363728  81.2328802
  81.6984386  67.8682252  81.9107821  80.6156985  66.8851768  81.5194162
  82.5741504  49.9288330  69.9010607  81.6970970  49.8077131  69.5372854
  83.0499257  49.1374408  69.6489496  92.4414497  58.3841398  86.6709063
  91.5541275  58.0467320  86.7935462  93.0113048  57.6524429  86.9077829
  74.0943644  54.7165490  79.9952115  74.7814683  54.4027220  79.4073130
  73.9391772  55.6206855  79.7219366  78.8978366  49.6055686  84.4237138
  78.8136555  48.9981356  83.6887548  78.0761072  50.0964705  84.4246635
  85.9715650  63.0442851  83.6370306  85.8985821  63.8497822  84.1489611
  85.5293043  63.2434816  82.8118328  85.7605430  62.2814621  77.1473128
  84.9772951  62.8236301  77.2411352  86.4598175  62.7988600  77.5467369
  89.0702080  48.0909250  79.7907333  89.5670779  47.3379212  79.4708403
  88.2989061  48.1273567  79.2250543  96.9231837  53.7949616  81.4325625
  96.9121713  54.6774331  81.0619558  96.0549216  53.4421166  81.2380162
  88.4314333  62.9429685  85.7928465  89.1442306  63.5777149  85.7204366
  87.9404362  63.0393551  84.9768467  90.1531860  56.8480937  77.3645757
  89.2188139  56.9682400  77.1950461  90.3308529  55.9453404  77.1005766
  85.6537048  50.2326633  79.5179018  85.2834836  49.6797673  80.2059923
  86.1496141  49.6284766  78.9654018  93.5404412  52.6898257  77.8995791
  94.0064864  53.5226248  77.8256093  93.9911912  52.2243238  78.6041049
  83.4826247  60.6924128  86.6134036  84.1835706  61.3260611  86.7663430
  83.0121362  61.0338860  85.8529675  91.6080643  59.0342078  74.8981943
  91.8840487  58.9198672  75.8075817  90.7385142  58.6359563  74.8594116
  91.5121074  45.0578844  81.9386692  90.5984154  45.2883070  82.1068899
  91.9414176  45.1417288  82.7900724  91.2827533  53.2468735  84.4386586
  90.6298983  53.4944643  83.7839039  91.6607913  52.4332874  84.1049063
  88.2434707  63.2828429  78.5414756  88.4257101  62.4650085  79.0042509
  89.0667693  63.4996121  78.1039646  88.5776872  62.2096614  75.8029805
  89.1064639  61.6989068  75.1899967  88.8405092  61.8939144  76.6675338
  87.3315106  53.9888547  90.9252623  86.6555743  53.8882676  91.5954998
  88.1542740  53.8327760  91.3888620  79.0793965  60.2260483  83.5465138
  79.6647402  59.4804171  83.6793043  78.8818803  60.5364440  84.4301802
  81.9332620  63.2611730  78.5627581  81.2642996  63.7457858  78.0791621
  81.7945490  63.5080951  79.4770959  73.6711620  52.7966083  82.2669582
  73.7095719  52.2629674  83.0606700  73.1651913  52.2701289  81.6480559
  86.0737889  65.2955474  85.1610239  86.6256197  65.4587095  85.9259324
  86.4144082  65.8859912  84.4890264  81.0502382  47.6430624  85.7632124
  81.1143709  48.5045455  85.3509522  80.9869502  47.0304625  85.0304482
  80.5254655  49.7153756  89.4105158  81.1526693  49.3330834  90.0242683
  79.6682573  49.4967958  89.7760851  90.9248763  60.1216731  91.0158894
  91.4688667  60.7346690  90.5213848  90.3435608  60.6796310  91.5325907
  77.3020197  51.5230185  75.3423513  77.5973638  50.6140864  75.2890567
  76.4008233  51.5017925  75.0204515  89.2106276  63.2437450  82.1473921
  89.0857416  62.4427189  81.6384867  89.8685367  63.7383643  81.6587891
  80.8314444  49.5986182  81.3251062  80.1101030  50.2122150  81.1858535
  81.6207700  50.1343947  81.2467708  91.2741185  61.0446470  83.7753471
  90.3271520  60.9251821  83.7031798  91.6223958  60.1568968  83.8579733
  83.6340758  46.9340609  87.5991713  84.1575160  47.1802905  88.3618023
  83.4153091  47.7660643  87.1794851  79.0308039  49.2044283  75.4662838
  78.7020745  48.3241662  75.2837944  79.3847410  49.1491952  76.3539227
  88.2787618  60.8399186  79.9757824  88.1312580  59.9115893  80.1565394
  89.1041111  60.8619277  79.4914899  82.1449862  49.4917253  75.8338316
  82.4845935  50.0203174  75.1116924  82.5921983  49.8297659  76.6096882
  91.8821740  61.6627745  81.0622696  92.8068287  61.4570606  80.9247148
  91.7137043  61.4144146  81.9712038  84.8393303  47.8754304  85.2841384
  84.4990123  47.0762117  85.6862064  84.1332309  48.1756014  84.7118217
  85.4909775  44.9603616  83.7368707  86.3135844  44.4864094  83.6147597
  85.7347838  45.7394100  84.2367393  84.1318009  47.9891874  74.0331609
  84.8526372  48.3673127  73.5295325  83.5083313  48.7080751  74.1366587
  88.2749132  48.6937023  74.9689941  88.4912747  49.5761661  74.6678769
  87.7943199  48.3023237  74.2395583  83.0148354  51.6522737  81.5460686
  82.8692934  51.9663040  82.4384967  82.5373557  52.2707637  80.9931584
  84.8744736  48.6425285  81.5941575  84.8606305  47.7466378  81.2573873
  85.5917164  48.6495948  82.2279861  86.7270867  49.0762625  83.6394703
  86.4688645  49.9979696  83.6379033  86.1955907  48.6793059  84.3295167
  91.6717056  62.1813412  76.4184788  91.8453933  61.6159834  75.6658640
  92.1645947  62.9814307  76.2364278  77.4894016  54.1928081  84.4848347
  76.9447484  54.9687889  84.6168621  78.3673366  54.5398886  84.3267468
  84.2781632  47.5239665  76.8629145  84.3997544  46.5956311  77.0620033
  83.9883675  47.5378351  75.9507461  87.1472823  45.2094575  79.9995865
  87.1694520  45.2733908  79.0447845  87.5640882  44.3699084  80.1936371
  97.5256447  54.9449835  78.0375088  97.9687593  54.1957160  77.6394211
  96.6482957  54.9359971  77.6548820  92.6592228  61.4980176  73.5181686
  93.3543133  62.1186869  73.7369001  93.0015378  60.6475528  73.7934064
  78.2760038  53.3197977  87.3778504  77.5341774  53.4680613  87.9643134
  77.9552782  53.5806243  86.5145253  94.5583651  58.9479882  75.0469017
  95.0834976  59.2867155  74.3218337  94.4706004  58.0126897  74.8632152
  86.2203700  62.8613956  87.1758894  86.5290827  62.6163102  88.0481593
  87.0179182  63.0660594  86.6877764  86.2424312  65.0151865  79.4064270
  85.8029303  64.5228244  80.0997127  86.9932429  64.4724833  79.1656345
  78.7216651  61.2063406  79.4088898  79.5474671  60.9067178  79.0287542
  78.3710703  60.4371029  79.8578687  83.6898184  60.5589874  81.4786572
  83.0678194  59.8960579  81.1788800  84.3603051  60.5851006  80.7960220
  76.9225256  59.1249733  80.3677832  76.0857165  58.6971907  80.1861833
  76.8948902  59.3182176  81.3048623  83.7622712  49.0371662  91.0719078
  83.8110867  49.9133785  90.6896847  84.3045226  48.4949055  90.4990721
  94.2477558  59.5812786  90.3520215  93.4573101  59.5636924  89.8124714
  94.0110912  60.1201079  91.1069252  94.3675433  56.4305252  87.6652943
  94.4173438  56.2655259  88.6068466  94.2589356  55.5632511  87.2750824
  83.2511691  59.1093798  74.9545032  83.3999812  59.7929262  74.3011705
  84.0578135  59.0898888  75.4694488  91.6579195  52.4136180  88.9812250
  92.5589058  52.2742645  88.6896248  91.7327169  52.5790635  89.9210428
  85.9922000  49.7903035  87.8265436  85.1225310  50.0836601  87.5548025
  86.2281481  50.3743480  88.5472700  95.8693629  58.8502193  87.9094965
  95.5778438  59.2132174  88.7458426  95.2565761  58.1369202  87.7308297
  97.0689312  56.4155073  80.4297535  97.9036203  56.8544877  80.5935096
  97.2048441  55.9393726  79.6105781  94.1180818  53.9734808  86.3775023
  94.5934939  54.1662454  85.5693874  93.1946383  54.0293994  86.1318407
  81.0064324  55.1358975  75.9606101  80.7610366  54.2321305  76.1586311
  81.1760239  55.1376126  75.0185579  88.6961034  46.0082652  85.3430857
  89.2142978  46.7443679  85.0177345  88.3416167  46.3146645  86.1777616
  80.2759972  50.8687333  73.4592263  79.5829217  50.9431688  72.8032299
  80.0311724  50.1047676  73.9813780  88.9473628  42.4282934  80.8631753
  89.2275382  41.7606123  81.4892180  89.7324235  42.6212030  80.3506417
  86.7507097  61.6041928  72.4256780  86.1781064  62.2232115  71.9727252
  87.3239890  62.1541290  72.9596702  92.8182487  50.8500568  84.6103329
  93.7699910  50.9498666  84.6315553  92.6485937  50.0578837  85.1201413
  90.8396866  47.9356151  84.7962730  90.2446798  48.2161164  84.1009218
  90.5546563  48.4250052  85.5679471  89.9704357  61.8879078  73.5565362
  90.9035030  61.8224640  73.7598238  89.8827569  62.7235345  73.0979895
  92.5992373  61.2044949  70.5169310  92.5206005  60.8704812  71.4105068
  93.4202040  61.6966716  70.5160782  95.2970564  54.0706688  83.7245628
  95.2646885  53.1322689  83.9105312  95.9071188  54.1490725  82.9911453
  87.1353895  52.9402741  69.7672832  88.0813000  52.8108949  69.8361250
  86.7568140  52.2017403  70.2442260  95.4465053  50.8617731  83.7703911
  94.9304102  50.0776188  83.5833840  96.3305001  50.5336448  83.9350431
  93.1075780  44.6058747  79.7299724  92.9100601  44.2973835  80.6143056
  93.7175485  45.3320386  79.8597654 101.1147114  55.1322695  82.8651665
 101.8450503  54.8707983  83.4259368 100.5054060  54.3951417  82.9053733
  99.1962411  53.2730557  83.4626116  98.4695575  53.1386522  82.8542608
  98.7809698  53.5807386  84.2682834  87.0192588  56.9920487  91.2273489
  87.9395597  57.1699086  91.4213536  86.9842171  56.0476532  91.0753189
  85.3196812  50.8652717  69.7027718  84.4128268  50.5685830  69.7790431
  85.5972793  50.5682535  68.8362004  76.2374753  52.1859081  80.1526764
  75.9177537  51.3324389  79.8601138  75.6908181  52.4007659  80.9084731
  80.0154660  54.9021522  83.8696270  80.2340670  55.8338629  83.8884304
  80.4280434  54.5429496  84.6551074  86.9358878  45.4089607  75.8571959
  86.1259606  45.0636692  76.2327205  87.6243295  45.0997151  76.4459570
  88.8649426  44.4867654  77.4796255  89.4180465  44.9063107  78.1386279
  89.1019513  43.5603402  77.5219211  84.8882526  50.4754727  93.2599019
  84.7879253  51.4249084  93.1911110  84.6704068  50.1472966  92.3875089
  84.0895597  47.7239652  69.8439697  84.9514761  48.0494551  70.1035514
  84.2745941  46.9371148  69.3312762  76.1063013  55.8061992  82.1219885
  75.4126484  55.3915945  81.6089840  76.8536004  55.8482529  81.5253304
  92.2428234  46.5968179  76.9874920  91.6626903  47.2552983  76.6052972
  91.9764166  45.7745523  76.5762337  90.6931800  45.9973237  79.1896240
  91.1931578  46.1089771  78.3810559  91.3367408  45.6934289  79.8297048
  84.7513796  53.9051866  92.0764081  84.2680877  54.7052226  92.2827970
  84.8374735  53.9159811  91.1231525  78.0199755  55.7380246  79.9985900
  77.9970443  55.8367933  79.0467783  78.3300392  56.5845397  80.3203066
  80.6787133  57.7956401  84.1132515  81.6330387  57.7640343  84.0462446
  80.4799657  57.3347025  84.9282741  81.2686515  56.3657517  86.6803312
  82.0879404  56.8601596  86.7038150  81.5423323  55.4489485  86.6520880
  91.0253112  48.7568269  76.0431268  90.1378967  49.0417920  75.8251463
  91.4407101  48.5962033  75.1958545  94.3767648  48.7814790  79.7585607
  95.1528038  49.2711243  80.0310224  93.6515782  49.2072844  80.2157477
  96.8140206  49.4942409  80.8159548  97.4084697  49.2538145  80.1052856
  96.8866790  48.7749540  81.4433084  79.0337362  63.3376020  81.1302713
  78.8991830  62.5776421  80.5640711  78.6169424  64.0616920  80.6631502
  90.1696325  58.5212944  70.1379288  90.8732175  58.7262946  70.7536944
  89.4458974  59.0889706  70.4028371  90.9994135  54.2722805  76.2581558
  90.9429337  54.7291357  75.4189191  91.5522478  53.5113490  76.0804401
  94.8098941  50.0612537  77.0831678  94.5535875  49.6609173  77.9139885
  94.1851809  50.7756331  76.9581817  99.1211279  52.8008610  79.5902969
  98.5610837  52.8701800  80.3634531  98.5154782  52.6249595  78.8702465
  82.1906488  64.2345337  81.3421155  82.0738872  65.1790770  81.2399846
  81.3698934  63.9318899  81.7306955  92.0783022  58.9595473  72.1877748
  92.9128626  58.5276672  72.0055223  91.9167365  58.7877487  73.1154642
  91.7328915  55.4627586  73.5534087  91.6777718  55.2971858  72.6122531
  91.1074970  56.1703619  73.7096277  76.5221430  50.6995651  87.3795510
  77.1680293  50.1894605  87.8682735  76.3138581  51.4364332  87.9538935
  89.0474822  57.7676498  92.8787650  89.9165981  57.9417151  92.5174285
  88.5681573  58.5870915  92.7563379  85.0425040  44.9635695  73.1319406
  85.0303710  45.9077535  73.2887677  85.9348462  44.7805841  72.8378867
  83.2161002  64.8873599  84.5577084  84.1188249  64.9197210  84.8743579
  82.9898372  63.9574050  84.5723420  84.9714604  63.6404586  81.2187162
  84.0210235  63.6406447  81.1051535  85.2747090  62.8937320  80.7023197
  88.8577160  41.5578472  77.3865342  88.0909555  41.0036959  77.5322025
  89.2687865  41.6300341  78.2479494  80.8618921  47.8463268  91.4770524
  81.7250382  47.4900073  91.6873848  80.2884331  47.5077163  92.1645928
 100.7067298  69.4765124  82.2832925 101.3445707  69.3571872  81.5796265
 100.5888140  70.4245968  82.3420877  97.5157004  69.4292552  82.2194449
  97.1775515  69.3133617  81.3314984  98.3846772  69.0283717  82.1995456
  93.3743820  71.2828029  78.2091340  92.8108685  71.1917966  77.4407628
  93.2596215  70.4627933  78.6893833  97.9976787  70.5827404  88.1780655
  97.9865428  70.1880202  87.3061159  98.1597426  69.8493477  88.7714426
  90.9208251  72.7779220  81.0475561  91.7129543  72.4370045  80.6321860
  91.1604902  72.8874195  81.9677714  98.9543378  74.9498996  73.5205805
  98.3031358  75.5353077  73.1339819  99.7487741  75.4805191  73.5800843
  92.8799005  72.0388134  73.9192940  93.6529881  71.4917121  73.7805815
  93.2324404  72.9032383  74.1307401  94.7184048  73.3664516  87.1259839
  94.4273914  74.2710147  87.0106505  95.3541032  73.4081044  87.8403909
  95.6440255  70.7441364  83.7161199  96.2403827  70.5197387  83.0018162
  95.7015226  70.0026110  84.3186646  95.2165283  68.1980800  71.5511390
  95.4690804  67.6762321  70.7894853  94.2789842  68.0346945  71.6538073
 100.2608566  67.2016578  79.3586133 101.0471655  66.7836001  79.0076550
 100.5247270  68.1062670  79.5267781 100.4318643  72.6389428  74.0574790
  99.7964476  72.7124055  74.7695694 100.1016050  73.2283027  73.3793869
 105.6616993  67.1391811  80.2619111 106.3942165  66.5691028  80.4956941
 104.9056349  66.7513412  80.7025617  94.9361572  70.1008906  73.7535765
  94.8197830  69.4253809  74.4216849  95.0463832  69.6141280  72.9367918
  97.2793113  69.5619053  77.4582454  96.9151320  69.0349674  78.1695375
  98.1360229  69.1717522  77.2848939 103.1842413  60.8513385  84.7213720
 102.8525738  61.7208796  84.4974935 102.5888027  60.5349669  85.4007750
  96.9198600  64.5908953  72.4543802  97.0873002  65.4589189  72.8214273
  96.7295769  64.7536234  71.5305092  99.6773933  73.0525931  84.1209633
  99.3774656  73.9550970  84.0125440  99.3324993  72.7858115  84.9730786
  93.1286415  69.5039728  80.1546337  92.2036911  69.3715942  80.3624029
  93.3770828  70.2833948  80.6516279 103.0771077  65.5708472  81.8007070
 102.1687954  65.5023880  81.5065831 103.0258673  66.0480417  82.6288895
  96.8987821  67.0466610  73.4390469  96.7787446  67.4923661  74.2775949
  96.2040409  67.3951928  72.8804007  90.4895226  69.1473002  80.9890126
  90.6187607  69.4007481  81.9029538  89.8092677  69.7400710  80.6694781
  94.6594713  79.8170252  77.0880600  94.5818743  80.7678077  77.1669081
  94.0556356  79.4716124  77.7455527  97.1511943  66.9898117  89.7441967
  96.3745277  67.5492037  89.7344832  97.7902506  67.4754900  90.2656837
 104.9432723  63.7724910  83.5784944 104.3007103  64.0657443  82.9324738
 104.4387652  63.6577830  84.3838141 102.5972887  67.5188083  74.2670803
 103.5090743  67.7515470  74.0918501 102.0882534  68.1025127  73.7045882
  95.4058315  69.7983571  89.3059934  96.1472999  70.3368615  89.0294758
  94.6995300  70.4249859  89.4631486 100.8813655  71.9412711  87.9032096
 101.2897011  71.4995122  87.1586728 100.1590916  71.3665339  88.1566289
  97.2344725  66.8785318  85.2765653  98.0805920  67.3024731  85.4200302
  97.1743362  66.2218942  85.9704216 101.2042469  72.5013902  81.6584385
 100.5751332  72.6659616  80.9560452 100.8168131  72.9155511  82.4295349
 105.0831701  73.4368339  79.0128748 104.3982739  73.8167241  78.4625782
 105.1675550  74.0463666  79.7460696 100.3844170  64.5389686  86.9346826
 100.1405102  65.2931747  86.3981102 100.6604100  64.9175034  87.7694073
 102.3382633  71.0828299  85.6124092 102.5499528  71.7260058  84.9358473
 102.2912381  70.2490615  85.1446022  99.9408862  63.6946119  82.5160664
  99.0793341  63.9927373  82.8077402  99.9671296  63.9116518  81.5841697
  96.7570431  72.2388310  78.9234470  97.2208777  72.5176013  78.1339092
  96.4927229  71.3371754  78.7407560  93.6494512  71.7859791  81.8614233
  94.2195869  72.2147060  81.2231717  94.2402624  71.5042376  82.5598419
  95.6939317  68.3611462  75.7324035  96.3963360  68.8132506  76.1997961
  95.3619946  67.7195281  76.3603928  94.1419679  66.9523219  90.1075244
  93.5118339  67.6339500  90.3410641  94.0355767  66.8406300  89.1628382
  89.4364651  66.6195015  81.0341168  88.6463705  66.8752543  80.5581279
  89.9275898  67.4343353  81.1393209 103.4528461  73.9600254  83.7846449
 104.2745904  73.5580441  83.5029131 103.4490864  73.8568488  84.7362565
  91.3879396  66.9839594  77.9924645  90.5910560  67.0958288  78.5108141
  91.1604989  67.3226246  77.1265536  97.2185064  73.5084297  85.9407160
  97.2829497  73.9704704  86.7765332  96.5095988  72.8781662  86.0689470
  87.7202354  66.8725505  83.4656159  87.9710392  67.7572515  83.7313735
  88.2561902  66.6930107  82.6931251  96.9333082  75.1752405  75.8086140
  96.7978757  76.0203940  76.2370988  97.4742894  75.3771682  75.0452074
  93.4200421  61.2543985  92.4700495  93.0267367  60.7010183  93.1448140
  94.2366562  61.5654563  92.8607013  90.3862479  72.6927843  76.3814065
  90.8987000  73.4871093  76.5319630  91.0385192  71.9954133  76.3147667
  92.1957364  75.8093599  78.4636818  92.3723992  76.7311564  78.2757802
  92.9914197  75.4952018  78.8931198  96.3368382  62.6701864  90.0620752
  97.0778096  63.2709017  89.9825214  96.5686305  61.9279501  89.5038794
  91.4809720  67.8558231  88.3398982  91.3663236  66.9543488  88.6406080
  90.6254238  68.1021928  87.9883798  98.5601558  75.7975971  89.9386482
  98.1165412  75.0112350  89.6207387  99.2218772  75.9855122  89.2730373
  93.3188679  77.3271773  84.4647161  93.8696104  77.1988836  83.6924155
  92.4800155  77.6266662  84.1142053 100.6582796  76.0778771  87.9667883
 100.6401272  76.8987652  87.4748153 101.5802716  75.9532846  88.1918025
  97.1155850  73.5922901  88.8091392  97.6484187  72.8311189  88.5790700
  96.5869931  73.2996552  89.5515546 100.2825545  58.6982967  84.3385034
  99.9389815  59.5884608  84.2624144 100.6504508  58.5084624  83.4754619
  88.3511396  71.0216497  77.1573636  89.1886618  71.4313505  76.9407343
  88.5289664  70.0815939  77.1273830 100.2475828  68.6891578  72.8457469
  99.7322451  69.4596182  73.0845856  99.9753136  68.0156714  73.4690530
  97.8322939  63.5341278  77.9042707  96.9764535  63.1448129  77.7248346
  98.2449891  63.6133239  77.0442493  99.3622086  61.0687622  82.3034267
  98.8586881  61.0317757  81.4902072  99.6552693  61.9780364  82.3630923
  95.6064972  61.1526351  81.3100449  96.4717968  60.9569160  80.9506338
  95.6742480  60.9236703  82.2369805 105.2210102  71.4423932  74.7810642
 104.4439545  71.1035092  74.3365804 105.9001583  71.4476556  74.1065607
 100.0362131  66.5618670  74.6717250  99.7312267  66.8764819  75.5227393
 100.9892573  66.6400090  74.7144583  98.4808563  72.7208893  76.3210204
  97.9529925  71.9861653  76.0083441  97.9796066  73.4983569  76.0750172
 103.4601409  70.9157914  81.4377250 102.8025084  71.6057175  81.5257379
 104.2641808  71.3054346  81.7811236  93.2127291  63.3828559  78.6816815
  93.7871043  63.1603741  77.9490008  93.7998273  63.4517254  79.4345417
 102.2706868  69.2702286  79.4881192 102.7838750  69.9032278  79.9902902
 102.9208092  68.6703482  79.1224552  93.5396878  65.4133020  72.7012701
  92.7034190  65.7507707  73.0221975  93.4001647  65.2782000  71.7639838
  95.5149958  60.2569808  77.4091885  94.8614371  59.9418825  76.7848500
  95.4730433  59.6345549  78.1351708  96.6261163  70.5389103  69.3245177
  95.7188225  70.3078357  69.5236326  97.1232195  69.7426723  69.5119158
  99.5329242  79.2486611  72.2441863  98.8590941  79.5518307  72.8526821
  99.9195064  80.0515691  71.8947320  98.7487699  66.7451742  81.7339532
  97.8310260  66.9666689  81.5761220  99.1647842  66.8198052  80.8751240
  99.5322746  68.1443158  76.8642213 100.2794565  68.6564555  76.5549335
  99.8014336  67.8227210  77.7246606  97.8049397  70.6401698  73.8469167
  96.8960616  70.3560731  73.9441637  97.8344480  71.0600777  72.9872474
 103.0368664  74.2508288  77.6160334 102.5830991  73.4099198  77.6725525
 102.4062631  74.8869686  77.9535115 101.9801584  65.1800274  78.8461002
 101.2424340  64.6677660  79.1771245 102.2328357  64.7400655  78.0344279
 101.4801603  76.0884784  78.5510153 101.7724578  76.6489842  77.8322518
 101.9900224  76.3813345  79.3063312 102.0813211  57.9576526  79.4402771
 102.3872088  57.0973889  79.1528686 102.8065816  58.5494146  79.2401765
  88.3737567  68.3607212  77.8284369  88.1761967  67.7676573  77.1035436
  87.8184231  68.0559423  78.5460308  96.3534291  68.2530319  79.9478962
  96.4082900  67.3004155  79.8721439  95.5425493  68.4089758  80.4320261
  97.5025484  72.1810442  71.1857246  97.0644914  71.4646301  70.7262883
  98.2435925  72.4086557  70.6242337  94.2926651  66.8707379  77.7069341
  93.4794516  67.1701549  78.1134533  94.7885645  66.4763067  78.4243823
  96.4435229  76.8665136  79.6403606  96.4011407  77.0925982  78.7112138
  97.3597927  76.6328510  79.7889407  99.8900862  67.3349203  86.5384235
 100.2450250  67.5620676  87.3978701 100.5372994  67.6667580  85.9161490
 105.6198599  70.4567639  77.2433564 105.4816498  70.6469235  76.3154753
 105.2634818  71.2187022  77.7001615  93.7840725  64.4425734  83.3230576
  94.4240105  64.3014493  82.6253539  92.9518256  64.1560248  82.9469178
 105.6467979  72.5244166  82.2544836 106.0804486  72.4319455  83.1027890
 106.3599560  72.5001666  81.6164852  94.5601029  73.7428165  79.4365569
  95.3541628  73.2478485  79.2348144  93.8492722  73.2146028  79.0733274
  99.3795874  76.1246260  83.7877936  99.4332896  76.6937196  84.5555652
  98.5110655  76.2948145  83.4231973  90.8683793  67.8871246  75.5125321
  89.9381381  67.8255702  75.7295283  90.9641265  67.3647199  74.7161962
  90.7869342  64.4126059  78.1003563  91.0476159  65.3271392  77.9912723
  91.6086514  63.9450502  78.2500176  92.2594267  65.8263816  85.2702387
  92.9317321  65.6181178  84.6215036  91.4324054  65.6285902  84.8307620
 106.5083528  72.5667867  84.7877721 106.7019419  73.4713677  85.0336996
 106.4084147  72.1075286  85.6216306  98.1619839  62.4525757  87.2868048
  97.5147754  63.1515707  87.1932525  98.9320855  62.8861901  87.6544297
  98.3383974  70.2906522  85.3464868  99.2676034  70.4417682  85.1733835
  97.9175004  70.3790543  84.4913515  97.1372305  74.3157187  83.1163406
  96.9983391  73.9475971  83.9889344  96.3486902  74.8304826  82.9447363
  97.7320457  79.4166283  74.4588942  97.9072213  78.9454326  75.2734565
  97.0453245  80.0432049  74.6870203  98.6877520  73.6938789  80.5052243
  98.3527353  73.6539559  81.4009893  98.1881466  73.0283505  80.0322654
  92.6621764  69.1006419  86.0304825  92.5241562  68.3686658  86.6316364
  93.5726688  69.0115319  85.7489012 101.6236712  71.0394824  70.7789303
 101.0065883  70.3141652  70.6822356 101.1553201  71.8004184  70.4356377
  95.2904065  68.8126379  85.5188504  96.0003684  68.1719571  85.4775123
  95.2473373  69.0639273  86.4414685  94.0032999  65.7991596  87.3384144
  93.4670356  65.3482335  87.9905740  93.4149707  65.9337505  86.5954608
  92.2981543  82.5655646  81.2328802  92.5378141  83.1974170  81.9107821
  91.4550739  82.2143686  81.5194162  93.4135258  65.2580248  69.9010607
  92.5364724  65.1369049  69.5372854  93.8893011  64.4666326  69.6489496
 103.2808251  73.7133316  86.6709063 102.3935030  73.3759238  86.7935462
 103.8506802  72.9816347  86.9077829  84.9337398  70.0457408  79.9952115
  85.6208438  69.7319138  79.4073130  84.7785527  70.9498772  79.7219366
  89.7372120  64.9347604  84.4237138  89.6530309  64.3273274  83.6887548
  88.9154827  65.4256622  84.4246635  96.8109404  78.3734768  83.6370306
  96.7379576  79.1789740  84.1489611  96.3686798  78.5726734  82.8118328
  96.5999184  77.6106538  77.1473128  95.8166706  78.1528218  77.2411352
  97.2991929  78.1280518  77.5467369  99.9095834  63.4201168  79.7907333
 100.4064534  62.6671130  79.4708403  99.1382816  63.4565484  79.2250543
 107.7625592  69.1241533  81.4325625 107.7515468  70.0066249  81.0619558
 106.8942971  68.7713084  81.2380162  99.2708088  78.2721602  85.7928465
  99.9836060  78.9069067  85.7204366  98.7798117  78.3685468  84.9768467
 100.9925615  72.1772855  77.3645757 100.0581894  72.2974317  77.1950461
 101.1702283  71.2745322  77.1005766  96.4930803  65.5618551  79.5179018
  96.1228590  65.0089591  80.2059923  96.9889895  64.9576684  78.9654018
 104.3798166  68.0190174  77.8995791 104.8458618  68.8518166  77.8256093
 104.8305667  67.5535156  78.6041049  94.3220001  76.0216046  86.6134036
  95.0229461  76.6552529  86.7663430  93.8515116  76.3630777  85.8529675
 102.4474397  74.3633995  74.8981943 102.7234241  74.2490590  75.8075817
 101.5778896  73.9651480  74.8594116 102.3514829  60.3870761  81.9386692
 101.4377909  60.6174988  82.1068899 102.7807930  60.4709205  82.7900724
 102.1221287  68.5760653  84.4386586 101.4692738  68.8236561  83.7839039
 102.5001667  67.7624791  84.1049063  99.0828461  78.6120346  78.5414756
  99.2650856  77.7942002  79.0042509  99.9061447  78.8288039  78.1039646
  99.4170627  77.5388531  75.8029805  99.9458393  77.0280986  75.1899967
  99.6798846  77.2231062  76.6675338  98.1708860  69.3180464  90.9252623
  97.4949497  69.2174594  91.5954998  98.9936494  69.1619678  91.3888620
  89.9187720  75.5552401  83.5465138  90.5041156  74.8096089  83.6793043
  89.7212558  75.8656357  84.4301802  92.7726375  78.5903648  78.5627581
  92.1036750  79.0749776  78.0791621  92.6339244  78.8372869  79.4770959
  84.5105374  68.1258001  82.2669582  84.5489474  67.5921592  83.0606700
  84.0045667  67.5993206  81.6480559  96.9131643  80.6247392  85.1610239
  97.4649951  80.7879013  85.9259324  97.2537837  81.2151829  84.4890264
  91.8896137  62.9722541  85.7632124  91.9537463  63.8337372  85.3509522
  91.8263257  62.3596543  85.0304482  91.3648409  65.0445674  89.4105158
  91.9920448  64.6622751  90.0242683  90.5076328  64.8259876  89.7760851
  88.1413952  66.8522103  75.3423513  88.4367393  65.9432782  75.2890567
  87.2401988  66.8309843  75.0204515 100.0500031  78.5729367  82.1473921
  99.9251170  77.7719107  81.6384867 100.7079122  79.0675561  81.6587891
  91.6708199  64.9278100  81.3251062  90.9494785  65.5414067  81.1858535
  92.4601455  65.4635865  81.2467708 102.1134939  76.3738387  83.7753471
 101.1665275  76.2543738  83.7031798 102.4617712  75.4860885  83.8579733
  94.4734512  62.2632526  87.5991713  94.9968914  62.5094823  88.3618023
  94.2546846  63.0952561  87.1794851  89.8701793  64.5336201  75.4662838
  89.5414500  63.6533580  75.2837944  90.2241164  64.4783869  76.3539227
  99.1181372  76.1691103  79.9757824  98.9706335  75.2407811  80.1565394
  99.9434866  76.1911194  79.4914899  92.9843617  64.8209171  75.8338316
  93.3239689  65.3495092  75.1116924  93.4315737  65.1589577  76.6096882
 102.7215494  76.9919662  81.0622696 103.6462042  76.7862524  80.9247148
 102.5530798  76.7436063  81.9712038  95.6787057  63.2046221  85.2841384
  95.3383878  62.4054034  85.6862064  94.9726064  63.5047932  84.7118217
  96.3303529  60.2895534  83.7368707  97.1529599  59.8156012  83.6147597
  96.5741593  61.0686017  84.2367393  94.9711764  63.3183792  74.0331609
  95.6920126  63.6965045  73.5295325  94.3477068  64.0372669  74.1366587
  99.1142887  64.0228941  74.9689941  99.3306501  64.9053579  74.6678769
  98.6336954  63.6315155  74.2395583  93.8542108  66.9814654  81.5460686
  93.7086689  67.2954957  82.4384967  93.3767312  67.5999555  80.9931584
  95.7138491  63.9717202  81.5941575  95.7000060  63.0758296  81.2573873
  96.4310919  63.9787866  82.2279861  97.5664622  64.4054543  83.6394703
  97.3082399  65.3271613  83.6379033  97.0349662  64.0084977  84.3295167
 102.5110810  77.5105330  76.4184788 102.6847688  76.9451752  75.6658640
 103.0039702  78.3106225  76.2364278  88.3287770  69.5219999  84.4848347
  87.7841238  70.2979807  84.6168621  89.2067120  69.8690803  84.3267468
  95.1175387  62.8531583  76.8629145  95.2391298  61.9248229  77.0620033
  94.8277429  62.8670269  75.9507461  97.9866577  60.5386493  79.9995865
  98.0088274  60.6025826  79.0447845  98.4034636  59.6991002  80.1936371
 103.4985983  76.8272094  73.5181686 104.1936887  77.4478787  73.7369001
 103.8409133  75.9767445  73.7934064  89.1153792  68.6489895  87.3778504
  88.3735528  68.7972530  87.9643134  88.7946536  68.9098161  86.5145253
 105.3977406  74.2771800  75.0469017 105.9228730  74.6159072  74.3218337
 105.3099759  73.3418815  74.8632152  97.0597455  78.1905873  87.1758894
  97.3684581  77.9455020  88.0481593  97.8572937  78.3952512  86.6877764
  97.0818067  80.3443783  79.4064270  96.6423057  79.8520162  80.0997127
  97.8326184  79.8016751  79.1656345  89.5610406  76.5355324  79.4088898
  90.3868426  76.2359096  79.0287542  89.2104458  75.7662946  79.8578687
  94.5291939  75.8881792  81.4786572  93.9071948  75.2252497  81.1788800
  95.1996806  75.9142924  80.7960220  87.7619011  74.4541650  80.3677832
  86.9250919  74.0263825  80.1861833  87.7342656  74.6474094  81.3048623
  94.6016466  64.3663580  91.0719078  94.6504622  65.2425703  90.6896847
  95.1438981  63.8240973  90.4990721 105.2069187  71.7597170  87.6652943
 105.2567192  71.5947177  88.6068466 105.0983110  70.8924429  87.2750824
  94.0905446  74.4385715  74.9545032  94.2393566  75.1221180  74.3011705
  94.8971889  74.4190805  75.4694488 102.4972949  67.7428098  88.9812250
 103.3982812  67.6034562  88.6896248 102.5720924  67.9082552  89.9210428
  96.8315755  65.1194952  87.8265436  95.9619064  65.4128518  87.5548025
  97.0675235  65.7035397  88.5472700 104.9574572  69.3026726  86.3775023
 105.4328694  69.4954372  85.5693874 104.0340138  69.3585912  86.1318407
  91.8458079  70.4650893  75.9606101  91.6004121  69.5613223  76.1586311
  92.0153993  70.4668043  75.0185579  99.5354789  61.3374569  85.3430857
 100.0536732  62.0735596  85.0177345  99.1809921  61.6438563  86.1777616
  91.1153726  66.1979251  73.4592263  90.4222971  66.2723606  72.8032299
  90.8705478  65.4339594  73.9813780  99.7867383  57.7574852  80.8631753
 100.0669137  57.0898041  81.4892180 100.5717990  57.9503947  80.3506417
  97.5900851  76.9333846  72.4256780  97.0174818  77.5524033  71.9727252
  98.1633645  77.4833207  72.9596702 103.6576241  66.1792486  84.6103329
 104.6093664  66.2790584  84.6315553 103.4879692  65.3870754  85.1201413
 101.6790621  63.2648069  84.7962730 101.0840553  63.5453082  84.1009218
 101.3940317  63.7541970  85.5679471 100.8098111  77.2170996  73.5565362
 101.7428784  77.1516558  73.7598238 100.7221324  78.0527263  73.0979895
 103.4386128  76.5336866  70.5169310 103.3599759  76.1996730  71.4105068
 104.2595795  77.0258634  70.5160782 106.1364319  69.3998606  83.7245628
 106.1040639  68.4614606  83.9105312 106.7464943  69.4782642  82.9911453
  97.9747650  68.2694659  69.7672832  98.9206755  68.1400867  69.8361250
  97.5961895  67.5309320  70.2442260 106.2858807  66.1909649  83.7703911
 105.7697856  65.4068106  83.5833840 107.1698756  65.8628366  83.9350431
 103.9469534  59.9350665  79.7299724 103.7494355  59.6265753  80.6143056
 104.5569240  60.6612303  79.8597654  97.8586342  72.3212405  91.2273489
  98.7789352  72.4991004  91.4213536  97.8235925  71.3768450  91.0753189
  96.1590567  66.1944635  69.7027718  95.2522022  65.8977748  69.7790431
  96.4366548  65.8974453  68.8362004  87.0768507  67.5150998  80.1526764
  86.7571292  66.6616307  79.8601138  86.5301936  67.7299576  80.9084731
  90.8548415  70.2313439  83.8696270  91.0734425  71.1630547  83.8884304
  91.2674189  69.8721414  84.6551074  97.7752633  60.7381525  75.8571959
  96.9653361  60.3928610  76.2327205  98.4637050  60.4289068  76.4459570
  99.7043181  59.8159571  77.4796255 100.2574220  60.2355025  78.1386279
  99.9413267  58.8895320  77.5219211  95.7276280  65.8046645  93.2599019
  95.6273007  66.7541002  93.1911110  95.5097822  65.4764884  92.3875089
  94.9289352  63.0531570  69.8439697  95.7908516  63.3786468  70.1035514
  95.1139696  62.2663066  69.3312762  86.9456767  71.1353910  82.1219885
  86.2520239  70.7207863  81.6089840  87.6929758  71.1774446  81.5253304
 103.0821988  61.9260097  76.9874920 102.5020657  62.5844901  76.6052972
 102.8157921  61.1037441  76.5762337 101.5325554  61.3265154  79.1896240
 102.0325333  61.4381689  78.3810559 102.1761162  61.0226207  79.8297048
  95.5907550  69.2343784  92.0764081  95.1074632  70.0344144  92.2827970
  95.6768489  69.2451729  91.1231525  88.8593510  71.0672164  79.9985900
  88.8364198  71.1659851  79.0467783  89.1694146  71.9137314  80.3203066
  91.5180888  73.1248319  84.1132515  92.4724141  73.0932261  84.0462446
  91.3193411  72.6638942  84.9282741  92.1080270  71.6949435  86.6803312
  92.9273159  72.1893513  86.7038150  92.3817078  70.7781403  86.6520880
 101.8646866  64.0860187  76.0431268 100.9772721  64.3709838  75.8251463
 102.2800855  63.9253950  75.1958545 105.2161402  64.1106708  79.7585607
 105.9921792  64.6003160  80.0310224 104.4909536  64.5364762  80.2157477
 107.6533961  64.8234327  80.8159548 108.2478452  64.5830063  80.1052856
 107.7260545  64.1041458  81.4433084  89.8731117  78.6667938  81.1302713
  89.7385584  77.9068339  80.5640711  89.4563179  79.3908838  80.6631502
 101.0090080  73.8504862  70.1379288 101.7125930  74.0554864  70.7536944
 100.2852728  74.4181624  70.4028371 101.8387890  69.6014723  76.2581558
 101.7823091  70.0583274  75.4189191 102.3916232  68.8405407  76.0804401
 105.6492696  65.3904455  77.0831678 105.3929630  64.9901090  77.9139885
 105.0245564  66.1048249  76.9581817  93.0300242  79.5637255  81.3421155
  92.9132627  80.5082688  81.2399846  92.2092689  79.2610817  81.7306955
 102.9176777  74.2887391  72.1877748 103.7522381  73.8568589  72.0055223
 102.7561120  74.1169405  73.1154642 102.5722669  70.7919504  73.5534087
 102.5171473  70.6263776  72.6122531 101.9468724  71.4995537  73.7096277
  87.3615184  66.0287569  87.3795510  88.0074048  65.5186522  87.8682735
  87.1532335  66.7656250  87.9538935  95.8818795  60.2927613  73.1319406
  95.8697464  61.2369453  73.2887677  96.7742216  60.1097759  72.8378867
  94.0554757  80.2165517  84.5577084  94.9582003  80.2489127  84.8743579
  93.8292127  79.2865968  84.5723420  95.8108359  78.9696504  81.2187162
  94.8603990  78.9698365  81.1051535  96.1140845  78.2229238  80.7023197
  99.6970914  56.8870390  77.3865342  98.9303310  56.3328876  77.5322025
 100.1081619  56.9592259  78.2479494  91.7012675  63.1755186  91.4770524
  92.5644137  62.8191990  91.6873848  91.1278086  62.8369080  92.1645928
 104.2137574  86.6119946  78.2091340 103.6502439  86.5209883  77.4407628
 104.0989969  85.7919851  78.6893833 103.7192760  87.3680051  73.9192940
 104.4923636  86.8209038  73.7805815 104.0718159  88.2324301  74.1307401
 106.0559038  83.5272717  71.5511390 106.3084558  83.0054239  70.7894853
 105.1183597  83.3638863  71.6538073 105.7755326  85.4300823  73.7535765
 105.6591585  84.7545727  74.4216849 105.8857586  84.9433197  72.9367918
 107.7592354  79.9200870  72.4543802 107.9266757  80.7881107  72.8214273
 107.5689523  80.0828152  71.5305092 103.9680169  84.8331646  80.1546337
 103.0430665  84.7007860  80.3624029 104.2164582  85.6125865  80.6516279
 107.7381575  82.3758528  73.4390469 107.6181200  82.8215578  74.2775949
 107.0434164  82.7243845  72.8804007 101.3288980  84.4764919  80.9890126
 101.4581361  84.7299398  81.9029538 100.6486431  85.0692627  80.6694781
 107.5964186  87.5680227  78.9234470 108.0602531  87.8467930  78.1339092
 107.3320984  86.6663672  78.7407560 106.5333072  83.6903380  75.7324035
 107.2357115  84.1424423  76.1997961 106.2013700  83.0487199  76.3603928
 100.2758406  81.9486932  81.0341168  99.4857460  82.2044461  80.5581279
 100.7669653  82.7635270  81.1393209 102.2273151  82.3131512  77.9924645
 101.4304314  82.4250206  78.5108141 101.9998743  82.6518164  77.1265536
  98.5596109  82.2017423  83.4656159  98.8104147  83.0864433  83.7313735
  99.0955657  82.0222024  82.6931251 107.7726836  90.5044322  75.8086140
 107.6372511  91.3495858  76.2370988 108.3136649  90.7063600  75.0452074
 101.2256234  88.0219760  76.3814065 101.7380754  88.8163011  76.5319630
 101.8778946  87.3246051  76.3147667 103.0351118  91.1385517  78.4636818
 103.2117747  92.0603481  78.2757802 103.8307952  90.8243936  78.8931198
  99.1905150  86.3508415  77.1573636 100.0280372  86.7605423  76.9407343
  99.3683418  85.4107857  77.1273830 106.4458726  76.4818269  81.3100449
 107.3111723  76.2861078  80.9506338 106.5136235  76.2528621  82.2369805
 104.0521045  78.7120477  78.6816815 104.6264797  78.4895659  77.9490008
 104.6392028  78.7809172  79.4345417 104.3790632  80.7424938  72.7012701
 103.5427945  81.0799625  73.0221975 104.2395402  80.6073918  71.7639838
 106.3543713  75.5861726  77.4091885 105.7008125  75.2710743  76.7848500
 106.3124187  74.9637466  78.1351708 107.4654918  85.8681021  69.3245177
 106.5581979  85.6370275  69.5236326 107.9625950  85.0718640  69.5119158
  99.2131322  83.6899130  77.8284369  99.0155721  83.0968491  77.1035436
  98.6577986  83.3851340  78.5460308 107.1928045  83.5822237  79.9478962
 107.2476655  82.6296073  79.8721439 106.3819247  83.7381676  80.4320261
 105.1320405  82.1999296  77.7069341 104.3188271  82.4993467  78.1134533
 105.6279399  81.8054985  78.4243823 104.6234480  79.7717652  83.3230576
 105.2633859  79.6306411  82.6253539 103.7912010  79.4852165  82.9469178
 105.3994784  89.0720082  79.4365569 106.1935382  88.5770402  79.2348144
 104.6886476  88.5437945  79.0733274 101.7077547  83.2163164  75.5125321
 100.7775135  83.1547619  75.7295283 101.8035019  82.6939117  74.7161962
 101.6263096  79.7417977  78.1003563 101.8869914  80.6563310  77.9912723
 102.4480269  79.2742419  78.2500176 104.2529012  80.5872166  69.9010607
 103.3758479  80.4660966  69.5372854 104.7286766  79.7958244  69.6489496
  95.7731153  85.3749325  79.9952115  96.4602192  85.0611055  79.4073130
  95.6179281  86.2790690  79.7219366 100.5765875  80.2639522  84.4237138
 100.4924064  79.6565191  83.6887548  99.7548581  80.7548540  84.4246635
 107.3324557  80.8910468  79.5179018 106.9622345  80.3381509  80.2059923
 107.8283650  80.2868602  78.9654018  95.3499129  83.4549919  82.2669582
  95.3883228  82.9213509  83.0606700  94.8439422  82.9285124  81.6480559
 102.7289891  78.3014459  85.7632124 102.7931218  79.1629290  85.3509522
 102.6657011  77.6888461  85.0304482  98.9807706  82.1814021  75.3423513
  99.2761147  81.2724699  75.2890567  98.0795742  82.1601760  75.0204515
 102.5101953  80.2570017  81.3251062 101.7888539  80.8705985  81.1858535
 103.2995209  80.7927782  81.2467708 100.7095548  79.8628118  75.4662838
 100.3808254  78.9825497  75.2837944 101.0634919  79.8075787  76.3539227
 103.8237371  80.1501088  75.8338316 104.1633444  80.6787009  75.1116924
 104.2709492  80.4881494  76.6096882 107.1697284  75.6187451  83.7368707
 107.9923353  75.1447930  83.6147597 107.4135347  76.3977935  84.2367393
 105.8105518  78.6475710  74.0331609 106.5313881  79.0256963  73.5295325
 105.1870822  79.3664587  74.1366587 104.6935862  82.3106572  81.5460686
 104.5480443  82.6246875  82.4384967 104.2161066  82.9291472  80.9931584
 106.5532245  79.3009120  81.5941575 106.5393814  78.4050213  81.2573873
 107.2704673  79.3079784  82.2279861 105.9569141  78.1823500  76.8629145
 106.0785052  77.2540146  77.0620033 105.6671184  78.1962186  75.9507461
 100.4004160  91.8647241  79.4088898 101.2262180  91.5651013  79.0287542
 100.0498212  91.0954864  79.8578687  98.6012765  89.7833568  80.3677832
  97.7644674  89.3555742  80.1861833  98.5736411  89.9766011  81.3048623
 104.9299200  89.7677633  74.9545032 105.0787321  90.4513097  74.3011705
 105.7365644  89.7482723  75.4694488 102.6851833  85.7942811  75.9606101
 102.4397875  84.8905141  76.1586311 102.8547748  85.7959961  75.0185579
 101.9547481  81.5271168  73.4592263 101.2616726  81.6015523  72.8032299
 101.7099233  80.7631512  73.9813780 106.9984321  81.5236553  69.7027718
 106.0915777  81.2269665  69.7790431 107.2760302  81.2266371  68.8362004
  97.9162262  82.8442916  80.1526764  97.5965046  81.9908224  79.8601138
  97.3695690  83.0591494  80.9084731 105.7683106  78.3823488  69.8439697
 106.6302270  78.7078386  70.1035514 105.9533450  77.5954984  69.3312762
  97.7850522  86.4645827  82.1219885  97.0913993  86.0499780  81.6089840
  98.5323513  86.5066364  81.5253304  99.6987264  86.3964081  79.9985900
  99.6757952  86.4951769  79.0467783 100.0087901  87.2429232  80.3203066
 106.7212549  75.6219531  73.1319406 106.7091219  76.5661371  73.2887677
 107.6135971  75.4389676  72.8378867  48.9406526  -1.7449902  67.9574109
  49.1803124  -1.1131378  68.6353128  48.0975722  -2.0961862  68.2439468
  60.8562557   2.3014398  64.9336647  60.2927422   2.2104335  64.1652935
  60.7414952   1.4814303  65.4139140  58.4026989   3.7965590  67.7720867
  59.1948281   3.4556415  67.3567167  58.6423639   3.9060565  68.6923021
  66.4362116   5.9685366  60.2451112  65.7850096   6.5539446  59.8585126
  67.2306479   6.4991561  60.3046149  60.3617743   3.0574503  60.6438246
  61.1348619   2.5103490  60.5051122  60.7143142   3.9218753  60.8552708
  62.2002786   4.3850885  73.8505146  61.9092652   5.2896516  73.7351812
  62.8359770   4.4267413  74.5649215  63.1258993   1.7627734  70.4406505
  63.7222565   1.5383756  69.7263468  63.1833964   1.0212479  71.0431953
  67.9137381   3.6575798  60.7820096  67.2783214   3.7310425  61.4941001
  67.5834788   4.2469397  60.1039175  62.4180310   1.1195275  60.4781071
  62.3016568   0.4440179  61.1462155  62.5282570   0.6327649  59.6613224
  67.1592671   4.0712301  70.8454939  66.8593394   4.9737340  70.7370746
  66.8143730   3.8044484  71.6976092  60.6105152   0.5226098  66.8791644
  59.6855649   0.3902312  67.0869335  60.8589566   1.3020317  67.3761586
  57.9713963   0.1659371  67.7135433  58.1006345   0.4193850  68.6274844
  57.2911415   0.7587079  67.3940088  62.1413451  10.8356621  63.8125907
  62.0637480  11.7864446  63.8914388  61.5375094  10.4902494  64.4700833
  62.8877053   0.8169940  76.0305241  63.6291737   1.3554984  75.7540064
  62.1814038   1.4436229  76.1876793  68.3632392   2.9599081  74.6277402
  68.7715748   2.5181491  73.8832035  67.6409654   2.3851708  74.8811595
  68.6861207   3.5200271  68.3829691  68.0570069   3.6845985  67.6805759
  68.2986869   3.9341881  69.1540655  72.5650439   4.4554709  65.7374055
  71.8801477   4.8353610  65.1871088  72.6494288   5.0650036  66.4706003
  64.2389169   3.2574679  65.6479776  64.7027514   3.5362382  64.8584399
  63.9745967   2.3558124  65.4652867  61.1313250   2.8046161  68.5859540
  61.7014607   3.2333429  67.9477024  61.7221362   2.5228746  69.2843725
  70.9347198   4.9786624  70.5091756  71.7564642   4.5766811  70.2274437
  70.9309601   4.8754858  71.4607872  64.7003802   4.5270667  72.6652466
  64.7648234   4.9891074  73.5010638  63.9914726   3.8968032  72.7934776
  55.2021092  -2.1088125  70.1901466  55.4529130  -1.2241115  70.4559042
  55.7380640  -2.2883524  69.4176558  64.4151820   6.1938774  62.5331447
  64.2797494   7.0390310  62.9616295  64.9561632   6.3958052  61.7697380
  57.8681217   3.7114212  63.1059372  58.3805737   4.5057463  63.2564936
  58.5203930   3.0140503  63.0392973  59.6776102   6.8279969  65.1882125
  59.8542730   7.7497933  65.0003109  60.4732935   6.5138388  65.6176505
  66.0420296   6.8162341  76.6631789  65.5984150   6.0298719  76.3452693
  66.7037509   7.0041491  75.9975680  60.8007417   8.3458142  71.1892467
  61.3514842   8.2175206  70.4169461  59.9618893   8.6453031  70.8387360
  68.1401534   7.0965141  74.6913190  68.1220009   7.9174022  74.1993459
  69.0621454   6.9719216  74.9163331  64.5974588   4.6109270  75.5336698
  65.1302925   3.8497558  75.3036006  64.0688669   4.3182922  76.2760853
  55.8330134   2.0402867  63.8818942  56.6705356   2.4499875  63.6652650
  56.0108401   1.1002309  63.8519136  65.9627301   3.7395263  63.0455510
  65.4348662   3.0048022  62.7328748  65.4614804   4.5169939  62.7995479
  64.1079901   1.5575473  56.0490483  63.2006963   1.3264726  56.2481632
  64.6050933   0.7613092  56.2364465  67.0147980  10.2672980  58.9687170
  66.3409679  10.5704677  59.5772127  67.4013802  11.0702060  58.6192627
  65.2868134   1.6588068  60.5714474  64.3779354   1.3747101  60.6686943
  65.3163218   2.0787146  59.7117780  70.5187402   5.2694657  64.3405641
  70.0649729   4.4285567  64.3970832  69.8881369   5.9056056  64.6780421
  68.9620341   7.1071154  65.2755459  69.2543315   7.6676211  64.5567825
  69.4718962   7.3999715  66.0308618  55.8556305  -0.6206418  64.5529676
  55.6580705  -1.2137057  63.8280742  55.3002969  -0.9254208  65.2705615
  64.9844222   3.1996811  57.9102552  64.5463652   2.4832670  57.4508189
  65.7254663   3.4272926  57.3487644  63.9253966   7.8851505  66.3648912
  63.8830145   8.1112351  65.4357444  64.8416665   7.6514880  66.5134714
  62.0419767   4.7614534  66.1610875  62.8360366   4.2664854  65.9593450
  61.3311459   4.2332397  65.7978581  66.8614612   7.1432630  70.5123243
  66.9151634   7.7123566  71.2800959  65.9929393   7.3134515  70.1477280
  69.0517375   3.7360979  77.0863908  68.9002881   3.5071531  76.1693992
  69.0422054   4.6931580  77.0995253  65.8202711   1.3092892  72.0710175
  66.7494771   1.4604051  71.8979142  65.3993741   1.3976912  71.2158821
  64.6191043   5.3343556  69.8408712  64.4802129   4.9662340  70.7134650
  63.8305639   5.8491196  69.6692670  65.2139195  10.4352653  61.1834249
  65.3890951   9.9640696  61.9979871  64.5271983  11.0618419  61.4115510
  66.1696258   4.7125159  67.2297550  65.8346091   4.6725929  68.1255200
  65.6700204   4.0469875  66.7567960  60.1440502   0.1192789  72.7550131
  60.0060300  -0.6126972  73.3561670  61.0545426   0.0301689  72.4734319
  70.7609582   6.7680101  75.1640390  70.7022128   6.0839322  74.4970973
  71.1629100   7.5099091  74.7121016  59.7800280  13.5842015  67.9574109
  60.0196879  14.2160539  68.6353128  58.9369477  13.2330055  68.2439468
  70.7626989   4.7319685  73.3954370  69.8753768   4.3945607  73.5180769
  71.3325540   4.0002717  73.6323135  52.4156136   1.0643777  66.7197421
  53.1027176   0.7505507  66.1318436  52.2604265   1.9685142  66.4464673
  64.2928142   9.3921138  70.3615613  64.2198314  10.1976109  70.8734918
  63.8505535   9.5913104  69.5363634  64.0817922   8.6292908  63.8718434
  63.2985444   9.1714588  63.9656659  64.7810667   9.1466887  64.2712676
  66.7526826   9.2907972  72.5173772  67.4654798   9.9255437  72.4449673
  66.2616854   9.3871838  71.7013773  68.4744353   3.1959224  64.0891063
  67.5400631   3.3160687  63.9195768  68.6521021   2.2931691  63.8251073
  61.8038739   7.0402415  73.3379342  62.5048199   7.6738898  73.4908737
  61.3333854   7.3817147  72.5774982  69.9293135   5.3820365  61.6227249
  70.2052979   5.2676960  62.5321124  69.0597634   4.9837850  61.5839423
  66.5647199   9.6306716  65.2660063  66.7469594   8.8128372  65.7287815
  67.3880185   9.8474408  64.8284953  66.8989365   8.5574901  62.5275112
  67.4277131   8.0467356  61.9145274  67.1617584   8.2417431  63.3920645
  57.4006457   6.5738770  70.2710445  57.9859894   5.8282458  70.4038349
  57.2031296   6.8842727  71.1547109  60.2545113   9.6090018  65.2872887
  59.5855488  10.0936145  64.8036928  60.1157982   9.8559238  66.2016266
  51.9924112  -0.8555629  68.9914888  52.0308212  -1.3892039  69.7852006
  51.4864405  -1.3820424  68.3725865  64.3950381  11.6433761  71.8855546
  64.9468689  11.8065383  72.6504631  64.7356575  12.2338199  71.2135571
  69.2461255   6.4695019  77.7404200  69.7901159   7.0824977  77.2459155
  68.6648100   7.0274597  78.2571213  67.5318768   9.5915737  68.8719228
  67.4069908   8.7905477  68.3630174  68.1897860  10.0861930  68.3833198
  69.5953677   7.3924757  70.4998778  68.6484012   7.2730108  70.4277105
  69.9436450   6.5047255  70.5825040  66.6000110   7.1877473  66.7003130
  66.4525073   6.2594180  66.8810700  67.4253604   7.2097564  66.2160206
  70.2034232   8.0106032  67.7868003  71.1280779   7.8048893  67.6492454
  70.0349535   7.7622433  68.6957345  69.9929548   8.5291699  63.1430095
  70.1666426   7.9638122  62.3903947  70.4858439   9.3292594  62.9609584
  55.8106508   0.5406368  71.2093653  55.2659976   1.3166176  71.3413928
  56.6885858   0.8877173  71.0512775  70.9804721   7.8458464  60.2426993
  71.6755625   8.4665156  60.4614307  71.3227871   6.9953815  60.5179371
  56.5972530  -0.3323735  74.1023810  55.8554266  -0.1841100  74.6888441
  56.2765274  -0.0715470  73.2390560  72.8796144   5.2958169  61.7714324
  73.4047468   5.6345442  61.0463644  72.7918496   4.3605184  61.5877458
  64.5416192   9.2092243  73.9004200  64.8503319   8.9641390  74.7726900
  65.3391674   9.4138881  73.4123070  64.5636804  11.3630152  66.1309577
  64.1241795  10.8706531  66.8242433  65.3144921  10.8203120  65.8901652
  57.0429143   7.5541693  66.1334205  57.8687163   7.2545465  65.7532848
  56.6923195   6.7849316  66.5823994  62.0110677   6.9068162  68.2031878
  61.3890686   6.2438867  67.9034106  62.6815544   6.9329293  67.5205526
  55.2437749   5.4728020  67.0923138  54.4069657   5.0450194  66.9107140
  55.2161394   5.6660463  68.0293930  72.5690050   5.9291073  77.0765522
  71.7785594   5.9115212  76.5370021  72.3323404   6.4679367  77.8314558
  61.5724184   5.4572085  61.6790339  61.7212304   6.1407549  61.0257012
  62.3790627   5.4377175  62.1939795  74.1906122   5.1980481  74.6340272
  73.8990930   5.5610461  75.4703733  73.5778253   4.4847489  74.4553604
  59.3276817   1.4837263  62.6851408  59.0822858   0.5799593  62.8831618
  59.4972731   1.4854413  61.7430886  65.0719589   7.9520215  59.1502086
  64.4993556   8.5710402  58.6972558  65.6452383   8.5019577  59.6842008
  68.2916849   8.2357365  60.2810669  69.2247522   8.1702927  60.4843544
  68.2040062   9.0713632  59.8225201  70.9204866   7.5523236  57.2414616
  70.8418497   7.2183099  58.1350374  71.7414532   8.0445004  57.2406089
  65.3405080   3.3398774  77.9518796  66.2608090   3.5177373  78.1458842
  65.3054663   2.3954820  77.7998495  54.5587245  -1.4662632  66.8772071
  54.2390029  -2.3197324  66.5846445  54.0120673  -1.2514054  67.6330038
  58.3367153   1.2499809  70.5941577  58.5553162   2.1816917  70.6129611
  58.7492926   0.8907783  71.3796381  54.4275505   2.1540279  68.8465192
  53.7338977   1.7394232  68.3335147  55.1748496   2.1960816  68.2498611
  63.0726288   0.2530153  78.8009388  62.5893370   1.0530514  79.0073277
  63.1587227   0.2638098  77.8476832  56.3412248   2.0858533  66.7231207
  56.3182936   2.1846220  65.7713090  56.6512884   2.9323684  67.0448373
  58.9999626   4.1434688  70.8377821  59.9542879   4.1118631  70.7707753
  58.8012149   3.6825312  71.6528047  59.5899008   2.7135804  73.4048619
  60.4091897   3.2079883  73.4283456  59.8635815   1.7967772  73.3766187
  57.3549854   9.6854308  67.8548019  57.2204322   8.9254709  67.2886017
  56.9381917  10.4095208  67.3876808  68.4908817   4.8691231  56.8624595
  69.1944667   5.0741234  57.4782250  67.7671466   5.4367993  57.1273678
  60.5118980  10.5823625  68.0666462  60.3951364  11.5269057  67.9645152
  59.6911426  10.2797186  68.4552261  70.3995515   5.3073760  58.9123055
  71.2341119   4.8754959  58.7300529  70.2379858   5.1355774  59.8399949
  67.3687314   4.1154786  79.6032957  68.2378474   4.2895438  79.2419592
  66.8894066   4.9349202  79.4808686  61.5373494  11.2351887  71.2822390
  62.4400741  11.2675497  71.5988885  61.3110864  10.3052338  71.2968726
  63.2927096   9.9882873  67.9432469  62.3422727   9.9884735  67.8296841
  63.5959582   9.2415608  67.4268504  79.0279790  15.8243412  69.0078231
  79.6658200  15.7050159  68.3041571  78.9100633  16.7724255  69.0666184
  75.8369496  15.7770840  68.9439756  75.4988008  15.6611904  68.0560291
  76.7059264  15.3762005  68.9240762  71.6956312  17.6306316  64.9336647
  71.1321177  17.5396253  64.1652935  71.5808707  16.8106220  65.4139140
  76.3189279  16.9305691  74.9025962  76.3077920  16.5358490  74.0306465
  76.4809919  16.1971764  75.4959733  69.2420744  19.1257508  67.7720867
  70.0342036  18.7848332  67.3567167  69.4817394  19.2352483  68.6923021
  77.2755871  21.2977284  60.2451112  76.6243850  21.8831364  59.8585126
  78.0700233  21.8283479  60.3046149  71.2011498  18.3866421  60.6438246
  71.9742374  17.8395408  60.5051122  71.5536897  19.2510670  60.8552708
  73.0396540  19.7142803  73.8505146  72.7486406  20.6188434  73.7351812
  73.6753525  19.7559331  74.5649215  73.9652747  17.0919652  70.4406505
  74.5616319  16.8675674  69.7263468  74.0227719  16.3504397  71.0431953
  73.5377775  14.5459087  58.2756696  73.7903296  14.0240608  57.5140159
  72.6002335  14.3825232  58.3783380  78.5821058  13.5494865  66.0831439
  79.3684148  13.1314289  65.7321856  78.8459763  14.4540958  66.2513088
  78.7531136  18.9867716  60.7820096  78.1176969  19.0602342  61.4941001
  78.4228542  19.5761315  60.1039175  83.9829485  13.4870099  66.9864418
  84.7154657  12.9169315  67.2202247  83.2268841  13.0991699  67.4270924
  73.2574064  16.4487193  60.4781071  73.1410322  15.7732096  61.1462155
  73.3676324  15.9619567  59.6613224  75.6005605  15.9097340  64.1827760
  75.2363812  15.3827961  64.8940682  76.4572721  15.5195809  64.0094246
  81.5054906   7.1991673  71.4459027  81.1738231   8.0687084  71.2220242
  80.9100519   6.8827957  72.1253057  75.2411092  10.9387240  59.1789109
  75.4085494  11.8067476  59.5459580  75.0508261  11.1014521  58.2550398
  77.9986425  19.4004219  70.8454939  77.6987148  20.3029257  70.7370746
  77.6537485  19.1336402  71.6976092  71.4498907  15.8518016  66.8791644
  70.5249403  15.7194230  67.0869335  71.6983320  16.6312235  67.3761586
  81.3983569  11.9186759  68.5252377  80.4900446  11.8502167  68.2311138
  81.3471165  12.3958704  69.3534202  75.2200313  13.3944897  60.1635776
  75.0999938  13.8401948  61.0021256  74.5252901  13.7430215  59.6049314
  68.8107718  15.4951289  67.7135433  68.9400099  15.7485768  68.6274844
  68.1305169  16.0878997  67.3940088  72.9807205  26.1648539  63.8125907
  72.9031235  27.1156364  63.8914388  72.3768849  25.8194412  64.4700833
  75.4724435  13.3376404  76.4687274  74.6957769  13.8970325  76.4590139
  76.1114998  13.8233187  76.9902144  83.2645216  10.1203197  70.3030251
  82.6219596  10.4135730  69.6570045  82.7600144  10.0056118  71.1083447
  80.9185379  13.8666370  60.9916110  81.8303235  14.0993757  60.8163807
  80.4095026  14.4503415  60.4291188  73.7270807  16.1461858  76.0305241
  74.4685492  16.6846902  75.7540064  73.0207793  16.7728147  76.1876793
  79.2026147  18.2890998  74.6277402  79.6109503  17.8473409  73.8832035
  78.4803408  17.7143626  74.8811595  75.5557217  13.2263605  72.0010959
  76.4018412  13.6503019  72.1445608  75.4955855  12.5697229  72.6949522
  79.5254961  18.8492189  68.3829691  78.8963824  19.0137903  67.6805759
  79.1380624  19.2633798  69.1540655  83.4044193  19.7846627  65.7374055
  82.7195232  20.1645528  65.1871088  83.4888043  20.3941953  66.4706003
  78.7056662  10.8867973  73.6592133  78.4617594  11.6410034  73.1226409
  78.9816593  11.2653321  74.4939380  80.6595125  17.4306586  72.3369399
  80.8712020  18.0738346  71.6603780  80.6124873  16.5968902  71.8691329
  78.2621354  10.0424406  69.2405971  77.4005833  10.3405660  69.5322708
  78.2883789  10.2594805  68.3087003  75.0782923  18.5866597  65.6479776
  75.5421269  18.8654300  64.8584399  74.8139721  17.6850042  65.4652867
  71.9707004  18.1338079  68.5859540  72.5408361  18.5625347  67.9477024
  72.5615116  17.8520663  69.2843725  74.0151809  14.7089749  62.4569341
  74.7175853  15.1610793  62.9243268  73.6832438  14.0673568  63.0849235
  72.4632171  13.3001506  76.8320551  71.8330832  13.9817787  77.0655948
  72.3568259  13.1884588  75.8873689  67.7577143  12.9673302  67.7586475
  66.9676197  13.2230831  67.2826586  68.2488391  13.7821640  67.8638516
  81.7740953  20.3078541  70.5091756  82.5958397  19.9058728  70.2274437
  81.7703356  20.2046775  71.4607872  69.7091889  13.3317881  64.7169952
  68.9123052  13.4436576  65.2353447  69.4817481  13.6704533  63.8510842
  75.5397556  19.8562584  72.6652466  75.6041989  20.3182992  73.5010638
  74.8308480  19.2259949  72.7934776  66.0414846  13.2203792  70.1901466
  66.2922885  14.1050802  70.4559042  66.5774395  13.0408394  69.4176558
  89.8646946  16.6517290  66.8576727  89.1110654  16.0824688  66.7020732
  89.9994487  16.6179954  67.8047362  75.2545574  21.5230692  62.5331447
  75.1191249  22.3682228  62.9616295  75.7955387  21.7249970  61.7697380
  71.7412914   7.6022272  79.1945802  71.3479859   7.0488470  79.8693446
  72.5579054   7.9132850  79.5852319  68.7074971  19.0406130  63.1059372
  69.2199492  19.8349380  63.2564936  69.3597684  18.3432420  63.0392973
  70.5169856  22.1571886  65.1882125  70.6936484  23.0789851  65.0003109
  71.3126690  21.8430305  65.6176505  74.6580875   9.0180151  76.7866058
  75.3990588   9.6187304  76.7070521  74.8898797   8.2757789  76.2284101
  69.8022213  14.2036518  75.0644288  69.6875728  13.3021775  75.3651387
  68.9466730  14.4500215  74.7129105  76.8814050  22.1454258  76.6631789
  76.4377905  21.3590637  76.3452693  77.5431264  22.3333409  75.9975680
  71.6401172  23.6750060  71.1892467  72.1908597  23.5467123  70.4169461
  70.8012647  23.9744949  70.8387360  78.9795288  22.4257058  74.6913190
  78.9613764  23.2465939  74.1993459  79.9015209  22.3011134  74.9163331
  75.4368343  19.9401188  75.5336698  75.9696679  19.1789476  75.3036006
  74.9082424  19.6474840  76.2760853  66.6723888  17.3694784  63.8818942
  67.5099110  17.7791793  63.6652650  66.8502156  16.4294226  63.8519136
  78.5688320  15.0369865  59.5702775  78.0534944  15.8074470  59.8091163
  78.2965629  14.3635001  60.1935837  76.1535431   9.8819566  64.6288014
  75.2977028   9.4926416  64.4493652  76.5662383   9.9611527  63.7687799
  77.6834578   7.4165909  69.0279573  77.1799374   7.3796044  68.2147379
  77.9765185   8.3258652  69.0876230  73.9277464   7.5004639  68.0345755
  74.7930461   7.3047447  67.6751645  73.9954973   7.2714990  68.9615112
  83.5422594  17.7902220  61.5055949  82.7652037  17.4513379  61.0611111
  84.2214075  17.7954843  60.8310914  78.3574623  12.9096957  61.3962556
  78.0524759  13.2243106  62.2472700  79.3105066  12.9878377  61.4389889
  76.8021055  19.0687180  63.0455510  76.2742417  18.3339940  62.7328748
  76.3008558  19.8461857  62.7995479  81.7813901  17.2636201  68.1622557
  81.1237576  17.9535462  68.2502685  82.5854301  17.6532633  68.5056543
  71.5339783   9.7306847  65.4062122  72.1083535   9.5082028  64.6735315
  72.1210765   9.7995541  66.1590723  80.5919360  15.6180574  66.2126498
  81.1051242  16.2510565  66.7148208  81.2420584  15.0181769  65.8469858
  71.8609370  11.7611308  59.4258007  71.0246682  12.0985994  59.7467282
  71.7214140  11.6260287  58.4885144  73.8362451   6.6048096  64.1337191
  73.1826863   6.2897113  63.5093806  73.7942925   5.9823836  64.8597014
  74.9473656  16.8867391  56.0490483  74.0400717  16.6556644  56.2481632
  75.4444687  16.0905010  56.2364465  77.8541734  25.5964898  58.9687170
  77.1803433  25.8996595  59.5772127  78.2407556  26.3993978  58.6192627
  77.0700191  13.0930029  68.4584839  76.1522752  13.3144976  68.3006527
  77.4860335  13.1676340  67.5996546  77.8535239  14.4921445  63.5887519
  78.6007058  15.0042842  63.2794641  78.1226828  14.1705498  64.4491913
  76.1261889  16.9879986  60.5714474  75.2173108  16.7039018  60.6686943
  76.1556973  17.4079064  59.7117780  81.3581156  20.5986575  64.3405641
  80.9043483  19.7577485  64.3970832  80.7275123  21.2347973  64.6780421
  80.3014076  11.5278561  65.5706309  79.5636833  11.0155947  65.9016551
  80.5540849  11.0878943  64.7589585  79.8014096  22.4363072  65.2755459
  80.0937070  22.9968129  64.5567825  80.3112716  22.7291633  66.0308618
  66.6950059  14.7085500  64.5529676  66.4974459  14.1154860  63.8280742
  66.1396723  14.4037710  65.2705615  74.6746783  14.6008606  66.6724269
  74.7295393  13.6482443  66.5966745  73.8637985  14.7568045  67.1565567
  75.8237977  18.5288729  57.9102552  75.3857407  17.8124588  57.4508189
  76.5648418  18.7564844  57.3487644  72.6139143  13.2185666  64.4314648
  71.8007008  13.5179836  64.8379840  73.1098137  12.8241355  65.1489130
  74.7647721  23.2143423  66.3648912  74.7223900  23.4404269  65.4357444
  75.6810420  22.9806797  66.5134714  78.2113355  13.6827490  73.2629542
  78.5662742  13.9098963  74.1224007  78.8585486  14.0145867  72.6406797
  83.9411092  16.8045926  63.9678871  83.8028990  16.9947522  63.0400060
  83.5847310  17.5665309  64.4246922  72.1053218  10.7904021  70.0475883
  72.7452597  10.6492780  69.3498846  71.2730748  10.5038535  69.6714485
  83.9680471  18.8722453  68.9790142  84.4016978  18.7797742  69.8273196
  84.6812052  18.8479954  68.3410158  72.8813522  20.0906452  66.1610875
  73.6754120  19.5956772  65.9593450  72.1705214  19.5624315  65.7978581
  77.7008366  22.4724547  70.5123243  77.7545388  23.0415484  71.2800959
  76.8323147  22.6426432  70.1477280  69.1896285  14.2349534  62.2370628
  68.2593873  14.1733989  62.4540590  69.2853757  13.7125486  61.4407269
  69.1081834  10.7604346  64.8248870  69.3688651  11.6749680  64.7158030
  69.9299006  10.2928789  64.9745482  70.5806759  12.1742104  71.9947694
  71.2529813  11.9659466  71.3460343  69.7536546  11.9764190  71.5552926
  84.8296021  18.9146154  71.5123028  85.0231911  19.8191964  71.7582303
  84.7296639  18.4553573  72.3461613  76.4832331   8.8004044  74.0113355
  75.8360246   9.4993994  73.9177831  77.2533347   9.2340188  74.3789603
  79.8911129  19.0652897  77.0863908  79.7396636  18.8363448  76.1693992
  79.8815809  20.0223498  77.0995253  76.6596466  16.6384809  72.0710175
  77.5888526  16.7895969  71.8979142  76.2387496  16.7268830  71.2158821
  75.4584798  20.6635474  69.8408712  75.3195883  20.2954258  70.7134650
  74.6699394  21.1783113  69.6692670  76.0532950  25.7644570  61.1834249
  76.2284705  25.2932613  61.9979871  75.3665738  26.3910336  61.4115510
  77.0090013  20.0417076  67.2297550  76.6739845  20.0017846  68.1255200
  76.5093958  19.3761792  66.7567960  70.9834257  15.4484707  72.7550131
  70.8454055  14.7164945  73.3561670  71.8939180  15.3593607  72.4734319
  79.9449204  17.3873111  57.5034610  79.3278375  16.6619939  57.4067662
  79.4765693  18.1482471  57.1601684  73.6116557  15.1604666  72.2433811
  74.3216176  14.5197858  72.2020429  73.5685866  15.4117561  73.1659992
  81.6003336  22.0972019  75.1640390  81.5415882  21.4131239  74.4970973
  82.0022854  22.8391009  74.7121016  72.3245491  12.1469884  74.0629450
  71.7882848  11.6960622  74.7151047  71.7362200  12.2815793  73.3199915
  70.6194035  28.9133933  67.9574109  70.8590633  29.5452457  68.6353128
  69.7763231  28.5621973  68.2439468  71.7347750  11.6058535  56.6255914
  70.8577217  11.4847336  56.2618161  72.2105503  10.8144613  56.3734803
  81.6020743  20.0611603  73.3954370  80.7147522  19.7237525  73.5180769
  82.1719294  19.3294634  73.6323135  63.2549890  16.3935695  66.7197421
  63.9420930  16.0797425  66.1318436  63.0998019  17.2977059  66.4464673
  68.0584613  11.2825891  71.1482445  67.9742801  10.6751561  70.4132855
  67.2367319  11.7734910  71.1491941  75.1321897  24.7213055  70.3615613
  75.0592068  25.5268027  70.8734918  74.6899290  24.9205021  69.5363634
  74.9211676  23.9584825  63.8718434  74.1379198  24.5006506  63.9656659
  75.6204421  24.4758805  64.2712676  78.2308326   9.7679455  66.5152640
  78.7277026   9.0149417  66.1953710  77.4595308   9.8043772  65.9495849
  86.0838084  15.4719820  68.1570931  86.0727960  16.3544536  67.7864864
  85.2155463  15.1191371  67.9625468  77.5920580  24.6199889  72.5173772
  78.3048552  25.2547354  72.4449673  77.1010609  24.7163755  71.7013773
  79.3138107  18.5251142  64.0891063  78.3794386  18.6452605  63.9195768
  79.4914776  17.6223609  63.8251073  74.8143295  11.9096838  66.2424324
  74.4441083  11.3567878  66.9305230  75.3102388  11.3054971  65.6899325
  82.7010658  14.3668461  64.6241097  83.1671111  15.1996453  64.5501400
  83.1518159  13.9013443  65.3286356  72.6432494  22.3694333  73.3379342
  73.3441953  23.0030816  73.4908737  72.1727609  22.7109064  72.5774982
  80.7686890  20.7112283  61.6227249  81.0446733  20.5968877  62.5321124
  79.8991388  20.3129768  61.5839423  80.6727321   6.7349048  68.6631999
  79.7590401   6.9653275  68.8314206  81.1020423   6.8187492  69.5146031
  80.4433780  14.9238940  71.1631893  79.7905230  15.1714848  70.5084346
  80.8214160  14.1103079  70.8294370  77.4040954  24.9598634  65.2660063
  77.5863348  24.1420290  65.7287815  78.2273940  25.1766326  64.8284953
  77.7383119  23.8866819  62.5275112  78.2670886  23.3759273  61.9145274
  78.0011339  23.5709349  63.3920645  76.4921353  15.6658751  77.6497930
  75.8161990  15.5652881  78.3200305  77.3148987  15.5097965  78.1133927
  68.2400212  21.9030688  70.2710445  68.8253649  21.1574376  70.4038349
  68.0425050  22.2134645  71.1547109  71.0938867  24.9381935  65.2872887
  70.4249242  25.4228063  64.8036928  70.9551737  25.1851156  66.2016266
  62.8317867  14.4736288  68.9914888  62.8701966  13.9399879  69.7852006
  62.3258159  13.9471494  68.3725865  75.2344136  26.9725679  71.8855546
  75.7862444  27.1357300  72.6504631  75.5750329  27.5630117  71.2135571
  70.2108629   9.3200829  72.4877431  70.2749955  10.1815660  72.0754828
  70.1475749   8.7074830  71.7549789  69.6860901  11.3923961  76.1350465
  70.3132940  11.0101039  76.7487989  68.8288820  11.1738163  76.5006157
  80.0855010  21.7986936  77.7404200  80.6294914  22.4116895  77.2459155
  79.5041855  22.3566515  78.2571213  66.4626444  13.2000390  62.0668820
  66.7579885  12.2911069  62.0135873  65.5614480  13.1788130  61.7449822
  78.3712523  24.9207654  68.8719228  78.2463662  24.1197394  68.3630174
  79.0291614  25.4153848  68.3833198  69.9920691  11.2756387  68.0496368
  69.2707277  11.8892355  67.9103842  70.7813947  11.8114152  67.9713014
  80.4347431  22.7216675  70.4998778  79.4877767  22.6022026  70.4277105
  80.7830204  21.8339173  70.5825040  72.7947005   8.6110813  74.3237020
  73.3181406   8.8573110  75.0863329  72.5759338   9.4430848  73.9040157
  68.1914286  10.8814488  62.1908145  67.8626992  10.0011867  62.0083251
  68.5453656  10.8262157  63.0784534  77.4393865  22.5169391  66.7003130
  77.2918827  21.5886098  66.8810700  78.2647358  22.5389481  66.2160206
  71.3056109  11.1687458  62.5583622  71.6452181  11.6973379  61.8362231
  71.7528229  11.5067864  63.3342189  81.0427986  23.3397949  67.7868003
  81.9674534  23.1340811  67.6492454  80.8743290  23.0914351  68.6957345
  73.9999550   9.5524509  72.0086691  73.6596370   8.7532322  72.4107370
  73.2938556   9.8526219  71.4363524  74.6516022   6.6373821  70.4614014
  75.4742091   6.1634299  70.3392904  74.8954085   7.4164305  70.9612700
  73.2924256   9.6662079  60.7576915  74.0132619  10.0443332  60.2540632
  72.6689560  10.3850956  60.8611893  77.4355379  10.3707228  61.6935248
  77.6518993  11.2531866  61.3924076  76.9549446   9.9793442  60.9640890
  72.1754600  13.3292942  68.2705992  72.0299181  13.6433245  69.1630274
  71.6979804  13.9477842  67.7176891  74.0350983  10.3195490  68.3186882
  74.0212552   9.4236583  67.9819180  74.7523411  10.3266153  68.9525168
  75.8877114  10.7532830  70.3640009  75.6294892  11.6749900  70.3624340
  75.3562154  10.3563264  71.0540473  80.8323303  23.8583617  63.1430095
  81.0060180  23.2930039  62.3903947  81.3252194  24.6584512  62.9609584
  66.6500262  15.8698286  71.2093653  66.1053731  16.6458094  71.3413928
  67.5279612  16.2169090  71.0512775  73.4387879   9.2009870  63.5874452
  73.5603790   8.2726516  63.7865339  73.1489921   9.2148556  62.6752767
  76.3079069   6.8864780  66.7241172  76.3300766   6.9504113  65.7693151
  76.7247128   6.0469289  66.9181678  86.6862694  16.6220040  64.7620394
  87.1293840  15.8727365  64.3639518  85.8089204  16.6130176  64.3794126
  81.8198475  23.1750381  60.2426993  82.5149380  23.7957074  60.4614307
  82.1621625  22.3245733  60.5179371  67.4366284  14.9968182  74.1023810
  66.6948020  15.1450818  74.6888441  67.1159029  15.2576448  73.2390560
  83.7189898  20.6250087  61.7714324  84.2441222  20.9637360  61.0463644
  83.6312251  19.6897102  61.5877458  75.3809947  24.5384160  73.9004200
  75.6897073  24.2933307  74.7726900  76.1785429  24.7430799  73.4123070
  75.4030559  26.6922070  66.1309577  74.9635549  26.1998449  66.8242433
  76.1538676  26.1495038  65.8901652  67.8822898  22.8833611  66.1334205
  68.7080918  22.5837383  65.7532848  67.5316950  22.1141233  66.5823994
  72.8504431  22.2360079  68.2031878  72.2284440  21.5730784  67.9034106
  73.5209298  22.2621211  67.5205526  66.0831503  20.8019937  67.0923138
  65.2463411  20.3742112  66.9107140  66.0555148  20.9952381  68.0293930
  72.9228959  10.7141867  77.7964384  72.9717114  11.5903990  77.4142154
  73.4651473  10.1719260  77.2236028  83.4083804  21.2582990  77.0765522
  82.6179348  21.2407129  76.5370021  83.1717159  21.7971284  77.8314558
  83.5281679  18.1075457  74.3898250  83.5779684  17.9425464  75.3313773
  83.4195603  17.2402716  73.9996131  72.4117938  20.7864003  61.6790339
  72.5606058  21.4699467  61.0257012  73.2184381  20.7669093  62.1939795
  80.8185442  14.0906385  75.7057557  81.7195304  13.9512850  75.4141555
  80.8933416  14.2560840  76.6455734  75.1528247  11.4673240  74.5510743
  74.2831556  11.7606806  74.2793332  75.3887727  12.0513685  75.2718007
  85.0299876  20.5272398  74.6340272  84.7384684  20.8902379  75.4703733
  84.4172007  19.8139407  74.4553604  86.2295558  18.0925278  67.1542842
  87.0642450  18.5315082  67.3180402  86.3654687  17.6163931  66.3351088
  83.2787064  15.6505013  73.1020330  83.7541186  15.8432659  72.2939181
  82.3552630  15.7064199  72.8563713  70.1670571  16.8129180  62.6851408
  69.9216613  15.9091510  62.8831618  70.3366486  16.8146331  61.7430886
  77.8567281   7.6852857  72.0676164  78.3749225   8.4213883  71.7422652
  77.5022414   7.9916850  72.9022923  69.4366219  12.5457538  60.1837569
  68.7435463  12.6201893  59.5277605  69.1917970  11.7817881  60.7059086
  75.9113344  23.2812133  59.1502086  75.3387311  23.9002320  58.6972558
  76.4846137  23.8311495  59.6842008  81.9788733  12.5270773  71.3348635
  82.9306156  12.6268871  71.3560859  81.8092184  11.7349042  71.8446720
  80.0003113   9.6126356  71.5208036  79.4053045   9.8931369  70.8254525
  79.7152810  10.1020257  72.2924777  79.1310603  23.5649283  60.2810669
  80.0641277  23.4994845  60.4843544  79.0433816  24.4005550  59.8225201
  81.7598620  22.8815153  57.2414616  81.6812252  22.5475017  58.1350374
  82.5808287  23.3736921  57.2406089  84.4576811  15.7476893  70.4490935
  84.4253131  14.8092894  70.6350619  85.0677435  15.8260929  69.7156760
  76.2960142  14.6172946  56.4918139  77.2419247  14.4879154  56.5606557
  75.9174387  13.8787608  56.9687567  84.6071300  12.5387936  70.4949218
  84.0910348  11.7546393  70.3079147  85.4911248  12.2106653  70.6595738
  90.2753361  16.8092900  69.5896972  91.0056750  16.5478188  70.1504675
  89.6660307  16.0721622  69.6299040  88.3568658  14.9500762  70.1871423
  87.6301822  14.8156727  69.5787914  87.9415945  15.2577591  70.9928141
  76.1798835  18.6690692  77.9518796  77.1001844  18.8469291  78.1458842
  76.1448418  17.7246737  77.7998495  74.4803059  12.5422922  56.4273024
  73.5734515  12.2456035  56.5035738  74.7579040  12.2452740  55.5607310
  65.3981000  13.8629286  66.8772071  65.0783784  13.0094594  66.5846445
  64.8514428  14.0777864  67.6330038  69.1760907  16.5791727  70.5941577
  69.3946917  17.5108834  70.6129611  69.5886681  16.2199701  71.3796381
  76.0965125   7.0859812  62.5817265  75.2865853   6.7406897  62.9572512
  76.7849542   6.7767356  63.1704877  74.0488772  12.1524932  79.9844326
  73.9485499  13.1019289  79.9156417  73.8310315  11.8243171  79.1120396
  73.2501844   9.4009857  56.5685003  74.1121008   9.7264756  56.8280821
  73.4352188   8.6141353  56.0558069  65.2669260  17.4832197  68.8465192
  64.5732731  17.0686150  68.3335147  66.0142251  17.5252734  68.2498611
  81.4034480   8.2738384  63.7120226  80.8233149   8.9323188  63.3298279
  81.1370413   7.4515728  63.3007644  79.8538047   7.6743442  65.9141547
  80.3537825   7.7859976  65.1055866  80.4973655   7.3704494  66.5542355
  73.9120043  15.5822071  78.8009388  73.4287124  16.3822431  79.0073277
  73.9980982  15.5930016  77.8476832  67.1806002  17.4150451  66.7231207
  67.1576690  17.5138138  65.7713090  67.4906639  18.2615602  67.0448373
  69.8393380  19.4726606  70.8377821  70.7936634  19.4410548  70.7707753
  69.6405904  19.0117230  71.6528047  70.4292762  18.0427722  73.4048619
  71.2485651  18.5371801  73.4283456  70.7029570  17.1259690  73.3766187
  80.1859358  10.4338474  62.7676575  79.2985213  10.7188125  62.5496769
  80.6013347  10.2732238  61.9203851  83.5373894  10.4584995  66.4830914
  84.3134285  10.9481448  66.7555531  82.8122029  10.8843049  66.9402783
  85.9746453  11.1712614  67.5404854  86.5690944  10.9308350  66.8298163
  86.0473037  10.4519745  68.1678391  68.1943609  25.0146225  67.8548019
  68.0598077  24.2546626  67.2886017  67.7775671  25.7387125  67.3876808
  79.3302572  20.1983149  56.8624595  80.0338422  20.4033151  57.4782250
  78.6065221  20.7659911  57.1273678  80.1600382  15.9493010  62.9826865
  80.1035583  16.4061562  62.1434497  80.7128725  15.1883695  62.8049708
  83.9705188  11.7382742  63.8076984  83.7142122  11.3379378  64.6385192
  83.3458056  12.4526536  63.6827123  88.2817526  14.4778815  66.3148276
  87.7217084  14.5472005  67.0879838  87.6761029  14.3019800  65.5947772
  71.3512735  25.9115542  68.0666462  71.2345119  26.8560975  67.9645152
  70.5305181  25.6089104  68.4552261  81.2389269  20.6365678  58.9123055
  82.0734873  20.2046877  58.7300529  81.0773612  20.4647692  59.8399949
  80.8935161  17.1397791  60.2779394  80.8383965  16.9742063  59.3367838
  80.2681217  17.8473824  60.4341584  65.6827676  12.3765856  74.1040816
  66.3286540  11.8664810  74.5928041  65.4744827  13.1134537  74.6784241
  78.2081069  19.4446703  79.6032957  79.0772228  19.6187356  79.2419592
  77.7287820  20.2641120  79.4808686  74.2031287   6.6405900  59.8564712
  74.1909957   7.5847740  60.0132983  75.0954709   6.4576046  59.5624174
  72.3767249  26.5643804  71.2822390  73.2794496  26.5967415  71.5988885
  72.1504619  25.6344255  71.2968726  74.1320851  25.3174791  67.9432469
  73.1816482  25.3176652  67.8296841  74.4353337  24.5707525  67.4268504
  70.0225167   9.5233473  78.2015830  70.8856629   9.1670278  78.4119155
  69.4490578   9.1847368  78.8891235  89.8673544  31.1535329  69.0078231
  90.5051954  31.0342077  68.3041571  89.7494387  32.1016173  69.0666184
  86.6763251  31.1062757  68.9439756  86.3381762  30.9903822  68.0560291
  87.5453019  30.7053922  68.9240762  82.5350066  32.9598234  64.9336647
  81.9714931  32.8688171  64.1652935  82.4202461  32.1398138  65.4139140
  87.1583034  32.2597609  74.9025962  87.1471674  31.8650407  74.0306465
  87.3203673  31.5263682  75.4959733  80.0814498  34.4549425  67.7720867
  80.8735790  34.1140250  67.3567167  80.3211148  34.5644400  68.6923021
  88.1149625  36.6269201  60.2451112  87.4637605  37.2123282  59.8585126
  88.9093988  37.1575396  60.3046149  82.0405252  33.7158339  60.6438246
  82.8136128  33.1687326  60.5051122  82.3930651  34.5802588  60.8552708
  83.8790295  35.0434721  73.8505146  83.5880161  35.9480352  73.7351812
  84.5147279  35.0851248  74.5649215  84.8046502  32.4211569  70.4406505
  85.4010074  32.1967592  69.7263468  84.8621473  31.6796315  71.0431953
  84.3771530  29.8751005  58.2756696  84.6297051  29.3532526  57.5140159
  83.4396089  29.7117150  58.3783380  89.4214813  28.8786783  66.0831439
  90.2077902  28.4606206  65.7321856  89.6853517  29.7832875  66.2513088
  89.5924890  34.3159633  60.7820096  88.9570723  34.3894260  61.4941001
  89.2622297  34.9053232  60.1039175  94.8223240  28.8162016  66.9864418
  95.5548412  28.2461233  67.2202247  94.0662596  28.4283617  67.4270924
  84.0967819  31.7779111  60.4781071  83.9804077  31.1024014  61.1462155
  84.2070079  31.2911485  59.6613224  86.4399360  31.2389258  64.1827760
  86.0757567  30.7119879  64.8940682  87.2966476  30.8487727  64.0094246
  92.3448660  22.5283590  71.4459027  92.0131985  23.3979001  71.2220242
  91.7494274  22.2119874  72.1253057  86.0804847  26.2679157  59.1789109
  86.2479249  27.1359394  59.5459580  85.8902016  26.4306439  58.2550398
  88.8380180  34.7296136  70.8454939  88.5380903  35.6321175  70.7370746
  88.4931239  34.4628320  71.6976092  82.2892661  31.1809933  66.8791644
  81.3643158  31.0486147  67.0869335  82.5377074  31.9604152  67.3761586
  92.2377324  27.2478677  68.5252377  91.3294201  27.1794085  68.2311138
  92.1864919  27.7250621  69.3534202  86.0594067  28.7236815  60.1635776
  85.9393693  29.1693866  61.0021256  85.3646656  29.0722133  59.6049314
  79.6501472  30.8243207  67.7135433  79.7793853  31.0777686  68.6274844
  78.9698924  31.4170915  67.3940088  83.8200960  41.4940457  63.8125907
  83.7424989  42.4448282  63.8914388  83.2162603  41.1486329  64.4700833
  86.3118189  28.6668322  76.4687274  85.5351523  29.2262242  76.4590139
  86.9508752  29.1525105  76.9902144  94.1038970  25.4495115  70.3030251
  93.4613350  25.7427648  69.6570045  93.5993899  25.3348035  71.1083447
  91.7579134  29.1958288  60.9916110  92.6696990  29.4285675  60.8163807
  91.2488781  29.7795332  60.4291188  84.5664562  31.4753775  76.0305241
  85.3079246  32.0138819  75.7540064  83.8601547  32.1020064  76.1876793
  90.0419901  33.6182916  74.6277402  90.4503257  33.1765326  73.8832035
  89.3197163  33.0435543  74.8811595  86.3950971  28.5555523  72.0010959
  87.2412167  28.9794936  72.1445608  86.3349609  27.8989147  72.6949522
  90.3648716  34.1784107  68.3829691  89.7357578  34.3429821  67.6805759
  89.9774378  34.5925716  69.1540655  94.2437948  35.1138544  65.7374055
  93.5588986  35.4937446  65.1871088  94.3281797  35.7233871  66.4706003
  89.5450417  26.2159891  73.6592133  89.3011349  26.9701952  73.1226409
  89.8210347  26.5945239  74.4939380  91.4988879  32.7598503  72.3369399
  91.7105775  33.4030263  71.6603780  91.4518628  31.9260820  71.8691329
  89.1015108  25.3716324  69.2405971  88.2399587  25.6697578  69.5322708
  89.1277543  25.5886723  68.3087003  85.9176678  33.9158515  65.6479776
  86.3815023  34.1946218  64.8584399  85.6533476  33.0141959  65.4652867
  82.8100759  33.4629996  68.5859540  83.3802116  33.8917265  67.9477024
  83.4008871  33.1812581  69.2843725  84.8545564  30.0381667  62.4569341
  85.5569607  30.4902711  62.9243268  84.5226192  29.3965486  63.0849235
  83.3025925  28.6293424  76.8320551  82.6724586  29.3109705  77.0655948
  83.1962013  28.5176505  75.8873689  78.5970898  28.2965220  67.7586475
  77.8069952  28.5522748  67.2826586  79.0882145  29.1113558  67.8638516
  92.6134707  35.6370459  70.5091756  93.4352151  35.2350646  70.2274437
  92.6097110  35.5338693  71.4607872  80.5485643  28.6609799  64.7169952
  79.7516807  28.7728493  65.2353447  80.3211235  28.9996451  63.8510842
  86.3791311  35.1854502  72.6652466  86.4435743  35.6474909  73.5010638
  85.6702235  34.5551867  72.7934776  76.8808601  28.5495710  70.1901466
  77.1316639  29.4342720  70.4559042  77.4168149  28.3700312  69.4176558
 100.7040700  31.9809207  66.8576727  99.9504409  31.4116605  66.7020732
 100.8388242  31.9471872  67.8047362  86.0939329  36.8522610  62.5331447
  85.9585003  37.6974145  62.9616295  86.6349141  37.0541887  61.7697380
  82.5806668  22.9314189  79.1945802  82.1873614  22.3780388  79.8693446
  83.3972808  23.2424768  79.5852319  79.5468726  34.3698048  63.1059372
  80.0593246  35.1641298  63.2564936  80.1991439  33.6724338  63.0392973
  81.3563611  37.4863804  65.1882125  81.5330239  38.4081769  65.0003109
  82.1520444  37.1722223  65.6176505  85.4974629  24.3472069  76.7866058
  86.2384343  24.9479222  76.7070521  85.7292552  23.6049706  76.2284101
  80.6415967  29.5328436  75.0644288  80.5269482  28.6313693  75.3651387
  79.7860485  29.7792133  74.7129105  87.7207805  37.4746176  76.6631789
  87.2771659  36.6882555  76.3452693  88.3825018  37.6625327  75.9975680
  82.4794926  39.0041978  71.1892467  83.0302351  38.8759041  70.4169461
  81.6406402  39.3036867  70.8387360  89.8189043  37.7548976  74.6913190
  89.8007518  38.5757857  74.1993459  90.7408963  37.6303051  74.9163331
  86.2762097  35.2693106  75.5336698  86.8090434  34.5081394  75.3036006
  85.7476178  34.9766757  76.2760853  89.4431792  20.3753172  71.0630340
  89.0996061  21.2654813  70.9869451  89.8110755  20.1854829  70.1999925
  77.5117643  32.6986702  63.8818942  78.3492865  33.1083710  63.6652650
  77.6895910  31.7586144  63.8519136  89.4082075  30.3661783  59.5702775
  88.8928698  31.1366387  59.8091163  89.1359383  29.6926919  60.1935837
  86.9929186  25.2111483  64.6288014  86.1370782  24.8218334  64.4493652
  87.4056138  25.2903444  63.7687799  88.5228332  22.7457827  69.0279573
  88.0193128  22.7087962  68.2147379  88.8158939  23.6550569  69.0876230
  84.7671218  22.8296556  68.0345755  85.6324215  22.6339365  67.6751645
  84.8348727  22.6006908  68.9615112  94.3816349  33.1194137  61.5055949
  93.6045792  32.7805297  61.0611111  95.0607830  33.1246760  60.8310914
  89.1968378  28.2388875  61.3962556  88.8918514  28.5535024  62.2472700
  90.1498820  28.3170295  61.4389889  87.6414810  34.3979098  63.0455510
  87.1136171  33.6631858  62.7328748  87.1402313  35.1753774  62.7995479
  92.6207656  32.5928119  68.1622557  91.9631330  33.2827380  68.2502685
  93.4248055  32.9824550  68.5056543  82.3733537  25.0598764  65.4062122
  82.9477289  24.8373946  64.6735315  82.9604520  25.1287459  66.1590723
  91.4313115  30.9472491  66.2126498  91.9444996  31.5802483  66.7148208
  92.0814339  30.3473687  65.8469858  82.7003125  27.0903225  59.4258007
  81.8640437  27.4277912  59.7467282  82.5607894  26.9552205  58.4885144
  84.6756205  21.9340013  64.1337191  84.0220617  21.6189030  63.5093806
  84.6336679  21.3115754  64.8597014  85.7867410  32.2159308  56.0490483
  84.8794472  31.9848562  56.2481632  86.2838442  31.4196928  56.2364465
  88.6935489  40.9256815  58.9687170  88.0197188  41.2288512  59.5772127
  89.0801311  41.7285896  58.6192627  87.9093946  28.4221947  68.4584839
  86.9916507  28.6436894  68.3006527  88.3254089  28.4968257  67.5996546
  88.6928993  29.8213362  63.5887519  89.4400812  30.3334760  63.2794641
  88.9620583  29.4997415  64.4491913  86.9655643  32.3171903  60.5714474
  86.0566863  32.0330936  60.6686943  86.9950727  32.7370982  59.7117780
  92.1974911  35.9278493  64.3405641  91.7437238  35.0869403  64.3970832
  91.5668878  36.5639891  64.6780421  91.1407830  26.8570479  65.5706309
  90.4030587  26.3447865  65.9016551  91.3934604  26.4170860  64.7589585
  90.6407850  37.7654989  65.2755459  90.9330824  38.3260046  64.5567825
  91.1506471  38.0583550  66.0308618  91.2419458  19.6346731  66.1648078
  91.5478335  18.7744094  65.8773993  91.9672063  20.2264351  65.9647072
  77.5343814  30.0377417  64.5529676  77.3368214  29.4446778  63.8280742
  76.9790478  29.7329627  65.2705615  85.5140537  29.9300524  66.6724269
  85.5689147  28.9774360  66.5966745  84.7031740  30.0859963  67.1565567
  86.6631731  33.8580647  57.9102552  86.2251161  33.1416506  57.4508189
  87.4042172  34.0856762  57.3487644  83.4532897  28.5477584  64.4314648
  82.6400763  28.8471754  64.8379840  83.9491892  28.1533272  65.1489130
  85.6041475  38.5435340  66.3648912  85.5617654  38.7696187  65.4357444
  86.5204174  38.3098715  66.5134714  89.0507109  29.0119408  73.2629542
  89.4056497  29.2390881  74.1224007  89.6979240  29.3437785  72.6406797
  94.7804846  32.1337844  63.9678871  94.6422745  32.3239440  63.0400060
  94.4241065  32.8957227  64.4246922  82.9446972  26.1195939  70.0475883
  83.5846351  25.9784698  69.3498846  82.1124503  25.8330452  69.6714485
  94.8074226  34.2014371  68.9790142  95.2410732  34.1089660  69.8273196
  95.5205806  34.1771871  68.3410158  83.7207276  35.4198369  66.1610875
  84.5147875  34.9248690  65.9593450  83.0098968  34.8916233  65.7978581
  88.5402121  37.8016465  70.5123243  88.5939143  38.3707401  71.2800959
  87.6716902  37.9718350  70.1477280  80.0290040  29.5641451  62.2370628
  79.0987628  29.5025907  62.4540590  80.1247512  29.0417404  61.4407269
  79.9475589  26.0896264  64.8248870  80.2082406  27.0041597  64.7158030
  80.7692761  25.6220707  64.9745482  81.4200514  27.5034021  71.9947694
  82.0923567  27.2951383  71.3460343  80.5930300  27.3056107  71.5552926
  95.6689775  34.2438072  71.5123028  95.8625665  35.1483882  71.7582303
  95.5690393  33.7845491  72.3461613  87.3226086  24.1295962  74.0113355
  86.6754001  24.8285912  73.9177831  88.0927101  24.5632106  74.3789603
  90.7304884  34.3944814  77.0863908  90.5790390  34.1655366  76.1693992
  90.7209563  35.3515416  77.0995253  87.4990220  31.9676727  72.0710175
  88.4282280  32.1187887  71.8979142  87.0781250  32.0560748  71.2158821
  86.2978552  35.9927391  69.8408712  86.1589638  35.6246176  70.7134650
  85.5093148  36.5075031  69.6692670  86.8926704  41.0936488  61.1834249
  87.0678460  40.6224531  61.9979871  86.2059492  41.7202254  61.4115510
  87.8483767  35.3708994  67.2297550  87.5133600  35.3309764  68.1255200
  87.3487713  34.7053710  66.7567960  81.8228011  30.7776624  72.7550131
  81.6847809  30.0456863  73.3561670  82.7332935  30.6885524  72.4734319
  90.7842959  32.7165028  57.5034610  90.1672129  31.9911857  57.4067662
  90.3159447  33.4774389  57.1601684  84.4510312  30.4896584  72.2433811
  85.1609930  29.8489776  72.2020429  84.4079620  30.7409478  73.1659992
  92.4397091  37.4263937  75.1640390  92.3809637  36.7423157  74.4970973
  92.8416609  38.1682927  74.7121016  83.1639246  27.4761801  74.0629450
  82.6276603  27.0252540  74.7151047  82.5755954  27.6107710  73.3199915
  81.4587789  44.2425851  67.9574109  81.6984388  44.8744375  68.6353128
  80.6156986  43.8913891  68.2439468  82.5741505  26.9350453  56.6255914
  81.6970971  26.8139254  56.2618161  83.0499258  26.1436531  56.3734803
  92.4414498  35.3903521  73.3954370  91.5541277  35.0529443  73.5180769
  93.0113049  34.6586552  73.6323135  74.0943645  31.7227613  66.7197421
  74.7814685  31.4089343  66.1318436  73.9391774  32.6268977  66.4464673
  78.8978367  26.6117809  71.1482445  78.8136556  26.0043479  70.4132855
  78.0761073  27.1026827  71.1491941  85.9715651  40.0504973  70.3615613
  85.8985823  40.8559945  70.8734918  85.5293044  40.2496939  69.5363634
  85.7605431  39.2876743  63.8718434  84.9772953  39.8298423  63.9656659
  86.4598176  39.8050723  64.2712676  89.0702081  25.0971373  66.5152640
  89.5670780  24.3441335  66.1953710  88.2989062  25.1335689  65.9495849
  96.9231838  30.8011738  68.1570931  96.9121715  31.6836454  67.7864864
  96.0549218  30.4483289  67.9625468  88.4314335  39.9491807  72.5173772
  89.1442307  40.5839272  72.4449673  87.9404363  40.0455673  71.7013773
  90.1531862  33.8543060  64.0891063  89.2188140  33.9744522  63.9195768
  90.3308530  32.9515527  63.8251073  85.6537050  27.2388756  66.2424324
  85.2834837  26.6859796  66.9305230  86.1496142  26.6346889  65.6899325
  93.5404413  29.6960379  64.6241097  94.0064865  30.5288371  64.5501400
  93.9911913  29.2305361  65.3286356  83.4826248  37.6986251  73.3379342
  84.1835708  38.3322734  73.4908737  83.0121363  38.0400982  72.5774982
  91.6080644  36.0404200  61.6227249  91.8840488  35.9260795  62.5321124
  90.7385143  35.6421685  61.5839423  91.5121076  22.0640966  68.6631999
  90.5984155  22.2945193  68.8314206  91.9414177  22.1479410  69.5146031
  91.2827534  30.2530858  71.1631893  90.6298984  30.5006766  70.5084346
  91.6607914  29.4394996  70.8294370  88.2434708  40.2890551  65.2660063
  88.4257103  39.4712207  65.7287815  89.0667694  40.5058244  64.8284953
  88.5776874  39.2158736  62.5275112  89.1064640  38.7051191  61.9145274
  88.8405093  38.9001267  63.3920645  87.3315107  30.9950669  77.6497930
  86.6555744  30.8944798  78.3200305  88.1542741  30.8389883  78.1133927
  79.0793966  37.2322606  70.2710445  79.6647403  36.4866294  70.4038349
  78.8818805  37.5426562  71.1547109  81.9332622  40.2673853  65.2872887
  81.2642997  40.7519981  64.8036928  81.7945491  40.5143074  66.2016266
  73.6711621  29.8028206  68.9914888  73.7095721  29.2691797  69.7852006
  73.1651914  29.2763411  68.3725865  86.0737890  42.3017597  71.8855546
  86.6256198  42.4649218  72.6504631  86.4144084  42.8922034  71.2135571
  81.0502383  24.6492746  72.4877431  81.1143710  25.5107577  72.0754828
  80.9869504  24.0366748  71.7549789  80.5254656  26.7215879  76.1350465
  81.1526695  26.3392956  76.7487989  79.6682575  26.5030081  76.5006157
  90.9248764  37.1278854  77.7404200  91.4688668  37.7408812  77.2459155
  90.3435609  37.6858433  78.2571213  77.3020199  28.5292308  62.0668820
  77.5973640  27.6202986  62.0135873  76.4008234  28.5080047  61.7449822
  89.2106277  40.2499572  68.8719228  89.0857417  39.4489312  68.3630174
  89.8685368  40.7445765  68.3833198  80.8314446  26.6048305  68.0496368
  80.1101031  27.2184272  67.9103842  81.6207701  27.1406069  67.9713014
  91.2741186  38.0508592  70.4998778  90.3271521  37.9313943  70.4277105
  91.6223959  37.1631090  70.5825040  83.6340759  23.9402731  74.3237020
  84.1575161  24.1865028  75.0863329  83.4153092  24.7722766  73.9040157
  79.0308040  26.2106406  62.1908145  78.7020746  25.3303785  62.0083251
  79.3847411  26.1554074  63.0784534  88.2787619  37.8461308  66.7003130
  88.1312581  36.9178016  66.8810700  89.1041113  37.8681399  66.2160206
  82.1449863  26.4979375  62.5583622  82.4845936  27.0265297  61.8362231
  82.5921984  26.8359782  63.3342189  91.8821741  38.6689867  67.7868003
  92.8068288  38.4632728  67.6492454  91.7137044  38.4206268  68.6957345
  84.8393304  24.8816426  72.0086691  84.4990125  24.0824239  72.4107370
  84.1332310  25.1818137  71.4363524  85.4909776  21.9665739  70.4614014
  86.3135845  21.4926217  70.3392904  85.7347840  22.7456222  70.9612700
  84.1318010  24.9953997  60.7576915  84.8526373  25.3735250  60.2540632
  83.5083315  25.7142874  60.8611893  88.2749133  25.6999146  61.6935248
  88.4912748  26.5823784  61.3924076  87.7943201  25.3085359  60.9640890
  83.0148355  28.6584859  68.2705992  82.8692935  28.9725162  69.1630274
  82.5373558  29.2769760  67.7176891  84.8744738  25.6487407  68.3186882
  84.8606306  24.7528501  67.9819180  85.5917166  25.6558071  68.9525168
  86.7270868  26.0824747  70.3640009  86.4688646  27.0041818  70.3624340
  86.1955909  25.6855182  71.0540473  91.6717057  39.1875535  63.1430095
  91.8453935  38.6221957  62.3903947  92.1645948  39.9876429  62.9609584
  77.4894017  31.1990204  71.2093653  76.9447485  31.9750012  71.3413928
  78.3673367  31.5461008  71.0512775  84.2781634  24.5301788  63.5874452
  84.3997545  23.6018434  63.7865339  83.9883676  24.5440474  62.6752767
  87.1472824  22.2156698  66.7241172  87.1694521  22.2796031  65.7693151
  87.5640883  21.3761207  66.9181678  97.5256448  31.9511958  64.7620394
  97.9687594  31.2019283  64.3639518  96.6482959  31.9422094  64.3794126
  92.6592230  38.5042299  60.2426993  93.3543134  39.1248992  60.4614307
  93.0015380  37.6537650  60.5179371  78.2760039  30.3260100  74.1023810
  77.5341775  30.4742735  74.6888441  77.9552783  30.5868366  73.2390560
  94.5583653  35.9542005  61.7714324  95.0834977  36.2929277  61.0463644
  94.4706005  35.0189020  61.5877458  86.2203701  39.8676078  73.9004200
  86.5290828  39.6225225  74.7726900  87.0179183  40.0722717  73.4123070
  86.2424313  42.0213988  66.1309577  85.8029304  41.5290366  66.8242433
  86.9932430  41.4786955  65.8901652  78.7216652  38.2125529  66.1334205
  79.5474672  37.9129301  65.7532848  78.3710704  37.4433151  66.5823994
  83.6898186  37.5651997  68.2031878  83.0678195  36.9022702  67.9034106
  84.3603053  37.5913129  67.5205526  76.9225258  36.1311855  67.0923138
  76.0857166  35.7034029  66.9107140  76.8948903  36.3244298  68.0293930
  83.7622713  26.0433785  77.7964384  83.8110869  26.9195908  77.4142154
  84.3045227  25.5011178  77.2236028  94.2477559  36.5874908  77.0765522
  93.4573102  36.5699047  76.5370021  94.0110913  37.1263202  77.8314558
  94.3675434  33.4367375  74.3898250  94.4173439  33.2717382  75.3313773
  94.2589357  32.5694634  73.9996131  83.2511693  36.1155920  61.6790339
  83.3999813  36.7991385  61.0257012  84.0578136  36.0961010  62.1939795
  91.6579196  29.4198303  75.7057557  92.5589059  29.2804767  75.4141555
  91.7327171  29.5852757  76.6455734  85.9922002  26.7965157  74.5510743
  85.1225311  27.0898723  74.2793332  86.2281482  27.3805602  75.2718007
  95.8693631  35.8564316  74.6340272  95.5778439  36.2194297  75.4703733
  95.2565762  35.1431324  74.4553604  97.0689313  33.4217196  67.1542842
  97.9036204  33.8607000  67.3180402  97.2048442  32.9455849  66.3351088
  94.1180819  30.9796931  73.1020330  94.5934941  31.1724577  72.2939181
  93.1946384  31.0356117  72.8563713  81.0064326  32.1421098  62.6851408
  80.7610367  31.2383428  62.8831618  81.1760240  32.1438248  61.7430886
  88.6961035  23.0144774  72.0676164  89.2142979  23.7505801  71.7422652
  88.3416168  23.3208768  72.9022923  80.2759973  27.8749455  60.1837569
  79.5829218  27.9493810  59.5277605  80.0311725  27.1109799  60.7059086
  88.9473630  19.4345057  67.5877060  89.2275383  18.7668246  68.2137487
  89.7324236  19.6274152  67.0751724  86.7507098  38.6104051  59.1502086
  86.1781065  39.2294238  58.6972558  87.3239892  39.1603412  59.6842008
  92.8182488  27.8562691  71.3348635  93.7699911  27.9560788  71.3560859
  92.6485938  27.0640959  71.8446720  90.8396867  24.9418274  71.5208036
  90.2446799  25.2223287  70.8254525  90.5546564  25.4312175  72.2924777
  89.9704358  38.8941201  60.2810669  90.9035031  38.8286762  60.4843544
  89.8827571  39.7297468  59.8225201  92.5992375  38.2107071  57.2414616
  92.5206006  37.8766935  58.1350374  93.4202041  38.7028839  57.2406089
  95.2970566  31.0768810  70.4490935  95.2646886  30.1384811  70.6350619
  95.9071189  31.1552847  69.7156760  87.1353897  29.9464863  56.4918139
  88.0813001  29.8171072  56.5606557  86.7568142  29.2079525  56.9687567
  95.4465054  27.8679854  70.4949218  94.9304103  27.0838311  70.3079147
  96.3305003  27.5398571  70.6595738  93.1075781  21.6120869  66.4545031
  92.9100602  21.3035958  67.3388363  93.7175487  22.3382508  66.5842961
 101.1147116  32.1384817  69.5896972 101.8450504  31.8770105  70.1504675
 100.5054061  31.4013539  69.6299040  99.1962413  30.2792680  70.1871423
  98.4695576  30.1448645  69.5787914  98.7809700  30.5869508  70.9928141
  87.0192589  33.9982610  77.9518796  87.9395599  34.1761209  78.1458842
  86.9842172  33.0538655  77.7998495  85.3196814  27.8714840  56.4273024
  84.4128269  27.5747953  56.5035738  85.5972795  27.5744658  55.5607310
  76.2374754  29.1921203  66.8772071  75.9177538  28.3386511  66.5846445
  75.6908182  29.4069781  67.6330038  80.0154662  31.9083644  70.5941577
  80.2340671  32.8400752  70.6129611  80.4280435  31.5491619  71.3796381
  86.9358879  22.4151730  62.5817265  86.1259608  22.0698815  62.9572512
  87.6243296  22.1059273  63.1704877  88.8649428  21.4929776  64.2041562
  89.4180466  21.9125230  64.8631585  89.1019514  20.5665524  64.2464518
  84.8882527  27.4816850  79.9844326  84.7879254  28.4311207  79.9156417
  84.6704069  27.1535089  79.1120396  84.0895598  24.7301775  56.5685003
  84.9514762  25.0556673  56.8280821  84.2745942  23.9433271  56.0558069
  76.1063014  32.8124115  68.8465192  75.4126486  32.3978068  68.3335147
  76.8536005  32.8544651  68.2498611  92.2428235  23.6030301  63.7120226
  91.6626904  24.2615106  63.3298279  91.9764167  22.7807646  63.3007644
  90.6931801  23.0035359  65.9141547  91.1931580  23.1151894  65.1055866
  91.3367409  22.6996412  66.5542355  84.7513797  30.9113989  78.8009388
  84.2680879  31.7114349  79.0073277  84.8374736  30.9221934  77.8476832
  78.0199757  32.7442369  66.7231207  77.9970445  32.8430056  65.7713090
  78.3300393  33.5907519  67.0448373  80.6787134  34.8018524  70.8377821
  81.6330388  34.7702466  70.7707753  80.4799658  34.3409147  71.6528047
  81.2686517  33.3719640  73.4048619  82.0879406  33.8663718  73.4283456
  81.5423324  32.4551608  73.3766187  91.0253113  25.7630392  62.7676575
  90.1378968  26.0480043  62.5496769  91.4407102  25.6024155  61.9203851
  94.3767649  25.7876913  66.4830914  95.1528039  26.2773365  66.7555531
  93.6515783  26.2134967  66.9402783  96.8140208  26.5004532  67.5404854
  97.4084698  26.2600268  66.8298163  96.8866791  25.7811663  68.1678391
  79.0337363  40.3438143  67.8548019  78.8991831  39.5838544  67.2886017
  78.6169426  41.0679043  67.3876808  90.1696326  35.5275067  56.8624595
  90.8732176  35.7325069  57.4782250  89.4458975  36.0951828  57.1273678
  90.9994137  31.2784928  62.9826865  90.9429338  31.7353479  62.1434497
  91.5522479  30.5175612  62.8049708  94.8098942  27.0674660  63.8076984
  94.5535877  26.6671295  64.6385192  94.1851811  27.7818454  63.6827123
  99.1211280  29.8070733  66.3148276  98.5610838  29.8763922  67.0879838
  98.5154784  29.6311718  65.5947772  82.1906489  41.2407460  68.0666462
  82.0738873  42.1852893  67.9645152  81.3698935  40.9381022  68.4552261
  92.0783024  35.9657596  58.9123055  92.9128628  35.5338794  58.7300529
  91.9167367  35.7939609  59.8399949  91.7328916  32.4689709  60.2779394
  91.6777720  32.3033980  59.3367838  91.1074971  33.1765742  60.4341584
  76.5221431  27.7057773  74.1040816  77.1680294  27.1956727  74.5928041
  76.3138582  28.4426455  74.6784241  89.0474823  34.7738621  79.6032957
  89.9165983  34.9479273  79.2419592  88.5681575  35.5933038  79.4808686
  85.0425041  21.9697818  59.8564712  85.0303711  22.9139658  60.0132983
  85.9348463  21.7867963  59.5624174  83.2161003  41.8935722  71.2822390
  84.1188250  41.9259332  71.5988885  82.9898373  40.9636173  71.2968726
  84.9714605  40.6466708  67.9432469  84.0210236  40.6468570  67.8296841
  85.2747091  39.8999443  67.4268504  88.8577161  18.5640595  64.1110649
  88.0909557  18.0099081  64.2567331  89.2687866  18.6362463  64.9724801
  80.8618922  24.8525391  78.2015830  81.7250383  24.4962195  78.4119155
  80.2884333  24.5139285  78.8891235 100.7067299  46.4827247  69.0078231
 101.3445709  46.3633994  68.3041571 100.5888142  47.4308091  69.0666184
  97.5157005  46.4354675  68.9439756  97.1775517  46.3195740  68.0560291
  98.3846773  46.0345840  68.9240762  93.3743821  48.2890151  64.9336647
  92.8108686  48.1980088  64.1652935  93.2596216  47.4690056  65.4139140
  97.9976788  47.5889527  74.9025962  97.9865429  47.1942325  74.0306465
  98.1597428  46.8555599  75.4959733  90.9208253  49.7841343  67.7720867
  91.7129545  49.4432168  67.3567167  91.1604903  49.8936318  68.6923021
  98.9543379  51.9561119  60.2451112  98.3031359  52.5415199  59.8585126
  99.7487742  52.4867314  60.3046149  92.8799007  49.0450256  60.6438246
  93.6529883  48.4979243  60.5051122  93.2324406  49.9094506  60.8552708
  94.7184049  50.3726638  73.8505146  94.4273915  51.2772269  73.7351812
  95.3541034  50.4143166  74.5649215  95.6440256  47.7503487  70.4406505
  96.2403828  47.5259509  69.7263468  95.7015228  47.0088232  71.0431953
  95.2165284  45.2042922  58.2756696  95.4690805  44.6824444  57.5140159
  94.2789844  45.0409068  58.3783380 100.2608567  44.2078701  66.0831439
 101.0471657  43.7898124  65.7321856 100.5247272  45.1124793  66.2513088
 100.4318645  49.6451551  60.7820096  99.7964478  49.7186178  61.4941001
 100.1016051  50.2345150  60.1039175 105.6616994  44.1453934  66.9864418
 106.3942166  43.5753151  67.2202247 104.9056350  43.7575534  67.4270924
  94.9361573  47.1071028  60.4781071  94.8197831  46.4315932  61.1462155
  95.0463833  46.6203402  59.6613224  97.2793114  46.5681175  64.1827760
  96.9151321  46.0411796  64.8940682  98.1360230  46.1779644  64.0094246
 103.1842415  37.8575508  71.4459027 102.8525740  38.7270919  71.2220242
 102.5888028  37.5411792  72.1253057  96.9198601  41.5971075  59.1789109
  97.0873003  42.4651312  59.5459580  96.7295770  41.7598357  58.2550398
  99.6773934  50.0588054  70.8454939  99.3774657  50.9613093  70.7370746
  99.3324994  49.7920237  71.6976092  93.1286416  46.5101851  66.8791644
  92.2036912  46.3778065  67.0869335  93.3770829  47.2896070  67.3761586
 103.0771078  42.5770594  68.5252377 102.1687955  42.5086003  68.2311138
 103.0258674  43.0542539  69.3534202  96.8987822  44.0528733  60.1635776
  96.7787447  44.4985783  61.0021256  96.2040410  44.4014050  59.6049314
  90.4895227  46.1535124  67.7135433  90.6187608  46.4069603  68.6274844
  89.8092678  46.7462832  67.3940088  94.6594714  56.8232374  63.8125907
  94.5818744  57.7740199  63.8914388  94.0556358  56.4778247  64.4700833
  97.1511944  43.9960240  76.4687274  96.3745278  44.5554160  76.4590139
  97.7902507  44.4817023  76.9902144 104.9432724  40.7787033  70.3030251
 104.3007105  41.0719566  69.6570045 104.4387653  40.6639953  71.1083447
 102.5972888  44.5250206  60.9916110 103.5090744  44.7577593  60.8163807
 102.0882535  45.1087250  60.4291188  95.4058316  46.8045693  76.0305241
  96.1473001  47.3430737  75.7540064  94.6995302  47.4311982  76.1876793
 100.8813656  48.9474834  74.6277402 101.2897012  48.5057244  73.8832035
 100.1590917  48.3727461  74.8811595  97.2344726  43.8847440  72.0010959
  98.0805921  44.3086854  72.1445608  97.1743364  43.2281065  72.6949522
 101.2042470  49.5076024  68.3829691 100.5751333  49.6721738  67.6805759
 100.8168133  49.9217634  69.1540655 105.0831702  50.4430462  65.7374055
 104.3982741  50.8229363  65.1871088 105.1675552  51.0525789  66.4706003
 100.3844171  41.5451809  73.6592133 100.1405103  42.2993869  73.1226409
 100.6604102  41.9237156  74.4939380 102.3382634  48.0890421  72.3369399
 102.5499529  48.7322181  71.6603780 102.2912382  47.2552738  71.8691329
  99.9408863  40.7008242  69.2405971  99.0793342  40.9989495  69.5322708
  99.9671298  40.9178641  68.3087003  96.7570432  49.2450432  65.6479776
  97.2208778  49.5238135  64.8584399  96.4927230  48.3433877  65.4652867
  93.6494513  48.7921914  68.5859540  94.2195870  49.2209182  67.9477024
  94.2402625  48.5104499  69.2843725  95.6939318  45.3673585  62.4569341
  96.3963362  45.8194628  62.9243268  95.3619947  44.7257404  63.0849235
  94.1419680  43.9585341  76.8320551  93.5118340  44.6401622  77.0655948
  94.0355768  43.8468423  75.8873689  89.4364652  43.6257137  67.7586475
  88.6463706  43.8814666  67.2826586  89.9275900  44.4405475  67.8638516
 103.4528462  50.9662377  70.5091756 104.2745906  50.5642564  70.2274437
 103.4490865  50.8630611  71.4607872  91.3879398  43.9901717  64.7169952
  90.5910561  44.1020411  65.2353447  91.1604990  44.3288369  63.8510842
  97.2185065  50.5146420  72.6652466  97.2829498  50.9766827  73.5010638
  96.5095989  49.8843785  72.7934776  87.7202355  43.8787628  70.1901466
  87.9710394  44.7634638  70.4559042  88.2561904  43.6992229  69.4176558
  96.9333083  52.1814527  62.5331447  96.7978758  53.0266063  62.9616295
  97.4742896  52.3833805  61.7697380  93.4200423  38.2606107  79.1945802
  93.0267368  37.7072306  79.8693446  94.2366563  38.5716686  79.5852319
  90.3862480  49.6989965  63.1059372  90.8987001  50.4933216  63.2564936
  91.0385193  49.0016256  63.0392973  92.1957365  52.8155722  65.1882125
  92.3723993  53.7373686  65.0003109  92.9914199  52.5014141  65.6176505
  96.3368384  39.6763986  76.7866058  97.0778097  40.2771139  76.7070521
  96.5686306  38.9341624  76.2284101  91.4809722  44.8620354  75.0644288
  91.3663237  43.9605611  75.3651387  90.6254239  45.1084050  74.7129105
  98.5601559  52.8038094  76.6631789  98.1165414  52.0174472  76.3452693
  99.2218773  52.9917244  75.9975680  93.3188681  54.3333895  71.1892467
  93.8696106  54.2050959  70.4169461  92.4800156  54.6328784  70.8387360
 100.6582797  53.0840894  74.6913190 100.6401273  53.9049775  74.1993459
 101.5802718  52.9594969  74.9163331  97.1155852  50.5985023  75.5336698
  97.6484188  49.8373311  75.3036006  96.5869933  50.3058675  76.2760853
 100.2825547  35.7045089  71.0630340  99.9389816  36.5946731  70.9869451
 100.6504509  35.5146747  70.1999925  88.3511397  48.0278620  63.8818942
  89.1886619  48.4375628  63.6652650  88.5289665  47.0878062  63.8519136
 100.2475829  45.6953700  59.5702775  99.7322453  46.4658305  59.8091163
  99.9753138  45.0218836  60.1935837  97.8322940  40.5403401  64.6288014
  96.9764537  40.1510251  64.4493652  98.2449892  40.6195362  63.7687799
  99.3622087  38.0749744  69.0279573  98.8586883  38.0379880  68.2147379
  99.6552694  38.9842487  69.0876230  95.6064973  38.1588474  68.0345755
  96.4717970  37.9631283  67.6751645  95.6742482  37.9298826  68.9615112
 105.2210103  48.4486055  61.5055949 104.4439546  48.1097214  61.0611111
 105.9001584  48.4538678  60.8310914 100.0362132  43.5680792  61.3962556
  99.7312268  43.8826942  62.2472700 100.9892575  43.6462212  61.4389889
  98.4808564  49.7271016  63.0455510  97.9529926  48.9923775  62.7328748
  97.9796067  50.5045692  62.7995479 103.4601410  47.9220036  68.1622557
 102.8025085  48.6119298  68.2502685 104.2641810  48.3116468  68.5056543
  93.2127292  40.3890682  65.4062122  93.7871044  40.1665863  64.6735315
  93.7998274  40.4579377  66.1590723 102.2706869  46.2764409  66.2126498
 102.7838751  46.9094401  66.7148208 102.9208093  45.6765604  65.8469858
  93.5396879  42.4195143  59.4258007  92.7034191  42.7569830  59.7467282
  93.4001649  42.2844123  58.4885144  95.5149960  37.2631931  64.1337191
  94.8614372  36.9480948  63.5093806  95.4730434  36.6407671  64.8597014
  96.6261164  47.5451226  56.0490483  95.7188226  47.3140479  56.2481632
  97.1232196  46.7488845  56.2364465  99.5329243  56.2548733  58.9687170
  98.8590942  56.5580430  59.5772127  99.9195065  57.0577814  58.6192627
  98.7487700  43.7513864  68.4584839  97.8310261  43.9728811  68.3006527
  99.1647844  43.8260175  67.5996546  99.5322748  45.1505280  63.5887519
 100.2794567  45.6626677  63.2794641  99.8014337  44.8289333  64.4491913
  97.8049398  47.6463821  60.5714474  96.8960617  47.3622854  60.6686943
  97.8344482  48.0662899  59.7117780 103.0368665  51.2570410  64.3405641
 102.5830992  50.4161320  64.3970832 102.4062632  51.8931809  64.6780421
 101.9801585  42.1862396  65.5706309 101.2424342  41.6739783  65.9016551
 102.2328358  41.7462778  64.7589585 101.4801605  53.0946907  65.2755459
 101.7724579  53.6551964  64.5567825 101.9900225  53.3875468  66.0308618
 102.0813212  34.9638648  66.1648078 102.3872089  34.1036012  65.8773993
 102.8065817  35.5556269  65.9647072  88.3737568  45.3669335  64.5529676
  88.1761968  44.7738696  63.8280742  87.8184232  45.0621545  65.2705615
  96.3534292  45.2592441  66.6724269  96.4082902  44.3066278  66.5966745
  95.5425494  45.4151881  67.1565567  97.5025486  49.1872565  57.9102552
  97.0644916  48.4708423  57.4508189  98.2435927  49.4148679  57.3487644
  94.2926652  43.8769501  64.4314648  93.4794517  44.1763672  64.8379840
  94.7885646  43.4825190  65.1489130  96.4435230  53.8727258  66.3648912
  96.4011409  54.0988104  65.4357444  97.3597929  53.6390633  66.5134714
  99.8900864  44.3411326  73.2629542 100.2450251  44.5682799  74.1224007
 100.5372995  44.6729702  72.6406797 105.6198601  47.4629762  63.9678871
 105.4816499  47.6531358  63.0400060 105.2634819  48.2249144  64.4246922
  93.7840727  41.4487857  70.0475883  94.4240106  41.3076616  69.3498846
  92.9518257  41.1622370  69.6714485 105.6467980  49.5306289  68.9790142
 106.0804487  49.4381578  69.8273196 106.3599561  49.5063789  68.3410158
  94.5601031  50.7490287  66.1610875  95.3541629  50.2540607  65.9593450
  93.8492723  50.2208150  65.7978581  99.3795875  53.1308383  70.5123243
  99.4332897  53.6999319  71.2800959  98.5110656  53.3010268  70.1477280
  90.8683794  44.8933369  62.2370628  89.9381382  44.8317824  62.4540590
  90.9641266  44.3709322  61.4407269  90.7869343  41.4188182  64.8248870
  91.0476160  42.3333515  64.7158030  91.6086515  40.9512624  64.9745482
  92.2594268  42.8325939  71.9947694  92.9317322  42.6243301  71.3460343
  91.4324055  42.6348025  71.5552926 106.5083530  49.5729989  71.5123028
 106.7019420  50.4775800  71.7582303 106.4084148  49.1137408  72.3461613
  98.1619840  39.4587880  74.0113355  97.5147755  40.1577829  73.9177831
  98.9320856  39.8924024  74.3789603 101.5698638  49.7236732  77.0863908
 101.4184145  49.4947284  76.1693992 101.5603318  50.6807333  77.0995253
  98.3383975  47.2968645  72.0710175  99.2676035  47.4479804  71.8979142
  97.9175005  47.3852666  71.2158821  97.1372307  51.3219309  69.8408712
  96.9983392  50.9538094  70.7134650  96.3486903  51.8366949  69.6692670
  97.7320459  56.4228406  61.1834249  97.9072214  55.9516449  61.9979871
  97.0453247  57.0494172  61.4115510  98.6877522  50.7000912  67.2297550
  98.3527354  50.6601682  68.1255200  98.1881467  50.0345628  66.7567960
  92.6621766  46.1068542  72.7550131  92.5241564  45.3748781  73.3561670
  93.5726689  46.0177442  72.4734319 101.6236713  48.0456946  57.5034610
 101.0065884  47.3203774  57.4067662 101.1553202  48.8066306  57.1601684
  95.2904066  45.8188501  72.2433811  96.0003685  45.1781693  72.2020429
  95.2473374  46.0701396  73.1659992 103.2790845  52.7555855  75.1640390
 103.2203391  52.0715075  74.4970973 103.6810363  53.4974845  74.7121016
  94.0033000  42.8053719  74.0629450  93.4670357  42.3544458  74.7151047
  93.4149709  42.9399628  73.3199915  92.2981544  59.5717768  67.9574109
  92.5378142  60.2036293  68.6353128  91.4550740  59.2205808  68.2439468
  93.4135259  42.2642370  56.6255914  92.5364726  42.1431171  56.2618161
  93.8893012  41.4728449  56.3734803 103.2808252  50.7195438  73.3954370
 102.3935031  50.3821360  73.5180769 103.8506803  49.9878470  73.6323135
  84.9337399  47.0519530  66.7197421  85.6208439  46.7381260  66.1318436
  84.7785528  47.9560895  66.4464673  89.7372122  41.9409727  71.1482445
  89.6530310  41.3335396  70.4132855  88.9154828  42.4318745  71.1491941
  96.8109406  55.3796891  70.3615613  96.7379577  56.1851862  70.8734918
  96.3686799  55.5788857  69.5363634  96.5999185  54.6168661  63.8718434
  95.8166707  55.1590341  63.9656659  97.2991930  55.1342640  64.2712676
  99.9095835  40.4263290  66.5152640 100.4064535  39.6733253  66.1953710
  99.1382817  40.4627607  65.9495849 107.7625593  46.1303656  68.1570931
 107.7515469  47.0128371  67.7864864 106.8942972  45.7775207  67.9625468
  99.2708089  55.2783725  72.5173772  99.9836061  55.9131190  72.4449673
  98.7798118  55.3747591  71.7013773 100.9925616  49.1834978  64.0891063
 100.0581895  49.3036440  63.9195768 101.1702285  48.2807444  63.8251073
  96.4930804  42.5680673  66.2424324  96.1228592  42.0151714  66.9305230
  96.9889897  41.9638807  65.6899325 104.3798167  45.0252297  64.6241097
 104.8458620  45.8580288  64.5501400 104.8305668  44.5597278  65.3286356
  94.3220003  53.0278168  73.3379342  95.0229462  53.6614651  73.4908737
  93.8515118  53.3692900  72.5774982 102.4474399  51.3696118  61.6227249
 102.7234242  51.2552713  62.5321124 101.5778897  50.9713603  61.5839423
 102.3514830  37.3932884  68.6631999 101.4377910  37.6237111  68.8314206
 102.7807932  37.4771328  69.5146031 102.1221289  45.5822776  71.1631893
 101.4692739  45.8298683  70.5084346 102.5001669  44.7686914  70.8294370
  99.0828463  55.6182469  65.2660063  99.2650857  54.8004125  65.7287815
  99.9061449  55.8350161  64.8284953  99.4170628  54.5450654  62.5275112
  99.9458394  54.0343109  61.9145274  99.6798848  54.2293184  63.3920645
  98.1708862  46.3242587  77.6497930  97.4949499  46.2236716  78.3200305
  98.9936496  46.1681801  78.1133927  89.9187721  52.5614523  70.2710445
  90.5041158  51.8158211  70.4038349  89.7212559  52.8718480  71.1547109
  92.7726376  55.5965771  65.2872887  92.1036751  56.0811898  64.8036928
  92.6339246  55.8434991  66.2016266  84.5105376  45.1320124  68.9914888
  84.5489475  44.5983714  69.7852006  84.0045668  44.6055329  68.3725865
  96.9131645  57.6309514  71.8855546  97.4649953  57.7941136  72.6504631
  97.2537838  58.2213952  71.2135571  91.8896138  39.9784664  72.4877431
  91.9537464  40.8399495  72.0754828  91.8263258  39.3658666  71.7549789
  91.3648410  42.0507797  76.1350465  91.9920449  41.6684874  76.7487989
  90.5076329  41.8321999  76.5006157 101.7642519  52.4570772  77.7404200
 102.3082423  53.0700730  77.2459155 101.1829364  53.0150350  78.2571213
  88.1413953  43.8584226  62.0668820  88.4367394  42.9494904  62.0135873
  87.2401989  43.8371965  61.7449822 100.0500032  55.5791490  68.8719228
  99.9251171  54.7781230  68.3630174 100.7079123  56.0737683  68.3833198
  91.6708200  41.9340222  68.0496368  90.9494786  42.5476190  67.9103842
  92.4601456  42.4697987  67.9713014 102.1134940  53.3800510  70.4998778
 101.1665276  53.2605861  70.4277105 102.4617713  52.4923008  70.5825040
  94.4734514  39.2694649  74.3237020  94.9968915  39.5156945  75.0863329
  94.2546847  40.1014684  73.9040157  89.8701795  41.5398323  62.1908145
  89.5414501  40.6595702  62.0083251  90.2241165  41.4845992  63.0784534
  99.1181374  53.1753226  66.7003130  98.9706336  52.2469934  66.8810700
  99.9434867  53.1973317  66.2160206  92.9843618  41.8271293  62.5583622
  93.3239690  42.3557214  61.8362231  93.4315738  42.1651699  63.3342189
 102.7215495  53.9981785  67.7868003 103.6462043  53.7924646  67.6492454
 102.5530799  53.7498186  68.6957345  95.6787059  40.2108344  72.0086691
  95.3383879  39.4116157  72.4107370  94.9726065  40.5110055  71.4363524
  96.3303530  37.2957656  70.4614014  97.1529600  36.8218135  70.3392904
  96.5741594  38.0748140  70.9612700  94.9711765  40.3245915  60.7576915
  95.6920127  40.7027168  60.2540632  94.3477069  41.0434792  60.8611893
  99.1142888  41.0291064  61.6935248  99.3306502  41.9115702  61.3924076
  98.6336955  40.6377277  60.9640890  93.8542109  43.9876777  68.2705992
  93.7086690  44.3017080  69.1630274  93.3767313  44.6061677  67.7176891
  95.7138492  40.9779325  68.3186882  95.7000061  40.0820418  67.9819180
  96.4310920  40.9849989  68.9525168  97.5664623  41.4116665  70.3640009
  97.3082401  42.3333736  70.3624340  97.0349663  41.0147100  71.0540473
 102.5110812  54.5167452  63.1430095 102.6847689  53.9513875  62.3903947
 103.0039703  55.3168347  62.9609584  88.3287771  46.5282121  71.2093653
  87.7841239  47.3041929  71.3413928  89.2067121  46.8752926  71.0512775
  95.1175388  39.8593705  63.5874452  95.2391299  38.9310351  63.7865339
  94.8277430  39.8732391  62.6752767  97.9866578  37.5448616  66.7241172
  98.0088275  37.6087949  65.7693151  98.4034637  36.7053124  66.9181678
 103.4985984  53.8334217  60.2426993 104.1936889  54.4540909  60.4614307
 103.8409134  52.9829568  60.5179371  89.1153793  45.6552018  74.1023810
  88.3735529  45.8034653  74.6888441  88.7946538  45.9160283  73.2390560
 105.3977407  51.2833922  61.7714324 105.9228731  51.6221195  61.0463644
 105.3099760  50.3480938  61.5877458  97.0597456  55.1967996  73.9004200
  97.3684582  54.9517143  74.7726900  97.8572938  55.4014634  73.4123070
  97.0818068  57.3505905  66.1309577  96.6423058  56.8582284  66.8242433
  97.8326185  56.8078873  65.8901652  89.5610407  53.5417446  66.1334205
  90.3868427  53.2421218  65.7532848  89.2104459  52.7725069  66.5823994
  94.5291940  52.8943915  68.2031878  93.9071949  52.2314620  67.9034106
  95.1996807  52.9205046  67.5205526  87.7619012  51.4603773  67.0923138
  86.9250920  51.0325947  66.9107140  87.7342657  51.6536216  68.0293930
  94.6016468  41.3725703  77.7964384  94.6504623  42.2487825  77.4142154
  95.1438982  40.8303096  77.2236028 105.0871313  51.9166826  77.0765522
 104.2966857  51.8990965  76.5370021 104.8504668  52.4555120  77.8314558
 105.2069188  48.7659292  74.3898250 105.2567193  48.6009300  75.3313773
 105.0983112  47.8986551  73.9996131  94.0905447  51.4447838  61.6790339
  94.2393567  52.1283302  61.0257012  94.8971890  51.4252928  62.1939795
 102.4972951  44.7490220  75.7057557 103.3982813  44.6096685  75.4141555
 102.5720925  44.9144675  76.6455734  96.8315756  42.1257075  74.5510743
  95.9619065  42.4190641  74.2793332  97.0675236  42.7097520  75.2718007
 106.7087385  51.1856234  74.6340272 106.4172193  51.5486214  75.4703733
 106.0959516  50.4723242  74.4553604 104.9574573  46.3088848  73.1020330
 105.4328695  46.5016495  72.2939181 104.0340139  46.3648034  72.8563713
  91.8458080  47.4713016  62.6851408  91.6004122  46.5675346  62.8831618
  92.0153995  47.4730166  61.7430886  99.5354790  38.3436692  72.0676164
 100.0536734  39.0797719  71.7422652  99.1809923  38.6500685  72.9022923
  91.1153728  43.2041373  60.1837569  90.4222972  43.2785728  59.5277605
  90.8705479  42.4401717  60.7059086  99.7867384  34.7636974  67.5877060
 100.0669138  34.0960164  68.2137487 100.5717991  34.9566070  67.0751724
  97.5900853  53.9395968  59.1502086  97.0174820  54.5586155  58.6972558
  98.1633646  54.4895330  59.6842008 103.6576242  43.1854608  71.3348635
 104.6093665  43.2852706  71.3560859 103.4879693  42.3932877  71.8446720
 101.6790622  40.2710192  71.5208036 101.0840554  40.5515204  70.8254525
 101.3940319  40.7604093  72.2924777 100.8098112  54.2233118  60.2810669
 101.7428785  54.1578680  60.4843544 100.7221325  55.0589385  59.8225201
 103.4386129  53.5398989  57.2414616 103.3599761  53.2058852  58.1350374
 104.2595796  54.0320757  57.2406089 106.1364320  46.4060728  70.4490935
 106.1040640  45.4676729  70.6350619 106.7464944  46.4844765  69.7156760
  97.9747651  45.2756781  56.4918139  98.9206756  45.1462989  56.5606557
  97.5961896  44.5371443  56.9687567 106.2858809  43.1971772  70.4949218
 105.7697857  42.4130228  70.3079147 107.1698757  42.8690488  70.6595738
 103.9469536  36.9412787  66.4545031 103.7494357  36.6327875  67.3388363
 104.5569241  37.6674426  66.5842961  97.8586344  49.3274527  77.9518796
  98.7789353  49.5053126  78.1458842  97.8235927  48.3830573  77.7998495
  96.1590568  43.2006758  56.4273024  95.2522024  42.9039870  56.5035738
  96.4366549  42.9036576  55.5607310  87.0768509  44.5213121  66.8772071
  86.7571293  43.6678429  66.5846445  86.5301937  44.7361699  67.6330038
  90.8548416  47.2375562  70.5941577  91.0734426  48.1692670  70.6129611
  91.2674190  46.8783536  71.3796381  97.7752634  37.7443647  62.5817265
  96.9653362  37.3990732  62.9572512  98.4637051  37.4351191  63.1704877
  99.7043182  36.8221694  64.2041562 100.2574221  37.2417147  64.8631585
  99.9413269  35.8957442  64.2464518  95.7276281  42.8108768  79.9844326
  95.6273008  43.7603125  79.9156417  95.5097823  42.4827007  79.1120396
  94.9289353  40.0593693  56.5685003  95.7908517  40.3848591  56.8280821
  95.1139697  39.2725189  56.0558069  86.9456769  48.1416032  68.8465192
  86.2520240  47.7269985  68.3335147  87.6929760  48.1836569  68.2498611
 103.0821989  38.9322219  63.7120226 102.5020658  39.5907023  63.3298279
 102.8157922  38.1099564  63.3007644 101.5325556  38.3327277  65.9141547
 102.0325334  38.4443811  65.1055866 102.1761164  38.0288330  66.5542355
  95.5907552  46.2405907  78.8009388  95.1074633  47.0406267  79.0073277
  95.6768491  46.2513851  77.8476832  88.8593511  48.0734286  66.7231207
  88.8364199  48.1721973  65.7713090  89.1694148  48.9199437  67.0448373
  91.5180889  50.1310441  70.8377821  92.4724143  50.0994384  70.7707753
  91.3193413  49.6701065  71.6528047  92.1080271  48.7011557  73.4048619
  92.9273160  49.1955636  73.4283456  92.3817079  47.7843525  73.3766187
 101.8646867  41.0922310  62.7676575 100.9772722  41.3771960  62.5496769
 102.2800856  40.9316073  61.9203851 105.2161403  41.1168831  66.4830914
 105.9921794  41.6065283  66.7555531 104.4909538  41.5426885  66.9402783
 107.6533962  41.8296450  67.5404854 108.2478453  41.5892186  66.8298163
 107.7260546  41.1103580  68.1678391  89.8731118  55.6730061  67.8548019
  89.7385586  54.9130462  67.2886017  89.4563180  56.3970961  67.3876808
 101.0090081  50.8566984  56.8624595 101.7125931  51.0616987  57.4782250
 100.2852730  51.4243746  57.1273678 101.8387891  46.6076845  62.9826865
 101.7823092  47.0645397  62.1434497 102.3916234  45.8467530  62.8049708
 105.6492697  42.3966577  63.8076984 105.3929631  41.9963213  64.6385192
 105.0245565  43.1110371  63.6827123  93.0300244  56.5699378  68.0666462
  92.9132628  57.5144810  67.9645152  92.2092690  56.2672939  68.4552261
 102.9176778  51.2949513  58.9123055 103.7522382  50.8630712  58.7300529
 102.7561121  51.1231527  59.8399949 102.5722670  47.7981627  60.2779394
 102.5171474  47.6325898  59.3367838 101.9468726  48.5057660  60.4341584
  87.3615185  43.0349691  74.1040816  88.0074049  42.5248645  74.5928041
  87.1532336  43.7718373  74.6784241  99.8868578  50.1030539  79.6032957
 100.7559737  50.2771191  79.2419592  99.4075329  50.9224955  79.4808686
  95.8818796  37.2989736  59.8564712  95.8697466  38.2431576  60.0132983
  96.7742218  37.1159881  59.5624174  94.0554758  57.2227640  71.2822390
  94.9582004  57.2551250  71.5988885  93.8292128  56.2928091  71.2968726
  95.8108360  55.9758626  67.9432469  94.8603991  55.9760488  67.8296841
  96.1140846  55.2291361  67.4268504  99.6970915  33.8932512  64.1110649
  98.9303311  33.3390999  64.2567331 100.1081620  33.9654381  64.9724801
  91.7012676  40.1817308  78.2015830  92.5644138  39.8254113  78.4119155
  91.1278087  39.8431203  78.8891235 104.2137575  63.6182069  64.9336647
 103.6502440  63.5272006  64.1652935 104.0989970  62.7981974  65.4139140
 101.7602007  65.1133261  67.7720867 102.5523299  64.7724085  67.3567167
 101.9998657  65.2228236  68.6923021 103.7192761  64.3742174  60.6438246
 104.4923637  63.8271161  60.5051122 104.0718160  65.2386423  60.8552708
 105.5577804  65.7018556  73.8505146 105.2667670  66.6064187  73.7351812
 106.1934788  65.7435084  74.5649215 106.4834011  63.0795405  70.4406505
 107.0797583  62.8551427  69.7263468 106.5408982  62.3380150  71.0431953
 106.0559039  60.5334840  58.2756696 106.3084560  60.0116361  57.5140159
 105.1183598  60.3700985  58.3783380 105.7755328  62.4362946  60.4781071
 105.6591586  61.7607849  61.1462155 105.8857588  61.9495320  59.6613224
 107.7592356  56.9262993  59.1789109 107.9266758  57.7943229  59.5459580
 107.5689525  57.0890274  58.2550398 103.9680170  61.8393769  66.8791644
 103.0430667  61.7069983  67.0869335 104.2164583  62.6187988  67.3761586
 107.7381576  59.3820650  60.1635776 107.6181202  59.8277701  61.0021256
 107.0434165  59.7305968  59.6049314 101.3288981  61.4827042  67.7135433
 101.4581362  61.7361521  68.6274844 100.6486433  62.0754750  67.3940088
 105.4988469  72.1524292  63.8125907 105.4212498  73.1032117  63.8914388
 104.8950112  71.8070165  64.4700833 106.2452071  62.1337611  76.0305241
 106.9866755  62.6722655  75.7540064 105.5389056  62.7603900  76.1876793
 107.5964187  64.5742350  65.6479776 108.0602532  64.8530053  64.8584399
 107.3320985  63.6725795  65.4652867 104.4888268  64.1213832  68.5859540
 105.0589625  64.5501100  67.9477024 105.0796380  63.8396416  69.2843725
 106.5333073  60.6965502  62.4569341 107.2357116  61.1486546  62.9243268
 106.2013701  60.0549321  63.0849235 104.9813434  59.2877259  76.8320551
 104.3512095  59.9693540  77.0655948 104.8749522  59.1760341  75.8873689
 100.2758407  58.9549055  67.7586475  99.4857461  59.2106584  67.2826586
 100.7669654  59.7697393  67.8638516 102.2273152  59.3193634  64.7169952
 101.4304315  59.4312329  65.2353447 101.9998744  59.6580286  63.8510842
 108.0578820  65.8438338  72.6652466 108.1223252  66.3058745  73.5010638
 107.3489744  65.2135702  72.7934776  98.5596110  59.2079545  70.1901466
  98.8104148  60.0926555  70.4559042  99.0955658  59.0284147  69.4176558
 107.7726837  67.5106445  62.5331447 107.6372512  68.3557981  62.9616295
 108.3136650  67.7125723  61.7697380 104.2594177  53.5898025  79.1945802
 103.8661123  53.0364223  79.8693446 105.0760317  53.9008603  79.5852319
 101.2256235  65.0281883  63.1059372 101.7380755  65.8225133  63.2564936
 101.8778948  64.3308173  63.0392973 103.0351120  68.1447639  65.1882125
 103.2117748  69.0665604  65.0003109 103.8307953  67.8306059  65.6176505
 107.1762138  55.0055904  76.7866058 107.9171851  55.6063057  76.7070521
 107.4080061  54.2633542  76.2284101 102.3203476  60.1912271  75.0644288
 102.2056991  59.2897528  75.3651387 101.4647994  60.4375968  74.7129105
 104.1582435  69.6625813  71.1892467 104.7089860  69.5342876  70.4169461
 103.3193911  69.9620702  70.8387360  99.1905152  63.3570537  63.8818942
 100.0280374  63.7667546  63.6652650  99.3683419  62.4169979  63.8519136
 106.4458727  53.4880392  68.0345755 107.3111724  53.2923200  67.6751645
 106.5136236  53.2590744  68.9615112 104.0521046  55.7182600  65.4062122
 104.6264798  55.4957781  64.6735315 104.6392029  55.7871294  66.1590723
 104.3790634  57.7487061  59.4258007 103.5427946  58.0861747  59.7467282
 104.2395403  57.6136040  58.4885144 106.3543714  52.5923849  64.1337191
 105.7008126  52.2772866  63.5093806 106.3124188  51.9699589  64.8597014
 107.4654919  62.8743144  56.0490483 106.5581981  62.6432397  56.2481632
 107.9625951  62.0780763  56.2364465  99.2131323  60.6961253  64.5529676
  99.0155723  60.1030613  63.8280742  98.6577987  60.3913463  65.2705615
 107.1928046  60.5884359  66.6724269 107.2476656  59.6358196  66.5966745
 106.3819248  60.7443798  67.1565567 105.1320406  59.2061419  64.4314648
 104.3188272  59.5055589  64.8379840 105.6279401  58.8117108  65.1489130
 107.2828984  69.2019176  66.3648912 107.2405163  69.4280022  65.4357444
 108.1991683  68.9682550  66.5134714 104.6234481  56.7779774  70.0475883
 105.2633860  56.6368533  69.3498846 103.7912012  56.4914288  69.6714485
 105.3994785  66.0782205  66.1610875 106.1935384  65.5832525  65.9593450
 104.6886477  65.5500068  65.7978581 101.7077549  60.2225287  62.2370628
 100.7775137  60.1609742  62.4540590 101.8035020  59.7001239  61.4407269
 101.6263098  56.7480099  64.8248870 101.8869915  57.6625433  64.7158030
 102.4480270  56.2804542  64.9745482 103.0988023  58.1617857  71.9947694
 103.7711076  57.9535219  71.3460343 102.2717809  57.9639943  71.5552926
 107.9766061  66.6511227  69.8408712 107.8377147  66.2830011  70.7134650
 107.1880657  67.1658866  69.6692670 103.5015520  61.4360460  72.7550131
 103.3635318  60.7040698  73.3561670 104.4120444  61.3469360  72.4734319
 106.1297821  61.1480419  72.2433811 106.8397439  60.5073611  72.2020429
 106.0867129  61.3993314  73.1659992 104.8426755  58.1345637  74.0629450
 104.3064112  57.6836375  74.7151047 104.2543463  58.2691546  73.3199915
 103.1375298  74.9009686  67.9574109 103.3771897  75.5328210  68.6353128
 102.2944495  74.5497726  68.2439468 104.2529014  57.5934288  56.6255914
 103.3758480  57.4723089  56.2618161 104.7286767  56.8020366  56.3734803
  95.7731154  62.3811448  66.7197421  96.4602194  62.0673178  66.1318436
  95.6179283  63.2852813  66.4464673 100.5765876  57.2701644  71.1482445
 100.4924065  56.6627314  70.4132855  99.7548582  57.7610663  71.1491941
 107.6503160  70.7088808  70.3615613 107.5773332  71.5143780  70.8734918
 107.2080553  70.9080774  69.5363634 107.4392940  69.9460579  63.8718434
 106.6560462  70.4882259  63.9656659 108.1385685  70.4634558  64.2712676
 107.3324559  57.8972591  66.2424324 106.9622346  57.3443631  66.9305230
 107.8283651  57.2930724  65.6899325 105.1613757  68.3570086  73.3379342
 105.8623217  68.9906569  73.4908737 104.6908872  68.6984818  72.5774982
 100.7581475  67.8906441  70.2710445 101.3434912  67.1450129  70.4038349
 100.5606314  68.2010398  71.1547109 103.6120130  70.9257688  65.2872887
 102.9430506  71.4103816  64.8036928 103.4733000  71.1726909  66.2016266
  95.3499130  60.4612041  68.9914888  95.3883230  59.9275632  69.7852006
  94.8439423  59.9347247  68.3725865 107.7525399  72.9601432  71.8855546
 108.3043707  73.1233053  72.6504631 108.0931593  73.5505870  71.2135571
 102.7289892  55.3076582  72.4877431 102.7931219  56.1691413  72.0754828
 102.6657013  54.6950583  71.7549789 102.2042165  57.3799714  76.1350465
 102.8314204  56.9976792  76.7487989 101.3470084  57.1613916  76.5006157
  98.9807708  59.1876143  62.0668820  99.2761149  58.2786822  62.0135873
  98.0795743  59.1663883  61.7449822 102.5101955  57.2632140  68.0496368
 101.7888540  57.8768108  67.9103842 103.2995210  57.7989905  67.9713014
 105.3128268  54.5986566  74.3237020 105.8362670  54.8448863  75.0863329
 105.0940601  55.4306601  73.9040157 100.7095549  56.8690241  62.1908145
 100.3808255  55.9887620  62.0083251 101.0634920  56.8137910  63.0784534
 103.8237372  57.1563211  62.5583622 104.1633445  57.6849132  61.8362231
 104.2709493  57.4943617  63.3342189 106.5180813  55.5400262  72.0086691
 106.1777634  54.7408075  72.4107370 105.8119819  55.8401972  71.4363524
 107.1697285  52.6249574  70.4614014 107.9923354  52.1510052  70.3392904
 107.4135349  53.4040058  70.9612700 105.8105519  55.6537832  60.7576915
 106.5313882  56.0319085  60.2540632 105.1870824  56.3726709  60.8611893
 104.6935864  59.3168695  68.2705992 104.5480444  59.6308998  69.1630274
 104.2161067  59.9353595  67.7176891 106.5532247  56.3071243  68.3186882
 106.5393815  55.4112336  67.9819180 107.2704675  56.3141906  68.9525168
  99.1681526  61.8574039  71.2093653  98.6234994  62.6333847  71.3413928
 100.0460876  62.2044844  71.0512775 105.9569143  55.1885623  63.5874452
 106.0785054  54.2602269  63.7865339 105.6671185  55.2024309  62.6752767
  99.9547548  60.9843935  74.1023810  99.2129284  61.1326571  74.6888441
  99.6340292  61.2452201  73.2390560 100.4004161  68.8709364  66.1334205
 101.2262181  68.5713136  65.7532848 100.0498213  68.1016986  66.5823994
 105.3685695  68.2235832  68.2031878 104.7465704  67.5606537  67.9034106
 106.0390562  68.2496964  67.5205526  98.6012766  66.7895690  67.0923138
  97.7644675  66.3617865  66.9107140  98.5736412  66.9828134  68.0293930
 105.4410222  56.7017620  77.7964384 105.4898378  57.5779743  77.4142154
 105.9832736  56.1595013  77.2236028 104.9299202  66.7739756  61.6790339
 105.0787322  67.4575220  61.0257012 105.7365645  66.7544846  62.1939795
 107.6709511  57.4548993  74.5510743 106.8012820  57.7482559  74.2793332
 107.9068991  58.0389438  75.2718007 102.6851834  62.8004933  62.6851408
 102.4397876  61.8967263  62.8831618 102.8547749  62.8022084  61.7430886
 101.9547482  58.5333291  60.1837569 101.2616727  58.6077646  59.5277605
 101.7099234  57.7693634  60.7059086 106.9984323  58.5298675  56.4273024
 106.0915778  58.2331788  56.5035738 107.2760304  58.2328493  55.5607310
  97.9162263  59.8505039  66.8772071  97.5965047  58.9970347  66.5846445
  97.3695691  60.0653617  67.6330038 101.6942171  62.5667480  70.5941577
 101.9128180  63.4984587  70.6129611 102.1067944  62.2075454  71.3796381
 106.5670036  58.1400685  79.9844326 106.4666763  59.0895042  79.9156417
 106.3491578  57.8118924  79.1120396 105.7683107  55.3885610  56.5685003
 106.6302271  55.7140509  56.8280821 105.9533451  54.6017106  56.0558069
  97.7850523  63.4707950  68.8465192  97.0913995  63.0561903  68.3335147
  98.5323514  63.5128487  68.2498611 106.4301306  61.5697824  78.8009388
 105.9468388  62.3698184  79.0073277 106.5162245  61.5805769  77.8476832
  99.6987266  63.4026204  66.7231207  99.6757954  63.5013891  65.7713090
 100.0087902  64.2491355  67.0448373 102.3574643  65.4602359  70.8377821
 103.3117897  65.4286301  70.7707753 102.1587167  64.9992983  71.6528047
 102.9474026  64.0303475  73.4048619 103.7666915  64.5247554  73.4283456
 103.2210833  63.1135443  73.3766187 100.7124872  71.0021978  67.8548019
 100.5779340  70.2422379  67.2886017 100.2956935  71.7262878  67.3876808
 103.8693998  71.8991295  68.0666462 103.7526382  72.8436728  67.9645152
 103.0486444  71.5964857  68.4552261  98.2008940  58.3641609  74.1040816
  98.8467803  57.8540563  74.5928041  97.9926091  59.1010290  74.6784241
 106.7212550  52.6281653  59.8564712 106.7091220  53.5723493  60.0132983
 107.6135972  52.4451799  59.5624174 104.8948512  72.5519557  71.2822390
 105.7975759  72.5843168  71.5988885 104.6685882  71.6220008  71.2968726
 106.6502114  71.3050544  67.9432469 105.6997745  71.3052405  67.8296841
 106.9534600  70.5583278  67.4268504 102.5406431  55.5109226  78.2015830
 103.4037892  55.1546031  78.4119155 101.9671842  55.1723121  78.8891235
 106.6124908  77.7103366  66.7197421 107.2995948  77.3965096  66.1318436
 106.4573037  78.6144730  66.4464673 106.1892884  75.7903959  68.9914888
 106.2276984  75.2567550  69.7852006 105.6833177  75.2639164  68.3725865
  70.6194036   5.9196056  54.6819416  70.8590634   6.5514580  55.3598434
  69.7763233   5.5684096  54.9684775  82.5350068   9.9660356  51.6581954
  81.9714933   9.8750293  50.8898241  82.4202463   9.1460261  52.1384446
  80.0814499  11.4611548  54.4966174  80.8735791  11.1202373  54.0812473
  80.3211150  11.5706523  55.4168327  88.1149626  13.6331324  46.9696419
  87.4637606  14.2185404  46.5830432  88.9093989  14.1637519  47.0291456
  82.0405253  10.7220461  47.3683553  82.8136129  10.1749448  47.2296429
  82.3930652  11.5864710  47.5798014  83.8790296  12.0496843  60.5750452
  83.5880162  12.9542474  60.4597119  84.5147280  12.0913371  61.2894522
  84.8046503   9.4273692  57.1651812  85.4010075   9.2029714  56.4508775
  84.8621474   8.6858437  57.7677260  89.5924891  11.3221756  47.5065403
  88.9570724  11.3956382  48.2186308  89.2622298  11.9115355  46.8284482
  84.0967820   8.7841233  47.2026378  83.9804078   8.1086137  47.8707462
  84.2070080   8.2973607  46.3858531  88.8380181  11.7358259  57.5700246
  88.5380904  12.6383298  57.4616053  88.4931241  11.4690442  58.4221399
  82.2892663   8.1872056  53.6036950  81.3643159   8.0548270  53.8114642
  82.5377076   8.9666275  54.1006893  79.6501474   7.8305329  54.4380739
  79.7793855   8.0839808  55.3520151  78.9698925   8.4233037  54.1185394
  83.8200961  18.5002579  50.5371214  83.7424991  19.4510404  50.6159694
  83.2162604  18.1548452  51.1946140  84.5664563   8.4815898  62.7550548
  85.3079247   9.0200942  62.4785371  83.8601548   9.1082187  62.9122099
  90.0419903  10.6245039  61.3522709  90.4503259  10.1827449  60.6077341
  89.3197164  10.0497666  61.6056902  90.3648717  11.1846229  55.1074998
  89.7357580  11.3491943  54.4051066  89.9774379  11.5987839  55.8785962
  94.2437949  12.1200667  52.4619362  93.5588987  12.4999568  51.9116395
  94.3281798  12.7295994  53.1951309  85.9176679  10.9220637  52.3725083
  86.3815025  11.2008340  51.5829705  85.6533477  10.0204082  52.1898174
  82.8100760  10.4692119  55.3104846  83.3802117  10.8979387  54.6722331
  83.4008872  10.1874703  56.0089032  92.6134709  12.6432581  57.2337063
  93.4352152  12.2412769  56.9519744  92.6097112  12.5400816  58.1853178
  86.3791312  12.1916625  59.3897773  86.4435745  12.6537032  60.2255945
  85.6702236  11.5613990  59.5180083  76.8808602   5.5557833  56.9146772
  77.1316641   6.4404843  57.1804348  77.4168150   5.3762434  56.1421864
  86.0939330  13.8584732  49.2576753  85.9585005  14.7036268  49.6861601
  86.6349142  14.0604010  48.4942687  79.5468727  11.3760170  49.8304678
  80.0593248  12.1703421  49.9810243  80.1991440  10.6786461  49.7638280
  81.3563612  14.4925927  51.9127432  81.5330240  15.4143891  51.7248415
  82.1520445  14.1784346  52.3421811  87.7207806  14.4808299  63.3877095
  87.2771660  13.6944677  63.0698000  88.3825020  14.6687449  62.7220986
  82.4794927  16.0104100  57.9137774  83.0302352  15.8821164  57.1414768
  81.6406403  16.3098989  57.5632667  89.8189044  14.7611099  61.4158497
  89.8007520  15.5819980  60.9238766  90.7408964  14.6365174  61.6408638
  86.2762098  12.2755228  62.2582005  86.8090435  11.5143516  62.0281313
  85.7476179  11.9828880  63.0006160  77.5117644   9.7048825  50.6064249
  78.3492866  10.1145833  50.3897957  77.6895912   8.7648267  50.5764443
  87.6414811  11.4041221  49.7700817  87.1136173  10.6693980  49.4574055
  87.1402314  12.1815897  49.5240785  85.7867411   9.2221431  42.7735790
  84.8794473   8.9910684  42.9726939  86.2838443   8.4259050  42.9609772
  88.6935490  17.9318938  45.6932476  88.0197189  18.2350635  46.3017434
  89.0801312  18.7348018  45.3437933  86.9655645   9.3234026  47.2959780
  86.0566864   9.0393059  47.3932250  86.9950729   9.7433104  46.4363087
  92.1974912  12.9340615  51.0650948  91.7437239  12.0931525  51.1216138
  91.5668879  13.5702014  51.4025728  90.6407851  14.7717112  52.0000766
  90.9330826  15.3322169  51.2813132  91.1506472  15.0645673  52.7553925
  77.5343815   7.0439540  51.2774982  77.3368215   6.4508901  50.5526049
  76.9790479   6.7391750  51.9950921  86.6631733  10.8642769  44.6347859
  86.2251162  10.1478628  44.1753496  87.4042173  11.0918884  44.0732950
  85.6041477  15.5497463  53.0894219  85.5617655  15.7758309  52.1602751
  86.5204175  15.3160838  53.2380020  83.7207277  12.4260492  52.8856182
  84.5147876  11.9310812  52.6838757  83.0098970  11.8978355  52.5223887
  88.5402122  14.8078588  57.2368549  88.5939144  15.3769524  58.0046265
  87.6716903  14.9780473  56.8722587  90.7304885  11.4006937  63.8109215
  90.5790392  11.1717489  62.8939299  90.7209565  12.3577538  63.8240560
  87.4990222   8.9738850  58.7955481  88.4282282   9.1250009  58.6224449
  87.0781252   9.0622870  57.9404128  86.2978553  12.9989514  56.5654019
  86.1589639  12.6308298  57.4379957  85.5093150  13.5137153  56.3937977
  86.8926705  18.0998611  47.9079555  87.0678461  17.6286654  48.7225178
  86.2059493  18.7264377  48.1360816  87.8483768  12.3771117  53.9542857
  87.5133601  12.3371887  54.8500507  87.3487714  11.7115833  53.4813267
  81.8228012   7.7838747  59.4795438  81.6847810   7.0518986  60.0806977
  82.7332936   7.6947647  59.1979626  92.4397092  14.4326059  61.8885697
  92.3809638  13.7485280  61.2216280  92.8416610  15.1745049  61.4366323
  81.4587791  21.2487973  54.6819416  81.6984389  21.8806497  55.3598434
  80.6156987  20.8976013  54.9684775  92.4414499  12.3965643  60.1199676
  91.5541278  12.0591565  60.2426075  93.0113050  11.6648675  60.3568442
  74.0943646   8.7289735  53.4442728  74.7814686   8.4151465  52.8563743
  73.9391775   9.6331100  53.1709979  85.9715652  17.0567096  57.0860920
  85.8985824  17.8622067  57.5980224  85.5293046  17.2559062  56.2608941
  85.7605432  16.2938866  50.5963741  84.9772954  16.8360546  50.6901966
  86.4598177  16.8112845  50.9957982  88.4314336  16.9553930  59.2419078
  89.1442308  17.5901395  59.1694980  87.9404365  17.0517796  58.4259080
  90.1531863  10.8605182  50.8136370  89.2188142  10.9806645  50.6441074
  90.3308531   9.9577649  50.5496380  83.4826249  14.7048373  60.0624649
  84.1835709  15.3384856  60.2154043  83.0121364  15.0463105  59.3020288
  91.6080645  13.0466323  48.3472556  91.8840489  12.9322918  49.2566430
  90.7385144  12.6483808  48.3084729  88.2434709  17.2952674  51.9905370
  88.4257104  16.4774330  52.4533122  89.0667695  17.5120366  51.5530260
  88.5776875  16.2220859  49.2520418  89.1064641  15.7113314  48.6390580
  88.8405094  15.9063389  50.1165951  79.0793968  14.2384728  56.9955752
  79.6647404  13.4928416  57.1283656  78.8818806  14.5488685  57.8792416
  81.9332623  17.2735976  52.0118194  81.2642998  17.7582103  51.5282234
  81.7945492  17.5205196  52.9261573  73.6711622   6.8090328  55.7160195
  73.7095722   6.2753919  56.5097313  73.1651915   6.2825534  55.0971172
  86.0737891  19.3079719  58.6100853  86.6256199  19.4711341  59.3749938
  86.4144085  19.8984157  57.9380877  90.9248766  14.1340977  64.4649507
  91.4688670  14.7470935  63.9704462  90.3435611  14.6920555  64.9816520
  89.2106279  17.2561695  55.5964535  89.0857418  16.4551435  55.0875480
  89.8685370  17.7507888  55.1078505  91.2741187  15.0570715  57.2244085
  90.3271523  14.9376066  57.1522411  91.6223960  14.1693213  57.3070346
  88.2787620  14.8523431  53.4248437  88.1312583  13.9240138  53.6056007
  89.1041114  14.8743522  52.9405512  91.8821742  15.6751990  54.5113310
  92.8068290  15.4694851  54.3737761  91.7137046  15.4268391  55.4202651
  91.6717058  16.1937657  49.8675401  91.8453936  15.6284080  49.1149254
  92.1645950  16.9938552  49.6854891  77.4894018   8.2052326  57.9338960
  76.9447486   8.9812134  58.0659234  78.3673368   8.5523131  57.7758081
  92.6592231  15.5104422  46.9672299  93.3543135  16.1311114  47.1859614
  93.0015381  14.6599773  47.2424677  78.2760040   7.3322223  60.8269117
  77.5341776   7.4804858  61.4133747  77.9552784   7.5930488  59.9635866
  94.5583654  12.9604127  48.4959630  95.0834978  13.2991400  47.7708950
  94.4706007  12.0251142  48.3122765  86.2203703  16.8738201  60.6249507
  86.5290829  16.6287348  61.4972206  87.0179185  17.0784839  60.1368377
  86.2424315  19.0276110  52.8554883  85.8029305  18.5352489  53.5487740
  86.9932432  18.4849078  52.6146959  78.7216654  15.2187651  52.8579511
  79.5474674  14.9191423  52.4778155  78.3710706  14.4495274  53.3069300
  83.6898187  14.5714119  54.9277185  83.0678196  13.9084825  54.6279413
  84.3603054  14.5975251  54.2450833  76.9225259  13.1373978  53.8168445
  76.0857167  12.7096152  53.6352446  76.8948904  13.3306421  54.7539236
  94.2477560  13.5937031  63.8010828  93.4573104  13.5761170  63.2615328
  94.0110915  14.1325324  64.5559865  83.2511694  13.1218043  48.4035646
  83.3999814  13.8053507  47.7502318  84.0578137  13.1023133  48.9185101
  95.8693632  12.8626439  61.3585578  95.5778440  13.2256419  62.1949039
  95.2565763  12.1493447  61.1798910  81.0064327   9.1483220  49.4096715
  80.7610369   8.2445550  49.6076925  81.1760241   9.1500371  48.4676193
  86.7507099  15.6166173  45.8747393  86.1781066  16.2356360  45.4217865
  87.3239893  16.1665535  46.4087315  89.9704359  15.9003323  47.0055975
  90.9035032  15.8348885  47.2088851  89.8827572  16.7359590  46.5470508
  92.5992376  15.2169194  43.9659923  92.5206007  14.8829057  44.8595681
  93.4202043  15.7090962  43.9651395  87.0192590  11.0044732  64.6764103
  87.9395600  11.1823331  64.8704149  86.9842173  10.0600778  64.5243802
  76.2374755   6.1983326  53.6017377  75.9177540   5.3448634  53.3091751
  75.6908184   6.4131904  54.3575345  80.0154663   8.9145767  57.3186884
  80.2340673   9.8462875  57.3374918  80.4280437   8.5553741  58.1041688
  76.1063015   9.8186237  55.5710499  75.4126487   9.4040190  55.0580453
  76.8536006   9.8606774  54.9743918  84.7513798   7.9176111  65.5254694
  84.2680880   8.7176472  65.7318583  84.8374737   7.9284056  64.5722138
  78.0199758   9.7504491  53.4476514  77.9970446   9.8492178  52.4958397
  78.3300394  10.5969642  53.7693680  80.6787136  11.8080646  57.5623128
  81.6330389  11.7764588  57.4953060  80.4799659  11.3471270  58.3773354
  81.2686518  10.3781762  60.1293926  82.0879407  10.8725841  60.1528763
  81.5423326   9.4613730  60.1011493  79.0337365  17.3500266  54.5793326
  78.8991832  16.5900667  54.0131324  78.6169427  18.0741165  54.1122115
  90.1696328  12.5337189  43.5869901  90.8732178  12.7387192  44.2027557
  89.4458976  13.1013951  43.8518985  82.1906490  18.2469583  54.7911769
  82.0738875  19.1915015  54.6890459  81.3698937  17.9443144  55.1797568
  92.0783025  12.9719718  45.6368361  92.9128629  12.5400917  45.4545836
  91.9167368  12.8001732  46.5645256  89.0474824  11.7800744  66.3278263
  89.9165984  11.9541396  65.9664898  88.5681576  12.5995160  66.2053993
  83.2161005  18.8997845  58.0067697  84.1188251  18.9321455  58.3234192
  82.9898375  17.9698295  58.0214033  84.9714607  17.6528831  54.6677776
  84.0210238  17.6530693  54.5542148  85.2747093  16.9061566  54.1513810
 100.7067300  23.4889369  55.7323538 101.3445710  23.3696117  55.0286878
 100.5888143  24.4370213  55.7911490  97.5157006  23.4416798  55.6685063
  97.1775518  23.3257862  54.7805598  98.3846775  23.0407963  55.6486069
  93.3743822  25.2952274  51.6581954  92.8108687  25.2042211  50.8898241
  93.2596217  24.4752178  52.1384446  97.9976789  24.5951649  61.6271268
  97.9865430  24.2004448  60.7551772  98.1597429  23.8617722  62.2205040
  90.9208254  26.7903466  54.4966174  91.7129546  26.4494290  54.0812473
  91.1604904  26.8998441  55.4168327  98.9543381  28.9623242  46.9696419
  98.3031361  29.5477322  46.5830432  99.7487744  29.4929437  47.0291456
  92.8799008  26.0512379  47.3683553  93.6529884  25.5041366  47.2296429
  93.2324407  26.9156628  47.5798014  94.7184050  27.3788761  60.5750452
  94.4273916  28.2834392  60.4597119  95.3541035  27.4205289  61.2894522
  95.6440257  24.7565610  57.1651812  96.2403830  24.5321632  56.4508775
  95.7015229  24.0150355  57.7677260  95.2165286  22.2105045  45.0002003
  95.4690806  21.6886566  44.2385466  94.2789845  22.0471190  45.1028686
 100.2608569  21.2140823  52.8076746 101.0471658  20.7960246  52.4567163
 100.5247273  22.1186915  52.9758394 100.4318646  26.6513674  47.5065403
  99.7964479  26.7248300  48.2186308 100.1016052  27.2407272  46.8284482
 105.6616996  21.1516057  53.7109725 106.3942168  20.5815273  53.9447554
 104.9056351  20.7637657  54.1516230  94.9361574  24.1133151  47.2026378
  94.8197833  23.4378054  47.8707462  95.0463834  23.6265525  46.3858531
  97.2793115  23.5743298  50.9073067  96.9151323  23.0473919  51.6185988
  98.1360231  23.1841767  50.7339552 103.1842416  14.8637631  58.1704333
 102.8525741  15.7333042  57.9465548 102.5888029  14.5473915  58.8498364
  96.9198602  18.6033198  45.9034416  97.0873005  19.4713434  46.2704887
  96.7295771  18.7660479  44.9795705  99.6773936  27.0650177  57.5700246
  99.3774659  27.9675215  57.4616053  99.3324995  26.7982360  58.4221399
  93.1286417  23.5163973  53.6036950  92.2036914  23.3840188  53.8114642
  93.3770830  24.2958193  54.1006893 103.0771079  19.5832717  55.2497683
 102.1687957  19.5148125  54.9556444 103.0258675  20.0604662  56.0779509
  96.8987823  21.0590855  46.8881082  96.7787448  21.5047906  47.7266563
  96.2040412  21.4076173  46.3294621  90.4895228  23.1597247  54.4380739
  90.6187609  23.4131726  55.3520151  89.8092679  23.7524955  54.1185394
  94.6594715  33.8294497  50.5371214  94.5818745  34.7802322  50.6159694
  94.0556359  33.4840369  51.1946140  97.1511945  21.0022362  63.1932581
  96.3745279  21.5616283  63.1835445  97.7902508  21.4879145  63.7147451
 104.9432726  17.7849155  57.0275557 104.3007106  18.0781688  56.3815352
 104.4387654  17.6702076  57.8328754 102.5972889  21.5312328  47.7161416
 103.5090746  21.7639715  47.5409114 102.0882536  22.1149373  47.1536495
  95.4058317  23.8107816  62.7550548  96.1473002  24.3492860  62.4785371
  94.6995303  24.4374104  62.9122099 100.8813657  25.9536956  61.3522709
 101.2897013  25.5119367  60.6077341 100.1590919  25.3789584  61.6056902
  97.2344727  20.8909563  58.7256266  98.0805922  21.3148977  58.8690915
  97.1743365  20.2343187  59.4194829 101.2042472  26.5138147  55.1074998
 100.5751334  26.6783861  54.4051066 100.8168134  26.9279756  55.8785962
 105.0831704  27.4492585  52.4619362 104.3982742  27.8291486  51.9116395
 105.1675553  28.0587911  53.1951309 100.3844172  18.5513931  60.3837440
 100.1405104  19.3055992  59.8471715 100.6604103  18.9299279  61.2184687
 102.3382635  25.0952544  59.0614705 102.5499530  25.7384304  58.3849086
 102.2912383  24.2614860  58.5936635  99.9408864  17.7070364  55.9651277
  99.0793343  18.0051618  56.2568015  99.9671299  17.9240763  55.0332310
  96.7570434  26.2512555  52.3725083  97.2208779  26.5300258  51.5829705
  96.4927232  25.3496000  52.1898174  93.6494515  25.7984036  55.3104846
  94.2195872  26.2271305  54.6722331  94.2402626  25.5166621  56.0089032
  95.6939320  22.3735707  49.1814648  96.3963363  22.8256751  49.6488574
  95.3619948  21.7319526  49.8094541  94.1419681  20.9647464  63.5565858
  93.5118342  21.6463745  63.7901254  94.0355769  20.8530546  62.6118996
  89.4364654  20.6319260  54.4831782  88.6463708  20.8876788  54.0071892
  89.9275901  21.4467598  54.5883822 103.4528463  27.9724499  57.2337063
 104.2745907  27.5704686  56.9519744 103.4490866  27.8692733  58.1853178
  91.3879399  20.9963839  51.4415258  90.5910562  21.1082533  51.9598754
  91.1604991  21.3350491  50.5756149  97.2185067  27.5208542  59.3897773
  97.2829499  27.9828950  60.2255945  96.5095990  26.8905907  59.5180083
  87.7202357  20.8849750  56.9146772  87.9710395  21.7696760  57.1804348
  88.2561905  20.7054352  56.1421864  96.9333084  29.1876650  49.2576753
  96.7978759  30.0328186  49.6861601  97.4742897  29.3895928  48.4942687
  93.4200424  15.2668230  65.9191109  93.0267369  14.7134428  66.5938753
  94.2366564  15.5778808  66.3097626  90.3862482  26.7052088  49.8304678
  90.8987002  27.4995338  49.9810243  91.0385194  26.0078378  49.7638280
  92.1957366  29.8217844  51.9127432  92.3723995  30.7435809  51.7248415
  92.9914200  29.5076263  52.3421811  96.3368385  16.6826109  63.5111365
  97.0778098  17.2833262  63.4315828  96.5686308  15.9403747  62.9529408
  91.4809723  21.8682476  61.7889595  91.3663238  20.9667733  62.0896694
  90.6254241  22.1146173  61.4374411  98.5601561  29.8100216  63.3877095
  98.1165415  29.0236595  63.0698000  99.2218774  29.9979367  62.7220986
  93.3188682  31.3396018  57.9137774  93.8696107  31.2113081  57.1414768
  92.4800158  31.6390907  57.5632667 100.6582799  30.0903016  61.4158497
 100.6401274  30.9111897  60.9238766 101.5802719  29.9657092  61.6408638
  97.1155853  27.6047146  62.2582005  97.6484190  26.8435434  62.0281313
  96.5869934  27.3120798  63.0006160  88.3511398  25.0340742  50.6064249
  89.1886620  25.4437751  50.3897957  88.5289666  24.0940184  50.5764443
 100.2475831  22.7015823  46.2948082  99.7322454  23.4720428  46.5336469
  99.9753139  22.0280959  46.9181143  97.8322942  17.5465524  51.3533320
  96.9764538  17.1572374  51.1738959  98.2449893  17.6257484  50.4933106
  99.3622088  15.0811867  55.7524880  98.8586884  15.0442002  54.9392685
  99.6552695  15.9904610  55.8121537  95.6064974  15.1650597  54.7591062
  96.4717971  14.9693405  54.3996951  95.6742483  14.9360948  55.6860419
 105.2210105  25.4548178  48.2301255 104.4439547  25.1159337  47.7856417
 105.9001586  25.4600801  47.5556220 100.0362134  20.5742915  48.1207863
  99.7312269  20.8889064  48.9718006 100.9892576  20.6524335  48.1635196
  98.4808566  26.7333138  49.7700817  97.9529927  25.9985898  49.4574055
  97.9796068  27.5107815  49.5240785 103.4601412  24.9282159  54.8867863
 102.8025086  25.6181420  54.9747992 104.2641811  25.3178591  55.2301850
  93.2127293  17.3952805  52.1307429  93.7871045  17.1727986  51.3980622
  93.7998276  17.4641499  52.8836030 102.2706870  23.2826531  52.9371805
 102.7838752  23.9156523  53.4393515 102.9208094  22.6827727  52.5715165
  93.5396880  19.4257266  46.1503314  92.7034193  19.7631952  46.4712589
  93.4001650  19.2906245  45.2130451  95.5149961  14.2694053  50.8582498
  94.8614373  13.9543071  50.2339113  95.4730435  13.6469794  51.5842321
  96.6261166  24.5513349  42.7735790  95.7188227  24.3202602  42.9726939
  97.1232198  23.7550968  42.9609772  99.5329245  33.2610856  45.6932476
  98.8590943  33.5642553  46.3017434  99.9195067  34.0639936  45.3437933
  98.7487701  20.7575987  55.1830146  97.8310263  20.9790934  55.0251834
  99.1647845  20.8322298  54.3241853  99.5322749  22.1567403  50.3132826
 100.2794568  22.6688800  50.0039948  99.8014339  21.8351455  51.1737219
  97.8049399  24.6525943  47.2959780  96.8960618  24.3684976  47.3932250
  97.8344483  25.0725022  46.4363087 103.0368667  28.2632533  51.0650948
 102.5830994  27.4223443  51.1216138 102.4062633  28.8993931  51.4025728
 101.9801586  19.1924519  52.2951615 101.2424343  18.6801905  52.6261858
 102.2328360  18.7524901  51.4834892 101.4801606  30.1009030  52.0000766
 101.7724580  30.6614087  51.2813132 101.9900226  30.3937591  52.7553925
  88.3737570  22.3731458  51.2774982  88.1761969  21.7800818  50.5526049
  87.8184234  22.0683668  51.9950921  96.3534293  22.2654564  53.3969576
  96.4082903  21.3128400  53.3212052  95.5425495  22.4214003  53.8810874
  97.5025487  26.1934687  44.6347859  97.0644917  25.4770546  44.1753496
  98.2435928  26.4210802  44.0732950  94.2926653  20.8831624  51.1559954
  93.4794519  21.1825794  51.5625147  94.7885647  20.4887313  51.8734437
  96.4435231  30.8789381  53.0894219  96.4011410  31.1050227  52.1602751
  97.3597930  30.6452755  53.2380020  99.8900865  21.3473448  59.9874848
 100.2450253  21.5744921  60.8469314 100.5372996  21.6791825  59.3652104
 105.6198602  24.4691884  50.6924177 105.4816500  24.6593480  49.7645367
 105.2634821  25.2311267  51.1492228  93.7840728  18.4549979  56.7721189
  94.4240107  18.3138738  56.0744153  92.9518258  18.1684493  56.3959791
 105.6467981  26.5368411  55.7035449 106.0804488  26.4443700  56.5518503
 106.3599562  26.5125912  55.0655465  94.5601032  27.7552410  52.8856182
  95.3541630  27.2602730  52.6838757  93.8492724  27.2270273  52.5223887
  99.3795876  30.1370505  57.2368549  99.4332899  30.7061442  58.0046265
  98.5110658  30.3072390  56.8722587  90.8683795  21.8995491  48.9615935
  89.9381383  21.8379947  49.1785897  90.9641267  21.3771444  48.1652576
  90.7869344  18.4250304  51.5494176  91.0476162  19.3395638  51.4403337
  91.6086517  17.9574747  51.6990789  92.2594270  19.8388061  58.7193001
  92.9317323  19.6305424  58.0705650  91.4324056  19.6410147  58.2798233
 106.5083531  26.5792112  58.2368334 106.7019421  27.4837922  58.4827609
 106.4084149  26.1199531  59.0706919  98.1619842  16.4650002  60.7358662
  97.5147757  17.1639952  60.6423138  98.9320857  16.8986146  61.1034910
 101.5698640  26.7298855  63.8109215 101.4184146  26.5009406  62.8939299
 101.5603319  27.6869456  63.8240560  98.3383976  24.3030767  58.7955481
  99.2676036  24.4541927  58.6224449  97.9175006  24.3914788  57.9404128
  97.1372308  28.3281432  56.5654019  96.9983394  27.9600216  57.4379957
  96.3486904  28.8429071  56.3937977  97.7320460  33.4290528  47.9079555
  97.9072215  32.9578571  48.7225178  97.0453248  34.0556294  48.1360816
  98.6877523  27.7063034  53.9542857  98.3527356  27.6663804  54.8500507
  98.1881469  27.0407750  53.4813267  92.6621767  23.1130664  59.4795438
  92.5241565  22.3810903  60.0806977  93.5726690  23.0239565  59.1979626
 101.6236715  25.0519069  44.2279916 101.0065885  24.3265897  44.1312969
 101.1553203  25.8128429  43.8846991  95.2904068  22.8250624  58.9679118
  96.0003686  22.1843816  58.9265736  95.2473376  23.0763519  59.8905298
 103.2790846  29.7617977  61.8885697 103.2203392  29.0777197  61.2216280
 103.6810365  30.5036967  61.4366323  94.0033002  19.8115842  60.7874757
  93.4670359  19.3606580  61.4396353  93.4149710  19.9461750  60.0445221
  92.2981545  36.5779891  54.6819416  92.5378143  37.2098415  55.3598434
  91.4550742  36.2267931  54.9684775  93.4135261  19.2704493  43.3501221
  92.5364727  19.1493294  42.9863467  93.8893014  18.4790571  43.0980109
 103.2808254  27.7257561  60.1199676 102.3935032  27.3883483  60.2426075
 103.8506805  26.9940592  60.3568442  84.9337401  24.0581653  53.4442728
  85.6208440  23.7443383  52.8563743  84.7785529  24.9623017  53.1709979
  89.7372123  18.9471849  57.8727751  89.6530312  18.3397519  57.1378161
  88.9154829  19.4380868  57.8737248  96.8109407  32.3859013  57.0860920
  96.7379578  33.1913985  57.5980224  96.3686800  32.5850979  56.2608941
  96.5999187  31.6230783  50.5963741  95.8166708  32.1652464  50.6901966
  97.2991932  32.1404763  50.9957982  99.9095837  17.4325413  53.2397947
 100.4064536  16.6795375  52.9199017  99.1382818  17.4689730  52.6741156
 107.7625594  23.1365778  54.8816238 107.7515470  24.0190494  54.5110171
 106.8942974  22.7837329  54.6870775  99.2708090  32.2845847  59.2419078
  99.9836063  32.9193312  59.1694980  98.7798119  32.3809713  58.4259080
 100.9925617  26.1897100  50.8136370 100.0581896  26.3098563  50.6441074
 101.1702286  25.2869567  50.5496380  96.4930805  19.5742796  52.9669631
  96.1228593  19.0213836  53.6550537  96.9889898  18.9700929  52.4144631
 104.3798169  22.0314419  51.3486404 104.8458621  22.8642411  51.2746707
 104.8305669  21.5659401  52.0531663  94.3220004  30.0340291  60.0624649
  95.0229463  30.6676774  60.2154043  93.8515119  30.3755022  59.3020288
 102.4474400  28.3758241  48.3472556 102.7234244  28.2614835  49.2566430
 101.5778899  27.9775726  48.3084729 102.3514831  14.3995006  55.3877305
 101.4377911  14.6299233  55.5559512 102.7807933  14.4833450  56.2391338
 102.1221290  22.5884898  57.8877199 101.4692740  22.8360806  57.2329652
 102.5001670  21.7749037  57.5539677  99.0828464  32.6244592  51.9905370
  99.2650858  31.8066247  52.4533122  99.9061450  32.8412284  51.5530260
  99.4170629  31.5512777  49.2520418  99.9458396  31.0405231  48.6390580
  99.6798849  31.2355307  50.1165951  98.1708863  23.3304709  64.3743237
  97.4949500  23.2298839  65.0445612  98.9936497  23.1743923  64.8379234
  89.9187722  29.5676646  56.9955752  90.5041159  28.8220334  57.1283656
  89.7212560  29.8780603  57.8792416  92.7726377  32.6027893  52.0118194
  92.1036753  33.0874021  51.5282234  92.6339247  32.8497114  52.9261573
  84.5105377  22.1382246  55.7160195  84.5489476  21.6045837  56.5097313
  84.0045670  21.6117452  55.0971172  96.9131646  34.6371637  58.6100853
  97.4649954  34.8003258  59.3749938  97.2537839  35.2276075  57.9380877
  91.8896139  16.9846787  59.2122737  91.9537466  17.8461618  58.8000135
  91.8263259  16.3720788  58.4795096  91.3648412  19.0569919  62.8595771
  91.9920450  18.6746997  63.4733296  90.5076330  18.8384121  63.2251464
 101.7642520  29.4632894  64.4649507 102.3082424  30.0762853  63.9704462
 101.1829365  30.0212473  64.9816520  88.1413954  20.8646348  48.7914126
  88.4367395  19.9557027  48.7381180  87.2401990  20.8434088  48.4695129
 100.0500033  32.5853612  55.5964535  99.9251173  31.7843352  55.0875480
 100.7079124  33.0799806  55.1078505  91.6708201  18.9402345  54.7741675
  90.9494787  19.5538313  54.6349148  92.4601457  19.4760110  54.6958321
 102.1134942  30.3862632  57.2244085 101.1665277  30.2667984  57.1522411
 102.4617715  29.4985131  57.3070346  94.4734515  16.2756771  61.0482327
  94.9968917  16.5219068  61.8108636  94.2546848  17.1076806  60.6285464
  89.8701796  18.5460446  48.9153451  89.5414502  17.6657825  48.7328557
  90.2241167  18.4908115  49.8029841  99.1181375  30.1815349  53.4248437
  98.9706337  29.2532056  53.6056007  99.9434868  30.2035439  52.9405512
  92.9843619  18.8333416  49.2828929  93.3239692  19.3619337  48.5607537
  93.4315740  19.1713822  50.0587496 102.7215497  31.0043907  54.5113310
 103.6462044  30.7986769  54.3737761 102.5530800  30.7560309  55.4202651
  95.6787060  17.2170466  58.7331997  95.3383880  16.4178280  59.1352677
  94.9726066  17.5172177  58.1608830  96.3303532  14.3019779  57.1859320
  97.1529601  13.8280257  57.0638211  96.5741595  15.0810263  57.6858006
  94.9711766  17.3308037  47.4822222  95.6920129  17.7089290  46.9785939
  94.3477070  18.0496914  47.5857200  99.1142889  18.0353186  48.4180554
  99.3306504  18.9177824  48.1169382  98.6336956  17.6439400  47.6886196
  93.8542111  20.9938900  54.9951299  93.7086691  21.3079203  55.8875580
  93.3767314  21.6123800  54.4422197  95.7138493  17.9841448  55.0432188
  95.7000062  17.0882541  54.7064486  96.4310922  17.9912111  55.6770474
  97.5664624  18.4178788  57.0885316  97.3082402  19.3395858  57.0869646
  97.0349664  18.0209222  57.7785780 102.5110813  31.5229575  49.8675401
 102.6847690  30.9575997  49.1149254 103.0039704  32.3230470  49.6854891
  88.3287773  23.5344244  57.9338960  87.7841241  24.3104052  58.0659234
  89.2067123  23.8815048  57.7758081  95.1175389  16.8655828  50.3119759
  95.2391301  15.9372474  50.5110646  94.8277432  16.8794514  49.3998074
  97.9866580  14.5510738  53.4486478  98.0088277  14.6150071  52.4938458
  98.4034639  13.7115247  53.6426985 103.4985985  30.8396339  46.9672299
 104.1936890  31.4603032  47.1859614 103.8409135  29.9891690  47.2424677
  89.1153795  22.6614140  60.8269117  88.3735531  22.8096776  61.4133747
  88.7946539  22.9222406  59.9635866 105.3977408  28.2896045  48.4959630
 105.9228733  28.6283318  47.7708950 105.3099761  27.3543060  48.3122765
  97.0597457  32.2030118  60.6249507  97.3684584  31.9579265  61.4972206
  97.8572939  32.4076757  60.1368377  97.0818069  34.3568028  52.8554883
  96.6423060  33.8644407  53.5487740  97.8326186  33.8140996  52.6146959
  89.5610408  30.5479569  52.8579511  90.3868428  30.2483341  52.4778155
  89.2104460  29.7787191  53.3069300  94.5291941  29.9006037  54.9277185
  93.9071951  29.2376742  54.6279413  95.1996808  29.9267169  54.2450833
  87.7619013  28.4665895  53.8168445  86.9250922  28.0388070  53.6352446
  87.7342659  28.6598339  54.7539236  94.6016469  18.3787825  64.5209691
  94.6504624  19.2549948  64.1387461  95.1438983  17.8365218  63.9481334
 105.0871315  28.9228948  63.8010828 104.2966858  28.9053087  63.2615328
 104.8504669  29.4617242  64.5559865 105.2069190  25.7721415  61.1143557
 105.2567195  25.6071422  62.0559080 105.0983113  24.9048674  60.7241438
  94.0905448  28.4509961  48.4035646  94.2393569  29.1345425  47.7502318
  94.8971892  28.4315051  48.9185101 102.4972952  21.7552343  62.4302863
 103.3982815  21.6158808  62.1386861 102.5720926  21.9206798  63.3701041
  96.8315757  19.1319198  61.2756050  95.9619067  19.4252764  61.0038638
  97.0675238  19.7159643  61.9963313 106.7087386  28.1918356  61.3585578
 106.4172195  28.5548337  62.1949039 106.0959518  27.4785365  61.1798910
 104.9574575  23.3150971  59.8265636 105.4328696  23.5078617  59.0184488
 104.0340140  23.3710157  59.5809020  91.8458081  24.4775138  49.4096715
  91.6004123  23.5737468  49.6076925  92.0153996  24.4792289  48.4676193
  99.5354791  15.3498815  58.7921470 100.0536735  16.0859841  58.4667959
  99.1809924  15.6562808  59.6268229  91.1153729  20.2103496  46.9082876
  90.4222974  20.2847851  46.2522912  90.8705481  19.4463839  47.4304393
  97.5900854  30.9458091  45.8747393  97.0174821  31.5648278  45.4217865
  98.1633647  31.4957453  46.4087315 103.6576244  20.1916731  58.0593942
 104.6093667  20.2914829  58.0806166 103.4879694  19.3995000  58.5692026
 101.6790623  17.2772314  58.2453343 101.0840555  17.5577327  57.5499831
 101.3940320  17.7666215  59.0170084 100.8098114  31.2295241  47.0055975
 101.7428787  31.1640803  47.2088851 100.7221326  32.0651508  46.5470508
 103.4386130  30.5461111  43.9659923 103.3599762  30.2120975  44.8595681
 104.2595797  31.0382879  43.9651395 106.1364321  23.4122851  57.1736242
 106.1040642  22.4738851  57.3595925 106.7464945  23.4906887  56.4402066
  97.9747652  22.2818904  43.2163446  98.9206757  22.1525112  43.2851864
  97.5961897  21.5433566  43.6932874 106.2858810  20.2033894  57.2194525
 105.7697859  19.4192351  57.0324454 107.1698758  19.8752611  57.3841044
  97.8586345  26.3336650  64.6764103  98.7789354  26.5115249  64.8704149
  97.8235928  25.3892695  64.5243802  96.1590569  20.2068880  43.1518331
  95.2522025  19.9101993  43.2281044  96.4366550  19.9098698  42.2852617
  87.0768510  21.5275244  53.6017377  86.7571294  20.6740552  53.3091751
  86.5301938  21.7423822  54.3575345  90.8548417  24.2437685  57.3186884
  91.0734427  25.1754792  57.3374918  91.2674191  23.8845659  58.1041688
  97.7752635  14.7505770  49.3062572  96.9653364  14.4052855  49.6817818
  98.4637052  14.4413314  49.8950184  95.7276283  19.8170890  66.7089633
  95.6273010  20.7665247  66.6401724  95.5097825  19.4889129  65.8365703
  94.9289354  17.0655815  43.2930310  95.7908518  17.3910714  43.5526127
  95.1139698  16.2787311  42.7803376  86.9456770  25.1478155  55.5710499
  86.2520241  24.7332108  55.0580453  87.6929761  25.1898692  54.9743918
 103.0821991  15.9384342  50.4365533 102.5020660  16.5969146  50.0543585
 102.8157923  15.1161686  50.0252950 101.5325557  15.3389399  52.6386853
 102.0325335  15.4505934  51.8301172 102.1761165  15.0350452  53.2787662
  95.5907553  23.2468029  65.5254694  95.1074634  24.0468389  65.7318583
  95.6768492  23.2575974  64.5722138  88.8593512  25.0796409  53.4476514
  88.8364200  25.1784096  52.4958397  89.1694149  25.9261560  53.7693680
  91.5180890  27.1372564  57.5623128  92.4724144  27.1056506  57.4953060
  91.3193414  26.6763188  58.3773354  92.1080272  25.7073680  60.1293926
  92.9273161  26.2017759  60.1528763  92.3817080  24.7905648  60.1011493
 101.8646869  18.0984432  49.4921881 100.9772724  18.3834083  49.2742076
 102.2800858  17.9378196  48.6449158 105.2161405  18.1230953  53.2076220
 105.9921795  18.6127406  53.4800837 104.4909539  18.5489007  53.6648090
 107.6533963  18.8358572  54.2650161 108.2478454  18.5954308  53.5543469
 107.7260547  18.1165703  54.8923697  89.8731119  32.6792183  54.5793326
  89.7385587  31.9192584  54.0131324  89.4563181  33.4033083  54.1122115
 101.0090082  27.8629107  43.5869901 101.7125932  28.0679109  44.2027557
 100.2852731  28.4305869  43.8518985 101.8387892  23.6138968  49.7072171
 101.7823094  24.0707520  48.8679804 102.3916235  22.8529653  49.5295014
 105.6492698  19.4028700  50.5322291 105.3929632  19.0025336  51.3630499
 105.0245566  20.1172494  50.4072430  93.0300245  33.5761500  54.7911769
  92.9132629  34.5206933  54.6890459  92.2092691  33.2735062  55.1797568
 102.9176779  28.3011636  45.6368361 103.7522383  27.8692835  45.4545836
 102.7561122  28.1293650  46.5645256 102.5722672  24.8043749  47.0024701
 102.5171475  24.6388021  46.0613145 101.9468727  25.5119782  47.1586890
  87.3615187  20.0411814  60.8286123  88.0074050  19.5310768  61.3173348
  87.1532338  20.7780495  61.4029548  99.8868579  27.1092661  66.3278263
 100.7559738  27.2833313  65.9664898  99.4075330  27.9287078  66.2053993
  95.8818797  14.3051858  46.5810019  95.8697467  15.2493698  46.7378290
  96.7742219  14.1222004  46.2869480  94.0554759  34.2289762  58.0067697
  94.9582006  34.2613372  58.3234192  93.8292129  33.2990213  58.0214033
  95.8108361  32.9820749  54.6677776  94.8603992  32.9822610  54.5542148
  96.1140847  32.2353483  54.1513810  91.7012678  17.1879431  64.9261137
  92.5644139  16.8316236  65.1364462  91.1278088  16.8493326  65.6136541
 104.2137577  40.6244192  51.6581954 103.6502442  40.5334129  50.8898241
 104.0989972  39.8044096  52.1384446 101.7602008  42.1195383  54.4966174
 102.5523300  41.7786208  54.0812473 101.9998659  42.2290358  55.4168327
 103.7192762  41.3804297  47.3683553 104.4923638  40.8333284  47.2296429
 104.0718161  42.2448546  47.5798014 105.5577805  42.7080679  60.5750452
 105.2667671  43.6126310  60.4597119 106.1934789  42.7497206  61.2894522
 106.4834012  40.0857527  57.1651812 107.0797584  39.8613550  56.4508775
 106.5408983  39.3442273  57.7677260 106.0559040  37.5396963  45.0002003
 106.3084561  37.0178484  44.2385466 105.1183599  37.3763108  45.1028686
 105.7755329  39.4425069  47.2026378 105.6591587  38.7669972  47.8707462
 105.8857589  38.9557443  46.3858531 107.7592357  33.9325115  45.9034416
 107.9266759  34.8005352  46.2704887 107.5689526  34.0952397  44.9795705
 103.9680172  38.8455891  53.6036950 103.0430668  38.7132105  53.8114642
 104.2164585  39.6250110  54.1006893 107.7381578  36.3882773  46.8881082
 107.6181203  36.8339824  47.7266563 107.0434166  36.7368091  46.3294621
 101.3288983  38.4889165  54.4380739 101.4581364  38.7423644  55.3520151
 100.6486434  39.0816873  54.1185394 105.4988470  49.1586415  50.5371214
 105.4212500  50.1094240  50.6159694 104.8950113  48.8132287  51.1946140
 106.2452072  39.1399733  62.7550548 106.9866756  39.6784777  62.4785371
 105.5389057  39.7666022  62.9122099 107.5964188  41.5804473  52.3725083
 108.0602534  41.8592176  51.5829705 107.3320986  40.6787917  52.1898174
 104.4888269  41.1275954  55.3104846 105.0589626  41.5563223  54.6722331
 105.0796381  40.8458539  56.0089032 106.5333074  37.7027625  49.1814648
 107.2357117  38.1548669  49.6488574 106.2013703  37.0611444  49.8094541
 104.9813436  36.2939382  63.5565858 104.3512096  36.9755662  63.7901254
 104.8749524  36.1822463  62.6118996 100.2758408  35.9611178  54.4831782
  99.4857462  36.2168706  54.0071892 100.7669655  36.7759515  54.5883822
 102.2273153  36.3255757  51.4415258 101.4304317  36.4374451  51.9598754
 101.9998746  36.6642409  50.5756149 108.0578821  42.8500460  59.3897773
 108.1223254  43.3120867  60.2255945 107.3489745  42.2197825  59.5180083
  98.5596111  36.2141668  56.9146772  98.8104149  37.0988678  57.1804348
  99.0955659  36.0346270  56.1421864 107.7726839  44.5168568  49.2576753
 107.6372514  45.3620103  49.6861601 108.3136651  44.7187845  48.4942687
 104.2594178  30.5960147  65.9191109 103.8661124  30.0426346  66.5938753
 105.0760319  30.9070726  66.3097626 101.2256236  42.0344006  49.8304678
 101.7380757  42.8287256  49.9810243 101.8778949  41.3370296  49.7638280
 103.0351121  45.1509762  51.9127432 103.2117749  46.0727727  51.7248415
 103.8307954  44.8368181  52.3421811 107.1762139  32.0118027  63.5111365
 107.9171853  32.6125180  63.4315828 107.4080062  31.2695664  62.9529408
 102.3203477  37.1974394  61.7889595 102.2056993  36.2959651  62.0896694
 101.4647995  37.4438091  61.4374411 104.1582436  46.6687936  57.9137774
 104.7089861  46.5404999  57.1414768 103.3193912  46.9682825  57.5632667
  99.1905153  40.3632660  50.6064249 100.0280375  40.7729668  50.3897957
  99.3683421  39.4232102  50.5764443 106.4458729  30.4942514  54.7591062
 107.3111725  30.2985323  54.3996951 106.5136238  30.2652866  55.6860419
 104.0521048  32.7244722  52.1307429 104.6264800  32.5019904  51.3980622
 104.6392030  32.7933417  52.8836030 104.3790635  34.7549183  46.1503314
 103.5427947  35.0923870  46.4712589 104.2395404  34.6198163  45.2130451
 106.3543715  29.5985971  50.8582498 105.7008128  29.2834988  50.2339113
 106.3124190  28.9761712  51.5842321 107.4654920  39.8805266  42.7735790
 106.5581982  39.6494520  42.9726939 107.9625952  39.0842886  42.9609772
  99.2131324  37.7023375  51.2774982  99.0155724  37.1092736  50.5526049
  98.6577988  37.3975585  51.9950921 107.1928048  37.5946482  53.3969576
 107.2476657  36.6420318  53.3212052 106.3819250  37.7505921  53.8810874
 105.1320408  36.2123541  51.1559954 104.3188273  36.5117712  51.5625147
 105.6279402  35.8179230  51.8734437 107.2828986  46.2081298  53.0894219
 107.2405164  46.4342145  52.1602751 108.1991684  45.9744673  53.2380020
 104.6234482  33.7841897  56.7721189 105.2633862  33.6430656  56.0744153
 103.7912013  33.4976410  56.3959791 105.3994786  43.0844327  52.8856182
 106.1935385  42.5894648  52.6838757 104.6886479  42.5562191  52.5223887
 101.7077550  37.2287409  48.9615935 100.7775138  37.1671865  49.1785897
 101.8035022  36.7063362  48.1652576 101.6263099  33.7542222  51.5494176
 101.8869916  34.6687555  51.4403337 102.4480271  33.2866665  51.6990789
 103.0988024  35.1679979  58.7193001 103.7711078  34.9597341  58.0705650
 102.2717811  34.9702065  58.2798233 107.9766062  43.6573349  56.5654019
 107.8377148  43.2892134  57.4379957 107.1880659  44.1720989  56.3937977
 103.5015521  38.4422582  59.4795438 103.3635319  37.7102821  60.0806977
 104.4120445  38.3531482  59.1979626 106.1297822  38.1542541  58.9679118
 106.8397441  37.5135734  58.9265736 106.0867130  38.4055436  59.8905298
 104.8426756  35.1407759  60.7874757 104.3064113  34.6898498  61.4396353
 104.2543465  35.2753668  60.0445221 103.1375300  51.9071809  54.6819416
 103.3771898  52.5390333  55.3598434 102.2944496  51.5559849  54.9684775
 104.2529015  34.5996411  43.3501221 103.3758481  34.4785212  42.9863467
 104.7286768  33.8082489  43.0980109  95.7731155  39.3873570  53.4442728
  96.4602195  39.0735301  52.8563743  95.6179284  40.2914935  53.1709979
 100.5765877  34.2763767  57.8727751 100.4924066  33.6689437  57.1378161
  99.7548584  34.7672785  57.8737248 107.6503161  47.7150931  57.0860920
 107.5773333  48.5205903  57.5980224 107.2080555  47.9142897  56.2608941
 107.4392941  46.9522701  50.5963741 106.6560463  47.4944381  50.6901966
 108.1385686  47.4696681  50.9957982 107.3324560  34.9034714  52.9669631
 106.9622347  34.3505754  53.6550537 107.8283652  34.2992847  52.4144631
 105.1613758  45.3632209  60.0624649 105.8623218  45.9968692  60.2154043
 104.6908873  45.7046940  59.3020288 100.7581477  44.8968564  56.9955752
 101.3434913  44.1512252  57.1283656 100.5606315  45.2072520  57.8792416
 103.6120132  47.9319811  52.0118194 102.9430507  48.4165939  51.5282234
 103.4733001  48.1789031  52.9261573  95.3499131  37.4674164  55.7160195
  95.3883231  36.9337755  56.5097313  94.8439424  36.9409369  55.0971172
 107.7525400  49.9663555  58.6100853 108.3043708  50.1295176  59.3749938
 108.0931594  50.5567992  57.9380877 102.7289894  32.3138704  59.2122737
 102.7931220  33.1753535  58.8000135 102.6657014  31.7012706  58.4795096
 102.2042166  34.3861837  62.8595771 102.8314205  34.0038914  63.4733296
 101.3470085  34.1676039  63.2251464  98.9807709  36.1938266  48.7914126
  99.2761150  35.2848944  48.7381180  98.0795745  36.1726005  48.4695129
 102.5101956  34.2694263  54.7741675 101.7888542  34.8830230  54.6349148
 103.2995212  34.8052027  54.6958321 105.3128269  31.6048689  61.0482327
 105.8362671  31.8510986  61.8108636 105.0940603  32.4368724  60.6285464
 100.7095550  33.8752364  48.9153451 100.3808257  32.9949743  48.7328557
 101.0634921  33.8200032  49.8029841 103.8237374  34.1625333  49.2828929
 104.1633446  34.6911255  48.5607537 104.2709494  34.5005740  50.0587496
 106.5180814  32.5462384  58.7331997 106.1777635  31.7470197  59.1352677
 105.8119821  32.8464095  58.1608830 107.1697286  29.6311697  57.1859320
 107.9923356  29.1572175  57.0638211 107.4135350  30.4102180  57.6858006
 105.8105521  32.6599955  47.4822222 106.5313883  33.0381208  46.9785939
 105.1870825  33.3788832  47.5857200 104.6935865  36.3230817  54.9951299
 104.5480446  36.6371120  55.8875580 104.2161069  36.9415718  54.4422197
 106.5532248  33.3133365  55.0432188 106.5393817  32.4174459  54.7064486
 107.2704676  33.3204029  55.6770474  99.1681527  38.8636162  57.9338960
  98.6234995  39.6395970  58.0659234 100.0460877  39.2106966  57.7758081
 105.9569144  32.1947745  50.3119759 106.0785055  31.2664392  50.5110646
 105.6671186  32.2086431  49.3998074  99.9547549  37.9906058  60.8269117
  99.2129285  38.1388693  61.4133747  99.6340293  38.2514324  59.9635866
 100.4004163  45.8771487  52.8579511 101.2262183  45.5775258  52.4778155
 100.0498215  45.1079109  53.3069300 105.3685696  45.2297955  54.9277185
 104.7465705  44.5668660  54.6279413 106.0390563  45.2559087  54.2450833
  98.6012768  43.7957813  53.8168445  97.7644676  43.3679987  53.6352446
  98.5736413  43.9890256  54.7539236 105.4410223  33.7079743  64.5209691
 105.4898379  34.5841866  64.1387461 105.9832738  33.1657136  63.9481334
 104.9299203  43.7801878  48.4035646 105.0787323  44.4637343  47.7502318
 105.7365646  43.7606968  48.9185101 107.6709512  34.4611115  61.2756050
 106.8012821  34.7544681  61.0038638 107.9068992  35.0451560  61.9963313
 102.6851836  39.8067056  49.4096715 102.4397878  38.9029386  49.6076925
 102.8547750  39.8084206  48.4676193 101.9547483  35.5395413  46.9082876
 101.2616728  35.6139768  46.2522912 101.7099235  34.7755757  47.4304393
 106.9984324  35.5360798  43.1518331 106.0915779  35.2393910  43.2281044
 107.2760305  35.2390616  42.2852617  97.9162264  36.8567161  53.6017377
  97.5965049  36.0032469  53.3091751  97.3695693  37.0715739  54.3575345
 101.6942172  39.5729602  57.3186884 101.9128182  40.5046710  57.3374918
 102.1067946  39.2137577  58.1041688 106.5670037  35.1462808  66.7089633
 106.4666764  36.0957165  66.6401724 106.3491579  34.8181047  65.8365703
 105.7683109  32.3947733  43.2930310 106.6302273  32.7202631  43.5526127
 105.9533453  31.6079229  42.7803376  97.7850524  40.4770073  55.5710499
  97.0913996  40.0624025  55.0580453  98.5323515  40.5190609  54.9743918
 106.4301307  38.5759947  65.5254694 105.9468389  39.3760307  65.7318583
 106.5162246  38.5867892  64.5722138  99.6987267  40.4088326  53.4476514
  99.6757955  40.5076014  52.4958397 100.0087903  41.2553477  53.7693680
 102.3574645  42.4664481  57.5623128 103.3117898  42.4348424  57.4953060
 102.1587168  42.0055105  58.3773354 102.9474027  41.0365598  60.1293926
 103.7666916  41.5309676  60.1528763 103.2210835  40.1197566  60.1011493
 100.7124874  48.0084101  54.5793326 100.5779341  47.2484502  54.0131324
 100.2956936  48.7325001  54.1122115 103.8693999  48.9053418  54.7911769
 103.7526384  49.8498850  54.6890459 103.0486446  48.6026980  55.1797568
  98.2008941  35.3703731  60.8286123  98.8467805  34.8602685  61.3173348
  97.9926092  36.1072413  61.4029548 106.7212552  29.6343776  46.5810019
 106.7091221  30.5785616  46.7378290 107.6135973  29.4513921  46.2869480
 104.8948514  49.5581680  58.0067697 105.7975760  49.5905290  58.3234192
 104.6685884  48.6282131  58.0214033 106.6502116  48.3112666  54.6677776
 105.6997747  48.3114528  54.5542148 106.9534602  47.5645401  54.1513810
 102.5406432  32.5171348  64.9261137 103.4037894  32.1608153  65.1364462
 101.9671843  32.1785243  65.6136541 106.6124910  54.7165488  53.4442728
 107.2995949  54.4027218  52.8563743 106.4573038  55.6206853  53.1709979
 106.1892886  52.7966082  55.7160195 106.2276985  52.2629672  56.5097313
 105.6833179  52.2701287  55.0971172  92.2981546  13.5842014  41.4064722
  92.5378145  14.2160538  42.0843741  91.4550743  13.2330054  41.6930082
 104.2137578  17.6306314  38.3827260 103.6502443  17.5396251  37.6143548
 104.0989973  16.8106219  38.8629753 101.7602010  19.1257506  41.2211481
 102.5523302  18.7848330  40.8057780 101.9998660  19.2352481  42.1413634
 103.7192764  18.3866419  34.0928860 104.4923640  17.8395406  33.9541735
 104.0718163  19.2510668  34.3043321 105.5577806  19.7142801  47.2995759
 105.2667672  20.6188432  47.1842425 106.1934791  19.7559329  48.0139828
 106.4834013  17.0919650  43.8897119 107.0797585  16.8675672  43.1754081
 106.5408985  16.3504395  44.4922566 105.7755330  16.4487191  33.9271684
 105.6591588  15.7732095  34.5952769 105.8857590  15.9619565  33.1103837
 103.9680173  15.8518014  40.3282257 103.0430669  15.7194228  40.5359949
 104.2164586  16.6312233  40.8252199 101.3288984  15.4951287  41.1626046
 101.4581365  15.7485766  42.0765458 100.6486435  16.0878995  40.8430701
 105.4988471  26.1648537  37.2616520 105.4212501  27.1156362  37.3405001
 104.8950115  25.8194410  37.9191447 106.2452073  16.1461856  49.4795854
 106.9866758  16.6846900  49.2030678 105.5389059  16.7728145  49.6367406
 107.5964189  18.5866595  39.0970390 108.0602535  18.8654298  38.3075012
 107.3320987  17.6850040  38.9143480 104.4888270  18.1338077  42.0350153
 105.0589627  18.5625345  41.3967637 105.0796382  17.8520661  42.7334339
 108.0578822  19.8562583  46.1143080 108.1223255  20.3182990  46.9501251
 107.3489746  19.2259948  46.2425389  98.5596112  13.2203791  43.6392079
  98.8104151  14.1050801  43.9049655  99.0955661  13.0408392  42.8667171
 107.7726840  21.5230690  35.9822060 107.6372515  22.3682226  36.4106908
 108.3136653  21.7249968  35.2187994 101.2256237  19.0406128  36.5549985
 101.7380758  19.8349378  36.7055550 101.8778950  18.3432419  36.4883587
 103.0351122  22.1571885  38.6372738 103.2117750  23.0789849  38.4493722
 103.8307956  21.8430304  39.0667118 104.1582438  23.6750058  44.6383081
 104.7089863  23.5467122  43.8660075 103.3193913  23.9744947  44.2877973
  99.1905154  17.3694783  37.3309556 100.0280376  17.7791791  37.1143263
  99.3683422  16.4294225  37.3009749  99.2131325  14.7085498  38.0020289
  99.0155725  14.1154859  37.2771356  98.6577989  14.4037708  38.7196228
 107.2828987  23.2143421  39.8139526 107.2405166  23.4404267  38.8848058
 108.1991686  22.9806796  39.9625327 105.3994788  20.0906450  39.6101488
 106.1935386  19.5956770  39.4084063 104.6886480  19.5624313  39.2469194
 107.9766064  20.6635472  43.2899326 107.8377149  20.2954256  44.1625264
 107.1880660  21.1783111  43.1183283 103.5015523  15.4484705  46.2040745
 103.3635321  14.7164944  46.8052284 104.4120446  15.3593605  45.9224932
 103.1375301  28.9133931  41.4064722 103.3771899  29.5452455  42.0843741
 102.2944497  28.5621971  41.6930082  95.7731156  16.3935693  40.1688034
  96.4602196  16.0797423  39.5809050  95.6179285  17.2977058  39.8955286
 107.6503163  24.7213054  43.8106226 107.5773334  25.5268025  44.3225531
 107.2080556  24.9205019  42.9854248 107.4392942  23.9584824  37.3209048
 106.6560464  24.5006504  37.4147272 108.1385687  24.4758803  37.7203289
 105.1613760  22.3694331  46.7869956 105.8623219  23.0030814  46.9399350
 104.6908875  22.7109063  46.0265595 100.7581478  21.9030686  43.7201058
 101.3434915  21.1574374  43.8528963 100.5606316  22.2134643  44.6037722
 103.6120133  24.9381934  38.7363501 102.9430508  25.4228061  38.2527541
 103.4733003  25.1851154  39.6506879  95.3499133  14.4736286  42.4405502
  95.3883232  13.9399877  43.2342620  94.8439425  13.9471492  41.8216479
 107.7525402  26.9725677  45.3346159 108.3043710  27.1357299  46.0995244
 108.0931595  27.5630115  44.6626184  99.1681528  15.8698284  44.6584267
  98.6234996  16.6458092  44.7904541 100.0460878  16.2169089  44.5003388
  99.9547550  14.9968180  47.5514423  99.2129286  15.1450816  48.1379054
  99.6340295  15.2576446  46.6881173 100.4004164  22.8833609  39.5824818
 101.2262184  22.5837381  39.2023462 100.0498216  22.1141232  40.0314607
 105.3685697  22.2360077  41.6522492 104.7465706  21.5730782  41.3524720
 106.0390564  22.2621209  40.9696140  98.6012769  20.8019936  40.5413752
  97.7644677  20.3742110  40.3597753  98.5736414  20.9952379  41.4784543
 104.9299204  20.7864001  35.1280952 105.0787324  21.4699465  34.4747625
 105.7365647  20.7669091  35.6430408 102.6851837  16.8129178  36.1342021
 102.4397879  15.9091508  36.3322231 102.8547752  16.8146329  35.1921499
  97.9162266  13.8629284  40.3262684  97.5965050  13.0094592  40.0337058
  97.3695694  14.0777862  41.0820651 101.6942173  16.5791725  44.0432190
 101.9128183  17.5108833  44.0620224 102.1067947  16.2199699  44.8286994
  97.7850526  17.4832195  42.2955805  97.0913997  17.0686148  41.7825760
  98.5323517  17.5252732  41.6989224 106.4301309  15.5822069  52.2500001
 105.9468390  16.3822429  52.4563890 106.5162248  15.5930014  51.2967445
  99.6987268  17.4150449  40.1721820  99.6757956  17.5138136  39.2203703
 100.0087905  18.2615600  40.4938986 102.3574646  19.4726604  44.2868435
 103.3117900  19.4410546  44.2198366 102.1587170  19.0117228  45.1018661
 102.9474028  18.0427720  46.8539232 103.7666917  18.5371799  46.8774070
 103.2210836  17.1259688  46.8256800 100.7124875  25.0146224  41.3038633
 100.5779343  24.2546624  40.7376631 100.2956937  25.7387123  40.8367421
 103.8694001  25.9115541  41.5157075 103.7526385  26.8560973  41.4135765
 103.0486447  25.6089102  41.9042874 104.8948515  26.5643802  44.7313004
 105.7975761  26.5967413  45.0479499 104.6685885  25.6344253  44.7459339
 106.6502117  25.3174789  41.3923082 105.6997748  25.3176651  41.2787455
 106.9534603  24.5707524  40.8759117 106.6124911  31.7227611  40.1688034
 107.2995951  31.4089341  39.5809050 106.4573040  32.6268975  39.8955286
 106.1892887  29.8028204  42.4405502 106.2276987  29.2691795  43.2342620
 105.6833180  29.2763410  41.8216479  12.8179204  48.5902777  98.7951247
  12.1440902  48.8934474  99.4036204  13.2045026  49.3931857  98.4456704
  16.7236089  45.8753033  97.0678693  16.6449721  45.5412896  97.9614451
  17.5445756  46.3674801  97.0670166  14.2940041  43.1921028  96.6888672
  14.9975891  43.3971031  97.3046327  13.5702690  43.7597790  96.9537755
  17.4987536  55.9536113 104.7600724  16.9352401  55.8626050 103.9917012
  17.3839931  55.1336017 105.2403217  23.0787094  59.6207081 100.0715189
  22.4275074  60.2061161  99.6849203  23.8731457  60.1513275 100.1310226
  17.0042721  56.7096218 100.4702323  17.7773597  56.1625205 100.3315199
  17.3568120  57.5740467 100.6816785  19.3408999  52.8688884  98.1020773
  19.5934520  52.3470405  97.3404236  18.4033558  52.7055029  98.2047457
  24.3852282  51.8724662 105.9095516  25.1715371  51.4544085 105.5585933
  24.6490986  52.7770754 106.0777165  24.5562359  57.3097513 100.6084173
  23.9208192  57.3832139 101.3205078  24.2259766  57.8991111  99.9303252
  29.7860709  51.8099895 106.8128495  30.5185881  51.2399112 107.0466324
  29.0300065  51.4221496 107.2535001  19.0605288  54.7716990 100.3045148
  18.9441546  54.0961893 100.9726232  19.1707548  54.2849364  99.4877301
  21.4036829  54.2327137 104.0091837  21.0395036  53.7057758 104.7204759
  22.2603945  53.8425606 103.8358323  21.0442316  49.2617037  99.0053186
  21.2116718  50.1297273  99.3723657  20.8539485  49.4244318  98.0814475
  21.0231537  51.7174694  99.9899853  20.9031162  52.1631745 100.8285333
  20.3284125  52.0660012  99.4313391  18.7838429  64.4878336 103.6389984
  18.7062459  65.4386161 103.7178465  18.1800072  64.1424208 104.2964910
  26.7216603  52.1896167 100.8180187  27.6334459  52.4223554 100.6427884
  26.2126250  52.7733212 100.2555265  25.3286185  57.1721986 108.2093768
  24.6995048  57.3367700 107.5069836  24.9411847  57.5863595 108.9804732
  29.2075417  58.1076424 105.5638132  28.5226455  58.4875325 105.0135165
  29.2919266  58.7171750 106.2970080  20.8814147  56.9096394 105.4743853
  21.3452493  57.1884097 104.6848476  20.6170945  56.0079838 105.2916944
  19.8183033  53.0319546 102.2833418  20.5207077  53.4840590 102.7507345
  19.4863662  52.3903365 102.9113312  27.5772177  58.6308338 110.3355833
  28.3989620  58.2288525 110.0538515  27.5734580  58.5276572 111.2871949
  35.6678170  54.9747087 106.6840804  34.9141878  54.4054485 106.5284809
  35.8025711  54.9409751 107.6311439  21.0576798  59.8460489 102.3595524
  20.9222473  60.6912025 102.7880372  21.5986610  60.0479766 101.5961457
  14.5106195  57.3635927 102.9323449  15.0230716  58.1579177 103.0829013
  15.1628908  56.6662217 102.8657050  16.3201080  60.4801683 105.0146202
  16.4967708  61.4019648 104.8267186  17.1157913  60.1660102 105.4440582
  24.3719544  53.3599662  99.3966852  23.8566168  54.1304266  99.6355240
  24.0996853  52.6864798 100.0199914  29.3453818  56.1132016 101.3320026
  28.5683261  55.7743176 100.8875188  30.0245299  56.1184640 100.6574991
  24.1605847  51.2326754 101.2226633  23.8555983  51.5472903 102.0736777
  25.1136289  51.3108174 101.2653966  22.6052279  57.3916977 102.8719587
  22.0773641  56.6569737 102.5592825  22.1039782  58.1691654 102.6259556
  27.5845125  55.5865998 107.9886634  26.9268800  56.2765259 108.0766762
  28.3885524  55.9762430 108.3320620  26.3950584  53.9410370 106.0390575
  26.9082466  54.5740362 106.5412285  27.0451808  53.3411566 105.6733936
  17.6640594  50.0841105  99.2522084  16.8277906  50.4215791  99.5731359
  17.5245363  49.9490084  98.3149221  20.7504879  55.2097187  95.8754560
  19.8431941  54.9786441  96.0745709  21.2475911  54.4134807  96.0628542
  23.6572958  63.9194695  98.7951247  22.9834657  64.2226391  99.4036204
  24.0438780  64.7223775  98.4456704  23.6566463  52.8151242 103.4151596
  24.4038282  53.3272639 103.1058718  23.9258052  52.4935294 104.2755990
  21.9293113  55.3109782 100.3978551  21.0204332  55.0268815 100.4951020
  21.9588197  55.7308861  99.5381857  27.1612380  58.9216372 104.1669718
  26.7074707  58.0807282 104.2234909  26.5306347  59.5577770 104.5044498
  26.1045300  49.8508358 105.3970386  25.3668057  49.3385744 105.7280628
  26.3572073  49.4108739 104.5853662  25.6045319  60.7592869 105.1019536
  25.8968294  61.3197926 104.3831902  26.1143940  61.0521430 105.8572695
  21.6269201  56.8518526  97.7366629  21.1888630  56.1354385  97.2772266
  22.3679641  57.0794641  97.1751721  20.5678945  61.5373220 106.1912989
  20.5255123  61.7634066 105.2621521  21.4841643  61.3036594 106.3398791
  29.7442315  55.1275723 103.7942948  29.6060214  55.3177319 102.8664137
  29.3878534  55.8895106 104.2510999  29.7711695  57.1952250 108.8054219
  30.2048202  57.1027539 109.6537273  30.4843276  57.1709751 108.1674235
  18.6844745  58.4136249 105.9874952  19.4785344  57.9186569 105.7857527
  17.9736438  57.8854112 105.6242658  23.5039590  60.7954344 110.3387320
  23.5576612  61.3645280 111.1065036  22.6354371  60.9656229 109.9741357
  14.9927509  52.5579330 102.0634705  14.0625097  52.4963786 102.2804667
  15.0884981  52.0355283 101.2671346  21.8564173  64.0874367 101.0098326
  22.0315929  63.6162410 101.8243948  21.1696961  64.7140133 101.2379587
  22.8121237  58.3646873 107.0561627  22.4771069  58.3247643 107.9519277
  22.3125182  57.6991589 106.5832037  25.7480428  55.7102908  97.3298687
  25.1309599  54.9849736  97.2331739  25.2796917  56.4712268  96.9865761
  17.5378974  49.9288332  96.4519991  16.6608440  49.8077133  96.0882238
  18.0136727  49.1374410  96.1998880  20.7242900  62.2814622 103.6982512
  19.9410422  62.8236303 103.7920736  21.4235645  62.7988602 104.0976753
  31.8869308  53.7949617 107.9835008  31.8759184  54.6774333 107.6128941
  31.0186687  53.4421168 107.7889545  25.1169331  56.8480939 103.9155140
  24.1825610  56.9682401 103.7459845  25.2945999  55.9453406 103.6515150
  28.5041882  52.6898258 104.4505174  28.9702334  53.5226250 104.3765477
  28.9549383  52.2243240 105.1550433  26.5718113  59.0342080 101.4491326
  26.8477957  58.9198674 102.3585201  25.7022612  58.6359564 101.4103500
  23.2072177  63.2828430 105.0924140  23.3894572  62.4650086 105.5551892
  24.0305163  63.4996123 104.6549030  23.5414343  62.2096616 102.3539189
  24.0702109  61.6989070 101.7409351  23.8042562  61.8939146 103.2184722
  16.8970091  63.2611732 105.1136965  16.2280466  63.7457860 104.6301005
  16.7582961  63.5080953 106.0280343  24.1743747  63.2437451 108.6983305
  24.0494886  62.4427191 108.1894251  24.8322838  63.7383645 108.2097275
  26.2378655  61.0446471 110.3262855  25.2908991  60.9251823 110.2541182
  26.5861428  60.1568969 110.4089117  23.2425088  60.8399188 106.5267207
  23.0950051  59.9115895 106.7074777  24.0678582  60.8619278 106.0424283
  26.8459210  61.6627746 107.6132080  27.7705758  61.4570608 107.4756531
  26.6774514  61.4144147 108.5221422  19.0955480  47.9891876 100.5840992
  19.8163842  48.3673129 100.0804709  18.4720784  48.7080753 100.6875970
  23.2386603  48.6937025 101.5199325  23.4550217  49.5761663 101.2188153
  22.7580670  48.3023239 100.7904967  26.6354526  62.1813414 102.9694172
  26.8091404  61.6159836 102.2168024  27.1283418  62.9814309 102.7873662
  32.4893918  54.9449837 104.5884471  32.9325064  54.1957162 104.1903595
  31.6120428  54.9359973 104.2058203  27.6229699  61.4980178 100.0691070
  28.3180604  62.1186871 100.2878384  27.9652849  60.6475529 100.3443448
  29.5221122  58.9479884 101.5978401  30.0472446  59.2867156 100.8727721
  29.4343475  58.0126899 101.4141535  21.2061783  65.0151867 105.9573654
  20.7666773  64.5228246 106.6506511  21.9569900  64.4724835 105.7165729
  18.6535655  60.5589876 108.0295955  18.0315664  59.8960581 107.7298183
  19.3240522  60.5851008 107.3469603  18.2149162  59.1093799 101.5054416
  18.3637282  59.7929264 100.8521089  19.0215605  59.0898889 102.0203872
  32.0326782  56.4155075 106.9806919  32.8673674  56.8544879 107.1444479
  32.1685911  55.9393728 106.1615165  15.9701795  55.1358977 102.5115485
  15.7247837  54.2321307 102.7095695  16.1397709  55.1376127 101.5694963
  15.2397442  50.8687335 100.0101646  14.5466687  50.9431690  99.3541682
  14.9949194  50.1047678 100.5323163  21.7144567  61.6041930  98.9766163
  21.1418534  62.2232117  98.5236635  22.2877361  62.1541292  99.5106085
  24.9341827  61.8879080 100.1074746  25.8672500  61.8224642 100.3107621
  24.8465040  62.7235347  99.6489278  27.5629844  61.2044950  97.0678693
  27.4843475  60.8704814  97.9614451  28.3839511  61.6966718  97.0670166
  22.0991366  52.9402743  96.3182216  23.0450471  52.8108951  96.3870634
  21.7205611  52.2017405  96.7951644  36.0784585  55.1322696 109.4161049
  36.8087973  54.8707985 109.9768752  35.4691530  54.3951418 109.4563117
  34.1599882  53.2730559 110.0135500  33.4333046  53.1386524 109.4051991
  33.7447169  53.5807388 110.8192218  20.2834283  50.8652719  96.2537101
  19.3765738  50.5685832  96.3299815  20.5610264  50.5682537  95.3871387
  19.0533068  47.7239654  96.3949080  19.9152232  48.0494553  96.6544898
  19.2383412  46.9371150  95.8822146  27.2065704  46.5968181 103.5384303
  26.6264373  47.2552985 103.1562356  26.9401637  45.7745525 103.1271721
  25.9890582  48.7568271 102.5940652  25.1016437  49.0417922 102.3760846
  26.4044571  48.5962034 101.7467929  29.3405118  48.7814792 106.3094991
  30.1165508  49.2711244 106.5819608  28.6153252  49.2072846 106.7666860
  31.7777677  49.4942411 107.3668931  32.3722168  49.2538147 106.6562240
  31.8504261  48.7749542 107.9942468  25.1333796  58.5212946  96.6888672
  25.8369646  58.7262948  97.3046327  24.4096444  59.0889708  96.9537755
  25.9631606  54.2722807 102.8090942  25.9066807  54.7291358 101.9698574
  26.5159948  53.5113492 102.6313785  29.7736412  50.0612539 103.6341061
  29.5173346  49.6609175 104.4649269  29.1489280  50.7756333 103.5091200
  34.0848750  52.8008612 106.1412353  33.5248308  52.8701801 106.9143915
  33.4792253  52.6249597 105.4211849  27.0420493  58.9595475  98.7387132
  27.8766097  58.5276673  98.5564606  26.8804836  58.7877489  99.6664026
  26.6966385  55.4627588 100.1043471  26.6415189  55.2971860  99.1631915
  26.0712440  56.1703621 100.2605661  20.0062511  44.9635697  99.6828789
  19.9941180  45.9077537  99.8397060  20.8985933  44.7805843  99.3888251
  19.9352075  63.6404588 107.7696546  18.9847706  63.6406449 107.6560918
  20.2384561  62.8937322 107.2532581  35.6704768  69.4765126 108.8342308
  36.3083178  69.3571873 108.1305648  35.5525611  70.4245970 108.8930261
  32.4794474  69.4292554 108.7703833  32.1412986  69.3133619 107.8824368
  33.3484243  69.0283719 108.7504839  28.3381290  71.2828031 104.7600724
  27.7746155  71.1917968 103.9917012  28.2233685  70.4627935 105.2403217
  32.9614257  70.5827406 114.7290039  32.9502898  70.1880204 113.8570542
  33.1234897  69.8493478 115.3223810  25.8845722  72.7779222 107.5984944
  26.6767014  72.4370047 107.1831244  26.1242372  72.8874197 108.5187098
  33.9180849  74.9498998 100.0715189  33.2668829  75.5353079  99.6849203
  34.7125212  75.4805193 100.1310226  27.8436476  72.0388135 100.4702323
  28.6167352  71.4917123 100.3315199  28.1961875  72.9032385 100.6816785
  30.6077725  70.7441366 110.2670582  31.2041298  70.5197389 109.5527545
  30.6652697  70.0026112 110.8696030  30.1802754  68.1980802  98.1020773
  30.4328274  67.6762323  97.3404236  29.2427313  68.0346947  98.2047457
  35.2246037  67.2016580 105.9095516  36.0109126  66.7836003 105.5585933
  35.4884741  68.1062672 106.0777165  35.3956114  72.6389430 100.6084173
  34.7601947  72.7124057 101.3205078  35.0653520  73.2283029  99.9303252
  40.6254464  67.1391813 106.8128495  41.3579636  66.5691030 107.0466324
  39.8693819  66.7513414 107.2535001  29.8999042  70.1008907 100.3045148
  29.7835301  69.4253811 100.9726232  30.0101302  69.6141281  99.4877301
  32.2430583  69.5619055 104.0091837  31.8788791  69.0349676 104.7204759
  33.0997699  69.1717524 103.8358323  38.1479884  60.8513387 111.2723104
  37.8163209  61.7208798 111.0484319  37.5525497  60.5349671 111.9517134
  31.8836070  64.5908954  99.0053186  32.0510473  65.4589191  99.3723657
  31.6933239  64.7536236  98.0814475  34.6411404  73.0525933 110.6719016
  34.3412127  73.9550972 110.5634824  34.2962463  72.7858116 111.5240169
  28.0923885  69.5039730 106.7055721  27.1674382  69.3715944 106.9133412
  28.3408298  70.2833949 107.2025663  38.0408547  65.5708473 108.3516454
  37.1325425  65.5023882 108.0575215  37.9896143  66.0480418 109.1798279
  31.8625291  67.0466612  99.9899853  31.7424916  67.4923663 100.8285333
  31.1677880  67.3951929  99.4313391  25.4532696  69.1473004 107.5399510
  25.5825077  69.4007483 108.4538921  24.7730147  69.7400712 107.2204165
  29.6232183  79.8170254 103.6389984  29.5456213  80.7678079 103.7178465
  29.0193827  79.4716126 104.2964910  39.9070194  63.7724912 110.1294328
  39.2644574  64.0657445 109.4834122  39.4025122  63.6577832 110.9347524
  37.5610357  67.5188085 100.8180187  38.4728214  67.7515472 100.6427884
  37.0520005  68.1025129 100.2555265  35.8451125  71.9412713 114.4541479
  36.2534481  71.4995123 113.7096112  35.1228387  71.3665340 114.7075672
  32.1982195  66.8785320 111.8275036  33.0443390  67.3024733 111.9709685
  32.1380833  66.2218944 112.5213599  36.1679940  72.5013903 108.2093768
  35.5388802  72.6659618 107.5069836  35.7805602  72.9155513 108.9804732
  40.0469172  73.4368341 105.5638132  39.3620210  73.8167243 105.0135165
  40.1313021  74.0463668 106.2970080  35.3481640  64.5389688 113.4856210
  35.1042572  65.2931748 112.9490486  35.6241571  64.9175036 114.3203457
  37.3020103  71.0828300 112.1633476  37.5136998  71.7260060 111.4867857
  37.2549851  70.2490617 111.6955406  34.9046332  63.6946121 109.0670048
  34.0430811  63.9927375 109.3586785  34.9308767  63.9116520 108.1351080
  31.7207902  72.2388312 105.4743853  32.1846247  72.5176014 104.6848476
  31.4564700  71.3371756 105.2916944  28.6131983  71.7859793 108.4123617
  29.1833340  72.2147061 107.7741101  29.2040095  71.5042378 109.1107802
  30.6576788  68.3611464 102.2833418  31.3600831  68.8132508 102.7507345
  30.3257416  67.7195283 102.9113312  24.4002122  66.6195017 107.5850552
  23.6101176  66.8752545 107.1090663  24.8913369  67.4343354 107.6902593
  38.4165931  73.9600256 110.3355833  39.2383375  73.5580443 110.0538515
  38.4128334  73.8568490 111.2871949  26.3516867  66.9839596 104.5434029
  25.5548030  67.0958290 105.0617524  26.1242459  67.3226248 103.6774919
  46.5071924  70.3039004 106.6840804  45.7535633  69.7346402 106.5284809
  46.6419465  70.2701669 107.6311439  31.8970552  75.1752407 102.3595524
  31.7616227  76.0203942 102.7880372  32.4380365  75.3771684 101.5961457
  25.3499950  72.6927845 102.9323449  25.8624470  73.4871095 103.0829013
  26.0022663  71.9954135 102.8657050  27.1594834  75.8093601 105.0146202
  27.3361463  76.7311566 104.8267186  27.9551668  75.4952020 105.4440582
  35.6220267  76.0778773 114.5177267  35.6038742  76.8987654 114.0257536
  36.5440187  75.9532848 114.7427408  35.2463016  58.6982968 110.8894417
  34.9027285  59.5884610 110.8133528  35.6141978  58.5084626 110.0264002
  23.3148866  71.0216499 103.7083019  24.1524088  71.4313507 103.4916727
  23.4927134  70.0815941 103.6783213  35.2113299  68.6891579  99.3966852
  34.6959922  69.4596184  99.6355240  34.9390607  68.0156716 100.0199914
  32.7960410  63.5341280 104.4552091  31.9402006  63.1448131 104.2757729
  33.2087361  63.6133241 103.5951876  34.3259556  61.0687624 108.8543650
  33.8224352  61.0317759 108.0411456  34.6190163  61.9780366 108.9140307
  30.5702442  61.1526353 107.8609832  31.4355439  60.9569162 107.5015722
  30.6379951  60.9236705 108.7879189  40.1847573  71.4423934 101.3320026
  39.4077015  71.1035094 100.8875188  40.8639054  71.4476557 100.6574991
  34.9999602  66.5618672 101.2226633  34.6949737  66.8764821 102.0736777
  35.9530044  66.6400091 101.2653966  33.4446034  72.7208895 102.8719587
  32.9167395  71.9861654 102.5592825  32.9433536  73.4983571 102.6259556
  38.4238880  70.9157915 107.9886634  37.7662554  71.6057177 108.0766762
  39.2279279  71.3054347 108.3320620  28.1764761  63.3828561 105.2326199
  28.7508513  63.1603743 104.4999392  28.7635744  63.4517256 105.9854800
  37.2344338  69.2702288 106.0390575  37.7476220  69.9032280 106.5412285
  37.8845562  68.6703484 105.6733936  28.5034348  65.4133022  99.2522084
  27.6671661  65.7507709  99.5731359  28.3639118  65.2782002  98.3149221
  30.4787429  60.2569810 103.9601268  29.8251841  59.9418827 103.3357883
  30.4367903  59.6345551 104.6861091  31.5898634  70.5389105  95.8754560
  30.6825696  70.3078359  96.0745709  32.0869666  69.7426724  96.0628542
  34.4966713  79.2486612  98.7951247  33.8228411  79.5518309  99.4036204
  34.8832535  80.0515693  98.4456704  33.7125169  66.7451744 108.2848916
  32.7947731  66.9666691 108.1270604  34.1285313  66.8198054 107.4260623
  34.4960217  68.1443159 103.4151596  35.2432036  68.6564557 103.1058718
  34.7651807  67.8227212 104.2755990  32.7686867  70.6401700 100.3978551
  31.8598086  70.3560733 100.4951020  32.7981951  71.0600779  99.5381857
  38.0006135  74.2508290 104.1669718  37.5468462  73.4099199 104.2234909
  37.3700101  74.8869688 104.5044498  36.9439054  65.1800276 105.3970386
  36.2061811  64.6677662 105.7280628  37.1965828  64.7400657 104.5853662
  36.4439074  76.0884786 105.1019536  36.7362048  76.6489843 104.3831902
  36.9537694  76.3813347 105.8572695  37.0450682  57.9576528 105.9912155
  37.3509558  57.0973891 105.7038070  37.7703286  58.5494148 105.7911149
  23.3375038  68.3607214 104.3793753  23.1399437  67.7676575 103.6544819
  22.7821702  68.0559424 105.0969692  31.3171761  68.2530321 106.4988346
  31.3720371  67.3004157 106.4230822  30.5062963  68.4089760 106.9829644
  32.4662955  72.1810444  97.7366629  32.0282385  71.4646303  97.2772266
  33.2073396  72.4086559  97.1751721  29.2564121  66.8707380 104.2578725
  28.4431987  67.1701551 104.6643917  29.7523115  66.4763069 104.9753207
  31.4072699  76.8665137 106.1912989  31.3648878  77.0925984 105.2621521
  32.3235398  76.6328512 106.3398791  34.8538333  67.3349205 113.0893619
  35.2087721  67.5620678 113.9488084  35.5010464  67.6667582 112.4670874
  40.5836070  70.4567641 103.7942948  40.4453968  70.6469237 102.8664137
  40.2272289  71.2187024 104.2510999  28.7478196  64.4425736 109.8739960
  29.3877575  64.3014495 109.1762923  27.9155726  64.1560249 109.4978562
  40.6105449  72.5244168 108.8054219  41.0441956  72.4319457 109.6537273
  41.3237030  72.5001668 108.1674235  29.5238500  73.7428166 105.9874952
  30.3179098  73.2478486 105.7857527  28.8130192  73.2146029 105.6242658
  34.3433344  76.1246262 110.3387320  34.3970367  76.6937198 111.1065036
  33.4748126  76.2948147 109.9741357  25.8321263  67.8871248 102.0634705
  24.9018851  67.8255704 102.2804667  25.9278735  67.3647201 101.2671346
  25.7506812  64.4126061 104.6512947  26.0113630  65.3271394 104.5422107
  26.5723985  63.9450503 104.8009559  27.2231738  65.8263818 111.8211771
  27.8954791  65.6181180 111.1724420  26.3961524  65.6285904 111.3817003
  41.4720999  72.5667868 111.3387105  41.6656889  73.4713679 111.5846380
  41.3721617  72.1075287 112.1725690  33.1257310  62.4525759 113.8377432
  32.4785225  63.1515709 113.7441908  33.8958325  62.8861903 114.2053680
  33.3021444  70.2906524 111.8974252  34.2313504  70.4417684 111.7243219
  32.8812474  70.3790545 111.0422898  32.1009776  74.3157188 109.6672789
  31.9620862  73.9475973 110.5398727  31.3124372  74.8304828 109.4956747
  32.6957928  79.4166285 101.0098326  32.8709684  78.9454328 101.8243948
  32.0090716  80.0432051 101.2379587  33.6514991  73.6938791 107.0561627
  33.3164824  73.6539561 107.9519277  33.1518937  73.0283507 106.5832037
  36.5874183  71.0394825  97.3298687  35.9703353  70.3141654  97.2331739
  36.1190671  71.8004186  96.9865761  30.2541536  68.8126380 112.0697888
  30.9641154  68.1719573 112.0284506  30.2110844  69.0639275 112.9924069
  28.9670470  65.7991598 113.8893527  28.4307827  65.3482337 114.5415124
  28.3787178  65.9337507 113.1463992  28.3772729  65.2580250  96.4519991
  27.5002195  65.1369050  96.0882238  28.8530482  64.4666328  96.1998880
  38.2445722  73.7133318 113.2218447  37.3572500  73.3759239 113.3444846
  38.8144273  72.9816349 113.4587212  24.7009591  64.9347606 110.9746522
  24.6167780  64.3273275 110.2396932  23.8792297  65.4256624 110.9756018
  31.5636655  77.6106540 103.6982512  30.7804176  78.1528220 103.7920736
  32.2629400  78.1280520 104.0976753  34.8733305  63.4201169 106.3416717
  35.3702004  62.6671132 106.0217787  34.1020286  63.4565486 105.7759926
  42.7263062  69.1241535 107.9835008  42.7152938  70.0066250 107.6128941
  41.8580442  68.7713086 107.7889545  35.9563085  72.1772857 103.9155140
  35.0219364  72.2974319 103.7459845  36.1339754  71.2745323 103.6515150
  31.4568273  65.5618552 106.0688401  31.0866061  65.0089593 106.7569307
  31.9527366  64.9576686 105.5163402  39.3435637  68.0190176 104.4505174
  39.8096089  68.8518168 104.3765477  39.7943137  67.5535158 105.1550433
  37.4111868  74.3633997 101.4491326  37.6871712  74.2490592 102.3585201
  36.5416367  73.9651482 101.4103500  37.3152299  60.3870763 108.4896076
  36.4015379  60.6174990 108.6578283  37.7445401  60.4709207 109.3410108
  37.0858758  68.5760655 110.9895970  36.4330208  68.8236562 110.3348423
  37.4639138  67.7624793 110.6558447  34.0465932  78.6120348 105.0924140
  34.2288326  77.7942004 105.5551892  34.8698918  78.8288040 104.6549030
  34.3808097  77.5388533 102.3539189  34.9095864  77.0280988 101.7409351
  34.6436317  77.2231063 103.2184722  27.7363845  78.5903650 105.1136965
  27.0674221  79.0749778 104.6301005  27.5976715  78.8372870 106.0280343
  26.8533607  62.9722543 112.3141508  26.9174934  63.8337374 111.9018905
  26.7900727  62.3596545 111.5813866  23.1051422  66.8522105 101.8932897
  23.4004863  65.9432783 101.8399950  22.2039458  66.8309844 101.5713899
  35.0137501  78.5729369 108.6983305  34.8888641  77.7719109 108.1894251
  35.6716592  79.0675562 108.2097275  26.6345669  64.9278101 107.8760445
  25.9132255  65.5414069 107.7367919  27.4238925  65.4635866 107.7977091
  37.0772410  76.3738389 110.3262855  36.1302745  76.2543740 110.2541182
  37.4255183  75.4860887 110.4089117  29.4371983  62.2632528 114.1501097
  29.9606385  62.5094825 114.9127406  29.2184316  63.0952563 113.7304234
  24.8339264  64.5336203 102.0172222  24.5051970  63.6533581 101.8347328
  25.1878635  64.4783871 102.9048611  34.0818843  76.1691105 106.5267207
  33.9343805  75.2407813 106.7074777  34.9072336  76.1911196 106.0424283
  27.9481087  64.8209172 102.3847700  28.2877160  65.3495094 101.6626308
  28.3953208  65.1589578 103.1606266  37.6852965  76.9919664 107.6132080
  38.6099512  76.7862525 107.4756531  37.5168268  76.7436065 108.5221422
  30.6424528  63.2046223 111.8350768  30.3021348  62.4054036 112.2371447
  29.9363534  63.5047934 111.2627601  31.2941000  60.2895535 110.2878091
  32.1167069  59.8156014 110.1656981  31.5379063  61.0686019 110.7876777
  29.9349234  63.3183794 100.5840992  30.6557597  63.6965047 100.0804709
  29.3114538  64.0372671 100.6875970  34.0780357  64.0228943 101.5199325
  34.2943972  64.9053581 101.2188153  33.5974424  63.6315156 100.7904967
  28.8179579  66.9814656 108.0970069  28.6724159  67.2954959 108.9894351
  28.3404782  67.5999556 107.5440968  30.6775961  63.9717204 108.1450959
  30.6637530  63.0758297 107.8083257  31.3948390  63.9787868 108.7789245
  32.5302092  64.4054544 110.1904086  32.2719870  65.3271615 110.1888417
  31.9987133  64.0084979 110.8804550  37.4748281  77.5105331 102.9694172
  37.6485158  76.9451754 102.2168024  37.9677172  78.3106226 102.7873662
  30.0812857  62.8531584 103.4138529  30.2028769  61.9248231 103.6129416
  29.7914900  62.8670270 102.5016844  32.9504048  60.5386495 106.5505249
  32.9725745  60.6025828 105.5957228  33.3672107  59.6991003 106.7445755
  43.3287672  70.2741754 104.5884471  43.7718818  69.5249080 104.1903595
  42.4514182  70.2651891 104.2058203  38.4623453  76.8272096 100.0691070
  39.1574358  77.4478789 100.2878384  38.8046604  75.9767447 100.3443448
  40.3614877  74.2771801 101.5978401  40.8866201  74.6159074 100.8727721
  40.2737229  73.3418817 101.4141535  32.0455537  80.3443785 105.9573654
  31.6060528  79.8520163 106.6506511  32.7963654  79.8016752 105.7165729
  29.4929409  75.8881794 108.0295955  28.8709419  75.2252499 107.7298183
  30.1634276  75.9142926 107.3469603  40.1706658  71.7597171 114.2162327
  40.2204663  71.5947179 115.1577850  40.0620581  70.8924430 113.8260208
  29.0542916  74.4385717 101.5054416  29.2031037  75.1221181 100.8521089
  29.8609360  74.4190807 102.0203872  37.4610420  67.7428099 115.5321634
  38.3620283  67.6034564 115.2405632  37.5358395  67.9082554 116.4719811
  31.7953225  65.1194954 114.3774820  30.9256535  65.4128520 114.1057409
  32.0312706  65.7035399 115.0982084  42.8720537  71.7446993 106.9806919
  43.7067428  72.1836797 107.1444479  43.0079666  71.2685646 106.1615165
  39.9212043  69.3026728 112.9284407  40.3966164  69.4954374 112.1203258
  38.9977608  69.3585913 112.6827790  26.8095549  70.4650895 102.5115485
  26.5641591  69.5613225 102.7095695  26.9791464  70.4668045 101.5694963
  34.4992259  61.3374571 111.8940241  35.0174203  62.0735598 111.5686729
  34.1447392  61.6438564 112.7287000  26.0791197  66.1979252 100.0101646
  25.3860442  66.2723607  99.3541682  25.8342949  65.4339596 100.5323163
  34.7504853  57.7574854 107.4141137  35.0306607  57.0898043 108.0401564
  35.5355460  57.9503949 106.9015801  32.5538322  76.9333848  98.9766163
  31.9812289  77.5524035  98.5236635  33.1271116  77.4833209  99.5106085
  38.6213712  66.1792488 111.1612712  39.5731135  66.2790585 111.1824936
  38.4517162  65.3870756 111.6710797  36.6428091  63.2648071 111.3472113
  36.0478023  63.5453084 110.6518602  36.3577788  63.7541972 112.1188854
  35.7735582  77.2170998 100.1074746  36.7066255  77.1516559 100.3107621
  35.6858794  78.0527265  99.6489278  38.4023598  76.5336868  97.0678693
  38.3237230  76.1996732  97.9614451  39.2233265  77.0258636  97.0670166
  41.1001789  69.3998607 110.2755012  41.0678110  68.4614608 110.4614696
  41.7102413  69.4782644 109.5420837  32.9385120  68.2694660  96.3182216
  33.8844225  68.1400868  96.3870634  32.5599365  67.5309322  96.7951644
  41.2496278  66.1909651 110.3213295  40.7335327  65.4068107 110.1343224
  42.1336226  65.8628367 110.4859815  38.9107005  59.9350666 106.2809108
  38.7131826  59.6265755 107.1652440  39.5206710  60.6612305 106.4107038
  46.9178339  70.4614614 109.4161049  47.6481728  70.1999902 109.9768752
  46.3085285  69.7243336 109.4563117  44.9993636  68.6022477 110.0135500
  44.2726800  68.4678442 109.4051991  44.5840923  68.9099305 110.8192218
  31.1228037  66.1944637  96.2537101  30.2159493  65.8977749  96.3299815
  31.4004018  65.8974455  95.3871387  22.0405978  67.5151000 106.7036148
  21.7208762  66.6616308 106.4110522  21.4939406  67.7299578 107.4594115
  32.7390103  60.7381526 102.4081342  31.9290832  60.3928611 102.7836589
  33.4274520  60.4289070 102.9968954  34.6680652  59.8159573 104.0305639
  35.2211690  60.2355027 104.6895662  34.9050738  58.8895321 104.0728595
  29.8926822  63.0531572  96.3949080  30.7545986  63.3786470  96.6544898
  30.0777166  62.2663068  95.8822146  38.0459459  61.9260098 103.5384303
  37.4658128  62.5844902 103.1562356  37.7795391  61.1037443 103.1271721
  36.4963025  61.3265156 105.7405624  36.9962803  61.4381691 104.9319943
  37.1398633  61.0226209 106.3806432  23.8230980  71.0672165 106.5495284
  23.8001669  71.1659853 105.5977167  24.1331617  71.9137316 106.8712450
  36.8284337  64.0860189 102.5940652  35.9410192  64.3709839 102.3760846
  37.2438326  63.9253952 101.7467929  40.1798873  64.1106710 106.3094991
  40.9559263  64.6003162 106.5819608  39.4547007  64.5364764 106.7666860
  42.6171431  64.8234329 107.3668931  43.2115922  64.5830065 106.6562240
  42.6898015  64.1041460 107.9942468  35.9727550  73.8504863  96.6888672
  36.6763400  74.0554866  97.3046327  35.2490199  74.4181625  96.9537755
  36.8025360  69.6014725 102.8090942  36.7460562  70.0583276 101.9698574
  37.3553703  68.8405409 102.6313785  40.6130166  65.3904457 103.6341061
  40.3567100  64.9901092 104.4649269  39.9883034  66.1048250 103.5091200
  44.9242504  68.1300530 106.1412353  44.3642062  68.1993719 106.9143915
  44.3186007  67.9541514 105.4211849  37.8814247  74.2887393  98.7387132
  38.7159851  73.8568591  98.5564606  37.7198590  74.1169406  99.6664026
  37.5360140  70.7919506 100.1043471  37.4808943  70.6263777  99.1631915
  36.9106195  71.4995539 100.2605661  30.8456265  60.2927615  99.6828789
  30.8334935  61.2369455  99.8397060  31.7379687  60.1097760  99.3888251
  30.7745829  78.9696505 107.7696546  29.8241460  78.9698367 107.6560918
  31.0778315  78.2229240 107.2532581  34.6608385  56.8870392 103.9374726
  33.8940780  56.3328878 104.0831408  35.0719090  56.9592260 104.7988878
  39.1775045  86.6119948 104.7600724  38.6139910  86.5209885 103.9917012
  39.0627440  85.7919853 105.2403217  44.7574603  90.2790916 100.0715189
  44.1062583  90.8644996  99.6849203  45.5518966  90.8097111 100.1310226
  38.6830230  87.3680053 100.4702323  39.4561106  86.8209040 100.3315199
  39.0355629  88.2324302 100.6816785  41.0196508  83.5272719  98.1020773
  41.2722029  83.0054240  97.3404236  40.0821067  83.3638865  98.2047457
  46.0639791  82.5308498 105.9095516  46.8502880  82.1127921 105.5585933
  46.3278495  83.4354590 106.0777165  46.2349868  87.9681348 100.6084173
  45.5995701  88.0415974 101.3205078  45.9047275  88.5574947  99.9303252
  40.7392797  85.4300825 100.3045148  40.6229055  84.7545729 100.9726232
  40.8495057  84.9433199  99.4877301  43.0824338  84.8910972 104.0091837
  42.7182545  84.3641593 104.7204759  43.9391454  84.5009441 103.8358323
  42.7229825  79.9200872  99.0053186  42.8904227  80.7881108  99.3723657
  42.5326994  80.0828154  98.0814475  38.9317640  84.8331648 106.7055721
  38.0068136  84.7007862 106.9133412  39.1802053  85.6125867 107.2025663
  42.7019046  82.3758529  99.9899853  42.5818671  82.8215580 100.8285333
  42.0071634  82.7243847  99.4313391  36.2926451  84.4764921 107.5399510
  36.4218832  84.7299400 108.4538921  35.6123902  85.0692629 107.2204165
  48.4004112  82.8480003 100.8180187  49.3121968  83.0807389 100.6427884
  47.8913759  83.4317047 100.2555265  45.7440087  79.0238039 109.0670048
  44.8824566  79.3219292 109.3586785  45.7702521  79.2408438 108.1351080
  42.5601656  87.5680229 105.4743853  43.0240002  87.8467932 104.6848476
  42.2958454  86.6663674 105.2916944  41.4970542  83.6903382 102.2833418
  42.1994586  84.1424425 102.7507345  41.1651171  83.0487200 102.9113312
  35.2395876  81.9486934 107.5850552  34.4494930  82.2044463 107.1090663
  35.7307123  82.7635272 107.6902593  37.1910622  82.3131513 104.5434029
  36.3941785  82.4250208 105.0617524  36.9636214  82.6518166 103.6774919
  42.7364307  90.5044324 102.3595524  42.6009982  91.3495860 102.7880372
  43.2774119  90.7063602 101.5961457  36.1893704  88.0219762 102.9323449
  36.7018225  88.8163012 103.0829013  36.8416417  87.3246053 102.8657050
  37.9988589  91.1385518 105.0146202  38.1755217  92.0603483 104.8267186
  38.7945422  90.8243938 105.4440582  46.0856770  74.0274886 110.8894417
  45.7421040  74.9176528 110.8133528  46.4535733  73.8376544 110.0264002
  34.1542621  86.3508417 103.7083019  34.9917843  86.7605425 103.4916727
  34.3320889  85.4107859 103.6783213  46.0507053  84.0183497  99.3966852
  45.5353677  84.7888102  99.6355240  45.7784362  83.3448633 100.0199914
  43.6354164  78.8633198 104.4552091  42.7795760  78.4740048 104.2757729
  44.0481116  78.9425159 103.5951876  45.1653311  76.3979541 108.8543650
  44.6618106  76.3609676 108.0411456  45.4583918  77.3072284 108.9140307
  41.4096197  76.4818271 107.8609832  42.2749193  76.2861080 107.5015722
  41.4773706  76.2528623 108.7879189  51.0241327  86.7715852 101.3320026
  50.2470770  86.4327011 100.8875188  51.7032808  86.7768475 100.6574991
  45.8393356  81.8910589 101.2226633  45.5343492  82.2056738 102.0736777
  46.7923798  81.9692009 101.2653966  44.2839788  88.0500813 102.8719587
  43.7561150  87.3153572 102.5592825  43.7827291  88.8275489 102.6259556
  39.0158516  78.7120479 105.2326199  39.5902268  78.4895660 104.4999392
  39.6029498  78.7809173 105.9854800  39.3428103  80.7424940  99.2522084
  38.5065415  81.0799626  99.5731359  39.2032872  80.6073920  98.3149221
  41.3181183  75.5861728 103.9601268  40.6645596  75.2710745 103.3357883
  41.2761658  74.9637468 104.6861091  42.4292388  85.8681023  95.8754560
  41.5219450  85.6370276  96.0745709  42.9263420  85.0718642  96.0628542
  45.3360467  94.5778530  98.7951247  44.6622166  94.8810227  99.4036204
  45.7226289  95.3807610  98.4456704  44.5518924  82.0743661 108.2848916
  43.6341485  82.2958608 108.1270604  44.9679067  82.1489972 107.4260623
  45.3353972  83.4735077 103.4151596  46.0825790  83.9856474 103.1058718
  45.6045561  83.1519130 104.2755990  43.6080622  85.9693618 100.3978551
  42.6991841  85.6852651 100.4951020  43.6375706  86.3892696  99.5381857
  47.7832809  80.5092193 105.3970386  47.0455565  79.9969579 105.7280628
  48.0359582  80.0692575 104.5853662  47.8844436  73.2868445 105.9912155
  48.1903313  72.4265809 105.7038070  48.6097041  73.8786065 105.7911149
  34.1768792  83.6899132 104.3793753  33.9793192  83.0968493 103.6544819
  33.6215456  83.3851342 105.0969692  42.1565516  83.5822238 106.4988346
  42.2114126  82.6296075 106.4230822  41.3456718  83.7381677 106.9829644
  43.3056710  87.5102361  97.7366629  42.8676139  86.7938220  97.2772266
  44.0467150  87.7378476  97.1751721  40.0957876  82.1999298 104.2578725
  39.2825741  82.4993469 104.6643917  40.5916870  81.8054987 104.9753207
  39.5871950  79.7717654 109.8739960  40.2271330  79.6306413 109.1762923
  38.7549481  79.4852167 109.4978562  40.3632254  89.0720084 105.9874952
  41.1572853  88.5770404 105.7857527  39.6523947  88.5437947 105.6242658
  36.6715018  83.2163166 102.0634705  35.7412606  83.1547621 102.2804667
  36.7672490  82.6939118 101.2671346  36.5900567  79.7417979 104.6512947
  36.8507384  80.6563312 104.5422107  37.4117739  79.2742421 104.8009559
  47.4267937  86.3686743  97.3298687  46.8097108  85.6433571  97.2331739
  46.9584426  87.1296103  96.9865761  39.2166483  80.5872167  96.4519991
  38.3395949  80.4660968  96.0882238  39.6924236  79.7958246  96.1998880
  35.5403345  80.2639524 110.9746522  35.4561534  79.6565193 110.2396932
  34.7186052  80.7548542 110.9756018  45.7127059  78.7493087 106.3416717
  46.2095759  77.9963049 106.0217787  44.9414041  78.7857404 105.7759926
  46.7956840  87.5064774 103.9155140  45.8613119  87.6266237 103.7459845
  46.9733508  86.6037241 103.6515150  42.2962028  80.8910470 106.0688401
  41.9259815  80.3381511 106.7569307  42.7921120  80.2868604 105.5163402
  50.1829391  83.3482094 104.4505174  50.6489843  84.1810085 104.3765477
  50.6336892  82.8827075 105.1550433  48.2505622  89.6925915 101.4491326
  48.5265466  89.5782510 102.3585201  47.3810121  89.2943400 101.4103500
  48.1546054  75.7162681 108.4896076  47.2409134  75.9466907 108.6578283
  48.5839155  75.8001125 109.3410108  37.6927362  78.3014461 112.3141508
  37.7568688  79.1629292 111.9018905  37.6294482  77.6888463 111.5813866
  33.9445177  82.1814023 101.8932897  34.2398618  81.2724701 101.8399950
  33.0433213  82.1601762 101.5713899  37.4739424  80.2570019 107.8760445
  36.7526010  80.8705987 107.7367919  38.2632680  80.7927784 107.7977091
  35.6733018  79.8628120 102.0172222  35.3445725  78.9825499 101.8347328
  36.0272389  79.8075789 102.9048611  38.7874842  80.1501090 102.3847700
  39.1270914  80.6787011 101.6626308  39.2346962  80.4881496 103.1606266
  42.1334754  75.6187453 110.2878091  42.9560824  75.1447931 110.1656981
  42.3772818  76.3977937 110.7876777  40.7742989  78.6475712 100.5840992
  41.4951351  79.0256964 100.0804709  40.1508293  79.3664588 100.6875970
  44.9174112  79.3520861 101.5199325  45.1337726  80.2345498 101.2188153
  44.4368179  78.9607074 100.7904967  39.6573333  82.3106574 108.0970069
  39.5117914  82.6246877 108.9894351  39.1798537  82.9291474 107.5440968
  41.5169716  79.3009122 108.1450959  41.5031285  78.4050215 107.8083257
  42.2342144  79.3079786 108.7789245  40.9206612  78.1823502 103.4138529
  41.0422523  77.2540148 103.6129416  40.6308654  78.1962188 102.5016844
  43.7897802  75.8678413 106.5505249  43.8119499  75.9317746 105.5957228
  44.2065861  75.0282921 106.7445755  39.8936671  89.7677635 101.5054416
  40.0424791  90.4513099 100.8521089  40.7003114  89.7482725 102.0203872
  37.6489304  85.7942812 102.5115485  37.4035346  84.8905142 102.7095695
  37.8185218  85.7959963 101.5694963  36.9184951  81.5271170 100.0101646
  36.2254196  81.6015525  99.3541682  36.6736703  80.7631514 100.5323163
  45.5898608  73.0866771 107.4141137  45.8700362  72.4189960 108.0401564
  46.3749215  73.2795867 106.9015801  43.3932076  92.2625765  98.9766163
  42.8206043  92.8815952  98.5236635  43.9664870  92.8125127  99.5106085
  46.6129336  92.5462915 100.1074746  47.5460009  92.4808477 100.3107621
  46.5252549  93.3819182  99.6489278  49.2417353  91.8628786  97.0678693
  49.1630984  91.5288649  97.9614451  50.0627020  92.3550554  97.0670166
  43.7778875  83.5986578  96.3182216  44.7237980  83.4692786  96.3870634
  43.3993120  82.8601240  96.7951644  49.7500759  75.2642584 106.2809108
  49.5525581  74.9557672 107.1652440  50.3600465  75.9904223 106.4107038
  41.9621792  81.5236554  96.2537101  41.0553247  81.2269667  96.3299815
  42.2397773  81.2266372  95.3871387  32.8799732  82.8442918 106.7036148
  32.5602517  81.9908226 106.4110522  32.3333161  83.0591496 107.4594115
  43.5783858  76.0673444 102.4081342  42.7684586  75.7220529 102.7836589
  44.2668275  75.7580988 102.9968954  45.5074406  75.1451491 104.0305639
  46.0605445  75.5646944 104.6895662  45.7444492  74.2187239 104.0728595
  40.7320577  78.3823490  96.3949080  41.5939741  78.7078388  96.6544898
  40.9170921  77.5954985  95.8822146  48.8853213  77.2552016 103.5384303
  48.3051882  77.9136820 103.1562356  48.6189146  76.4329361 103.1271721
  47.3356779  76.6557074 105.7405624  47.8356558  76.7673608 104.9319943
  47.9792387  76.3518127 106.3806432  34.6624735  86.3964083 106.5495284
  34.6395423  86.4951770 105.5977167  34.9725371  87.2429234 106.8712450
  47.6678091  79.4152106 102.5940652  46.7803946  79.7001757 102.3760846
  48.0832080  79.2545870 101.7467929  51.0192627  79.4398627 106.3094991
  51.7953017  79.9295080 106.5819608  50.2940761  79.8656682 106.7666860
  46.8121305  89.1796781  96.6888672  47.5157155  89.3846784  97.3046327
  46.0883953  89.7473543  96.9537755  47.6419115  84.9306642 102.8090942
  47.5854316  85.3875194 101.9698574  48.1947457  84.1697327 102.6313785
  51.4523921  80.7196374 103.6341061  51.1960855  80.3193010 104.4649269
  50.8276789  81.4340168 103.5091200  48.7208002  89.6179310  98.7387132
  49.5553606  89.1860509  98.5564606  48.5592345  89.4461324  99.6664026
  48.3753894  86.1211424 100.1043471  48.3202698  85.9555695  99.1631915
  47.7499949  86.8287457 100.2605661  41.6850020  75.6219533  99.6828789
  41.6728689  76.5661373  99.8397060  42.5773441  75.4389678  99.3888251
  45.5002139  72.2162309 103.9374726  44.7334535  71.6620796 104.0831408
  45.9112844  72.2884178 104.7988878  50.0560238  95.9164085  96.4519991
  49.1789704  95.7952886  96.0882238  50.5317991  95.1250163  96.1998880
  52.8015546  96.8528472  96.2537101  51.8947002  96.5561585  96.3299815
  53.0791527  96.5558290  95.3871387  51.5714331  93.7115407  96.3949080
  52.4333495  94.0370306  96.6544898  51.7564675  92.9246903  95.8822146
  12.8179205  25.5964900  85.5196553  12.1440904  25.8996596  86.1281511
  13.2045027  26.3993980  85.1702010  16.7236091  22.8815155  83.7924000
  16.6449722  22.5475019  84.6859758  17.5445757  23.3736923  83.7915472
  14.2940042  20.1983151  83.4133978  14.9975892  20.4033153  84.0291634
  13.5702691  20.7659913  83.6783062  17.4987537  32.9598235  91.4846031
  16.9352402  32.8688172  90.7162318  17.3839932  32.1398140  91.9648523
  23.0787096  36.6269203  86.7960496  22.4275075  37.2123284  86.4094509
  23.8731458  37.1575398  86.8555533  17.0042723  33.7158340  87.1947630
  17.7773599  33.1687327  87.0560506  17.3568122  34.5802590  87.4062091
  19.3409001  29.8751006  84.8266080  19.5934521  29.3532528  84.0649543
  18.4033560  29.7117152  84.9292763  24.3852283  28.8786785  92.6340823
  25.1715373  28.4606208  92.2831240  24.6490988  29.7832877  92.8022471
  24.5562361  34.3159635  87.3329480  23.9208194  34.3894262  88.0450385
  24.2259767  34.9053234  86.6548559  29.7860710  28.8162018  93.5373802
  30.5185882  28.2461235  93.7711631  29.0300066  28.4283618  93.9780307
  19.0605289  31.7779112  87.0290455  18.9441547  31.1024016  87.6971539
  19.1707549  31.2911486  86.2122608  21.4036830  31.2389260  90.7337144
  21.0395037  30.7119880  91.4450066  22.2603946  30.8487729  90.5603629
  21.0442317  26.2679159  85.7298493  21.2116720  27.1359396  86.0968964
  20.8539486  26.4306441  84.8059782  21.0231538  28.7236817  86.7145159
  20.9031163  29.1693867  87.5530640  20.3284126  29.0722134  86.1558698
  18.7838430  41.4940458  90.3635291  18.7062460  42.4448284  90.4423771
  18.1800074  41.1486331  91.0210217  26.7216604  29.1958290  87.5425493
  27.6334460  29.4285677  87.3673191  26.2126251  29.7795334  86.9800572
  25.3286187  34.1784108  94.9339075  24.6995049  34.3429822  94.2315143
  24.9411849  34.5925718  95.7050039  29.2075418  35.1138546  92.2883439
  28.5226457  35.4937448  91.7380472  29.2919268  35.7233873  93.0215386
  20.8814148  33.9158516  92.1989160  21.3452494  34.1946219  91.4093782
  20.6170946  33.0141961  92.0162251  19.8183034  30.0381669  89.0078725
  20.5207078  30.4902712  89.4752651  19.4863663  29.3965488  89.6358618
  27.5772178  35.6370461  97.0601140  28.3989622  35.2350648  96.7783821
  27.5734581  35.5338695  98.0117255  35.6678171  31.9809209  93.4086111
  34.9141879  31.4116607  93.2530115  35.8025712  31.9471874  94.3556746
  21.0576799  36.8522611  89.0840830  20.9222474  37.6974147  89.5125678
  21.5986612  37.0541889  88.3206764  14.5106196  34.3698049  89.6568755
  15.0230717  35.1641300  89.8074320  15.1628909  33.6724340  89.5902357
  16.3201081  37.4863806  91.7391509  16.4967709  38.4081770  91.5512492
  17.1157915  37.1722225  92.1685888  24.3719545  30.3661784  86.1212159
  23.8566169  31.1366389  86.3600546  24.0996854  29.6926921  86.7445220
  29.3453819  33.1194139  88.0565332  28.5683262  32.7805299  87.6120494
  30.0245300  33.1246762  87.3820297  24.1605849  28.2388877  87.9471940
  23.8555984  28.5535026  88.7982083  25.1136291  28.3170296  87.9899273
  22.6052280  34.3979100  89.5964894  22.0773642  33.6631859  89.2838132
  22.1039783  35.1753776  89.3504862  27.5845126  32.5928120  94.7131940
  26.9268801  33.2827382  94.8012069  28.3885526  32.9824552  95.0565927
  26.3950585  30.9472493  92.7635882  26.9082467  31.5802485  93.2657592
  27.0451809  30.3473689  92.3979242  17.6640595  27.0903227  85.9767391
  16.8277907  27.4277914  86.2976666  17.5245365  26.9552207  85.0394528
  20.7504881  32.2159310  82.5999867  19.8431942  31.9848564  82.7991016
  21.2475913  31.4196929  82.7873849  23.6572959  40.9256817  85.5196553
  22.9834658  41.2288514  86.1281511  24.0438781  41.7285898  85.1702010
  23.6566464  29.8213364  90.1396903  24.4038283  30.3334761  89.8304025
  23.9258053  29.4997417  91.0001296  21.9293114  32.3171905  87.1223857
  21.0204333  32.0330938  87.2196327  21.9588198  32.7370984  86.2627164
  27.1612381  35.9278494  90.8915025  26.7074709  35.0869404  90.9480215
  26.5306348  36.5639893  91.2289805  26.1045301  26.8570480  92.1215692
  25.3668058  26.3447867  92.4525935  26.3572074  26.4170862  91.3098969
  25.6045321  37.7654991  91.8264843  25.8968295  38.3260048  91.1077209
  26.1143941  38.0583552  92.5818002  21.6269202  33.8580649  84.4611936
  21.1888632  33.1416508  84.0017573  22.3679643  34.0856763  83.8997027
  20.5678946  38.5435342  92.9158296  20.5255125  38.7696189  91.9866828
  21.4841645  38.3098717  93.0644097  29.7442317  32.1337846  90.5188254
  29.6060215  32.3239442  89.5909444  29.3878535  32.8957228  90.9756305
  29.7711696  34.2014373  95.5299526  30.2048203  34.1089662  96.3782580
  30.4843277  34.1771873  94.8919542  18.6844747  35.4198371  92.7120259
  19.4785345  34.9248691  92.5102834  17.9736439  34.8916234  92.3487964
  23.5039591  37.8016467  97.0632626  23.5576613  38.3707403  97.8310342
  22.6354372  37.9718352  96.6986664  14.9927510  29.5641453  88.7880012
  14.0625098  29.5025908  89.0049974  15.0884982  29.0417406  87.9916653
  21.8564175  41.0936490  87.7343632  22.0315930  40.6224533  88.5489255
  21.1696963  41.7202256  87.9624893  22.8121238  35.3708996  93.7806934
  22.4771070  35.3309766  94.6764584  22.3125183  34.7053712  93.3077344
  25.7480429  32.7165030  84.0543993  25.1309600  31.9911858  83.9577046
  25.2796918  33.4774391  83.7111068  16.4225260  44.2425852  94.5083493
  16.6621858  44.8744377  95.1862511  15.5794456  43.8913892  94.7948852
  17.5378975  26.9350455  83.1765298  16.6608442  26.8139255  82.8127544
  18.0136728  26.1436533  82.9244186  20.9353122  40.0504975  96.9124997
  20.8623293  40.8559946  97.4244301  20.4930515  40.2496941  96.0873018
  20.7242901  39.2876745  90.4227818  19.9410423  39.8298425  90.5166043
  21.4235647  39.8050725  90.8222059  31.8869309  30.8011740  94.7080315
  31.8759185  31.6836455  94.3374248  31.0186688  30.4483291  94.5134852
  23.3951805  39.9491809  99.0683155  24.1079777  40.5839274  98.9959057
  22.9041834  40.0455675  98.2523157  25.1169332  33.8543062  90.6400447
  24.1825611  33.9744524  90.4705151  25.2946001  32.9515528  90.3760457
  28.5041884  29.6960381  91.1750481  28.9702336  30.5288372  91.1010784
  28.9549384  29.2305362  91.8795740  26.5718115  36.0404202  88.1736633
  26.8477959  35.9260797  89.0830507  25.7022613  35.6421687  88.1348806
  23.2072179  40.2890553  91.8169447  23.3894573  39.4712209  92.2797199
  24.0305165  40.5058245  91.3794337  23.5414344  39.2158738  89.0784495
  24.0702111  38.7051193  88.4654657  23.8042564  38.9001268  89.9430028
  16.8970092  40.2673855  91.8382271  16.2280467  40.7519982  91.3546311
  16.7582962  40.5143075  92.7525650  21.0375361  42.3017598  98.4364930
  21.5893669  42.4649220  99.2014015  21.3781554  42.8922036  97.7644954
  24.1743748  40.2499574  95.4228612  24.0494887  39.4489314  94.9139557
  24.8322839  40.7445767  94.9342582  26.2378656  38.0508594  97.0508162
  25.2908992  37.9313945  96.9786488  26.5861429  37.1631092  97.1334423
  23.2425090  37.8461310  93.2512514  23.0950052  36.9178018  93.4320084
  24.0678583  37.8681401  92.7669589  26.8459211  38.6689869  94.3377387
  27.7705759  38.4632730  94.2001838  26.6774515  38.4206270  95.2466728
  19.0955481  24.9953999  87.3086299  19.8163844  25.3735252  86.8050016
  18.4720785  25.7142876  87.4121277  23.2386604  25.6999148  88.2444631
  23.4550218  26.5823786  87.9433459  22.7580671  25.3085361  87.5150273
  26.6354528  39.1875536  89.6939478  26.8091405  38.6221959  88.9413331
  27.1283419  39.9876431  89.5118968  32.4893919  31.9511959  91.3129778
  32.9325065  31.2019285  90.9148901  31.6120429  31.9422096  90.9303510
  27.6229700  38.5042301  86.7936376  28.3180605  39.1248993  87.0123691
  27.9652850  37.6537652  87.0688754  29.5221123  35.9542006  88.3223707
  30.0472447  36.2929279  87.5973027  29.4343476  35.0189022  88.1386842
  21.2061784  42.0213990  92.6818960  20.7666774  41.5290368  93.3751817
  21.9569901  41.4786957  92.4411036  13.6854123  38.2125530  92.6843588
  14.5112143  37.9129302  92.3042232  13.3348175  37.4433153  93.1333377
  18.6535656  37.5651999  94.7541262  18.0315665  36.9022704  94.4543490
  19.3240523  37.5913131  94.0714910  18.2149163  36.1155922  88.2299723
  18.3637283  36.7991386  87.5766395  19.0215607  36.0961012  88.7449178
  32.0326784  33.4217198  93.7052226  32.8673675  33.8607002  93.8689786
  32.1685912  32.9455851  92.8860471  15.9701796  32.1421100  89.2360792
  15.7247838  31.2383430  89.4341002  16.1397711  32.1438250  88.2940270
  15.2397444  27.8749457  86.7346953  14.5466689  27.9493812  86.0786989
  14.9949195  27.1109801  87.2568470  21.7144569  38.6104052  85.7011470
  21.1418536  39.2294240  85.2481942  22.2877362  39.1603414  86.2351392
  24.9341828  38.8941203  86.8320052  25.8672502  38.8286764  87.0352928
  24.8465041  39.7297469  86.3734585  27.5629845  38.2107073  83.7924000
  27.4843477  37.8766937  84.6859758  28.3839512  38.7028841  83.7915472
  22.0991367  29.9464865  83.0427523  23.0450472  29.8171073  83.1115941
  21.7205612  29.2079527  83.5196951  36.0784586  32.1384819  96.1406355
  36.8087975  31.8770107  96.7014059  35.4691532  31.4013541  96.1808423
  34.1599883  30.2792682  96.7380807  33.4333047  30.1448647  96.1297298
  33.7447170  30.5869510  97.5437525  20.2834284  27.8714842  82.9782408
  19.3765740  27.5747954  83.0545121  20.5610265  27.5744660  82.1116694
  19.0533069  24.7301777  83.1194387  19.9152233  25.0556675  83.3790204
  19.2383413  23.9433273  82.6067453  27.2065705  23.6030303  90.2629610
  26.6264374  24.2615107  89.8807662  26.9401638  22.7807648  89.8517027
  25.9890583  25.7630394  89.3185958  25.1016438  26.0480044  89.1006153
  26.4044572  25.6024157  88.4713235  29.3405120  25.7876915  93.0340297
  30.1165510  26.2773367  93.3064914  28.6153254  26.2134969  93.4912167
  31.7777678  26.5004534  94.0914238  32.3722169  26.2600270  93.3807546
  31.8504262  25.7811664  94.7187774  13.9974834  40.3438145  94.4057403
  13.8629302  39.5838546  93.8395401  13.5806896  41.0679045  93.9386192
  25.1333797  35.5275068  83.4133978  25.8369647  35.7325071  84.0291634
  24.4096446  36.0951830  83.6783062  25.9631607  31.2784930  89.5336248
  25.9066809  31.7353481  88.6943881  26.5159950  30.5175614  89.3559091
  29.7736413  27.0674661  90.3586368  29.5173347  26.6671297  91.1894576
  29.1489281  27.7818455  90.2336507  34.0848751  29.8070735  92.8657659
  33.5248309  29.8763924  93.6389221  33.4792254  29.6311719  92.1457156
  17.1543960  41.2407462  94.6175846  17.0376344  42.1852894  94.5154536
  16.3336406  40.9381023  95.0061645  27.0420494  35.9657598  85.4632438
  27.8766098  35.5338796  85.2809913  26.8804837  35.7939611  86.3909333
  26.6966386  32.4689711  86.8288778  26.6415190  32.3033982  85.8877222
  26.0712442  33.1765744  86.9850967  20.0062512  21.9697820  86.4074096
  19.9941182  22.9139660  86.5642367  20.8985934  21.7867965  86.1133557
  18.1798474  41.8935724  97.8331774  19.0825721  41.9259334  98.1498269
  17.9535844  40.9636175  97.8478110  19.9352076  40.6466710  94.4941853
  18.9847707  40.6468572  94.3806225  20.2384562  39.8999445  93.9777887
  35.6704769  46.4827249  95.5587615  36.3083179  46.3633996  94.8550955
  35.5525612  47.4308093  95.6175567  32.4794476  46.4354677  95.4949140
  32.1412987  46.3195741  94.6069675  33.3484244  46.0345842  95.4750146
  28.3381291  48.2890153  91.4846031  27.7746156  48.1980090  90.7162318
  28.2233686  47.4690058  91.9648523  32.9614259  47.5889528 101.4535345
  32.9502899  47.1942327 100.5815849  33.1234898  46.8555601 102.0469117
  25.8845723  49.7841345  94.3230251  26.6767015  49.4432169  93.9076550
  26.1242373  49.8936320  95.2432404  33.9180850  51.9561121  86.7960496
  33.2668830  52.5415201  86.4094509  34.7125213  52.4867316  86.8555533
  27.8436477  49.0450258  87.1947630  28.6167353  48.4979245  87.0560506
  28.1961876  49.9094507  87.4062091  29.6821520  50.3726640 100.4014529
  29.3911386  51.2772271 100.2861196  30.3178504  50.4143168 101.1158599
  30.6077727  47.7503489  96.9915889  31.2041299  47.5259511  96.2772852
  30.6652698  47.0088234  97.5941337  30.1802755  45.2042924  84.8266080
  30.4328276  44.6824445  84.0649543  29.2427314  45.0409070  84.9292763
  35.2246038  44.2078702  92.6340823  36.0109127  43.7898126  92.2831240
  35.4884742  45.1124795  92.8022471  35.3956115  49.6451553  87.3329480
  34.7601948  49.7186179  88.0450385  35.0653522  50.2345152  86.6548559
  40.6254465  44.1453936  93.5373802  41.3579637  43.5753153  93.7711631
  39.8693821  43.7575536  93.9780307  29.8999044  47.1071030  87.0290455
  29.7835302  46.4315933  87.6971539  30.0101304  46.6203404  86.2122608
  32.2430585  46.5681177  90.7337144  31.8788792  46.0411798  91.4450066
  33.0997701  46.1779646  90.5603629  38.1479885  37.8575510  97.9968410
  37.8163210  38.7270921  97.7729625  37.5525499  37.5411794  98.6762441
  31.8836072  41.5971077  85.7298493  32.0510474  42.4651313  86.0968964
  31.6933241  41.7598359  84.8059782  34.6411405  50.0588056  97.3964323
  34.3412128  50.9613095  97.2880130  34.2962464  49.7920239  98.2485476
  28.0923886  46.5101853  93.4301027  27.1674383  46.3778067  93.6378719
  28.3408300  47.2896072  93.9270970  38.0408549  42.5770596  95.0761760
  37.1325426  42.5086004  94.7820521  37.9896144  43.0542541  95.9043586
  31.8625293  44.0528734  86.7145159  31.7424918  44.4985785  87.5530640
  31.1677881  44.4014052  86.1558698  25.4532697  46.1535126  94.2644816
  25.5825079  46.4069605  95.1784228  24.7730149  46.7462834  93.9449471
  29.6232185  56.8232376  90.3635291  29.5456214  57.7740201  90.4423771
  29.0193828  56.4778249  91.0210217  32.1149414  43.9960242 103.0196658
  31.3382748  44.5554162 103.0099522  32.7539977  44.4817025 103.5411528
  39.9070195  40.7787034  96.8539634  39.2644575  41.0719568  96.2079429
  39.4025124  40.6639955  97.6592831  37.5610359  44.5250208  87.5425493
  38.4728215  44.7577594  87.3673191  37.0520006  45.1087252  86.9800572
  30.3695787  46.8045695 102.5814625  31.1110471  47.3430739 102.3049448
  29.6632772  47.4311984 102.7386176  35.8451126  48.9474835 101.1786786
  36.2534482  48.5057246 100.4341418  35.1228388  48.3727463 101.4320979
  32.1982196  43.8847442  98.5520343  33.0443392  44.3086856  98.6954992
  32.1380834  43.2281066  99.2458906  36.1679941  49.5076026  94.9339075
  35.5388803  49.6721740  94.2315143  35.7805603  49.9217636  95.7050039
  40.0469173  50.4430464  92.2883439  39.3620211  50.8229365  91.7380472
  40.1313022  51.0525791  93.0215386  35.3481642  41.5451811 100.2101517
  35.1042574  42.2993871  99.6735792  35.6241572  41.9237158 101.0448764
  37.3020105  48.0890423  98.8878782  37.5137000  48.7322183  98.2113163
  37.2549853  47.2552739  98.4200712  34.9046333  40.7008244  95.7915354
  34.0430812  40.9989497  96.0832092  34.9308768  40.9178642  94.8596387
  31.7207903  49.2450434  92.1989160  32.1846248  49.5238137  91.4093782
  31.4564701  48.3433879  92.0162251  28.6131984  48.7921916  95.1368923
  29.1833341  49.2209184  94.4986408  29.2040096  48.5104500  95.8353109
  30.6576789  45.3673586  89.0078725  31.3600832  45.8194630  89.4752651
  30.3257417  44.7257405  89.6358618  29.1057150  43.9585343 103.3829935
  28.4755811  44.6401624 103.6165331  28.9993238  43.8468425 102.4383073
  24.4002123  43.6257139  94.3095859  23.6101177  43.8814668  93.8335969
  24.8913370  44.4405477  94.4147899  38.4165932  50.9662378  97.0601140
  39.2383376  50.5642566  96.7783821  38.4128335  50.8630612  98.0117255
  26.3516868  43.9901718  91.2679335  25.5548032  44.1020413  91.7862831
  26.1242460  44.3288371  90.4020226  32.1822536  50.5146422  99.2161850
  32.2466968  50.9766829 100.0520022  31.4733460  49.8843787  99.3444160
  22.6839826  43.8787630  96.7410849  22.9347864  44.7634639  97.0068425
  23.2199374  43.6992231  95.9685941  46.5071926  47.3101127  93.4086111
  45.7535634  46.7408525  93.2530115  46.6419467  47.2763791  94.3556746
  31.8970554  52.1814529  89.0840830  31.7616228  53.0266065  89.5125678
  32.4380366  52.3833807  88.3206764  25.3499951  49.6989967  89.6568755
  25.8624472  50.4933217  89.8074320  26.0022664  49.0016258  89.5902357
  27.1594836  52.8155723  91.7391509  27.3361464  53.7373688  91.5512492
  27.9551669  52.5014143  92.1685888  26.4447192  44.8620355 101.6153672
  26.3300707  43.9605613 101.9160771  25.5891710  45.1084052 101.2638488
  33.5239030  52.8038096 103.2141172  33.0802884  52.0174474 102.8962077
  34.1856244  52.9917246 102.5485063  28.2826151  54.3333897  97.7401851
  28.8333576  54.2050961  96.9678845  27.4437627  54.6328786  97.3896744
  35.6220268  53.0840896 101.2422574  35.6038743  53.9049777 100.7502843
  36.5440188  52.9594971 101.4672715  32.0793322  50.5985025 102.0846082
  32.6121659  49.8373313 101.8545390  31.5507403  50.3058677 102.8270237
  35.2463017  35.7045091  97.6139724  34.9027287  36.5946733  97.5378834
  35.6141980  35.5146749  96.7509309  23.3148868  48.0278621  90.4328326
  24.1524090  48.4375630  90.2162034  23.4927135  47.0878064  90.4028520
  35.2113300  45.6953702  86.1212159  34.6959923  46.4658307  86.3600546
  34.9390608  45.0218838  86.7445220  32.7960411  40.5403403  91.1797397
  31.9402007  40.1510253  91.0003036  33.2087363  40.6195364  90.3197183
  34.3259558  38.0749746  95.5788957  33.8224353  38.0379881  94.7656762
  34.6190164  38.9842489  95.6385614  30.5702443  38.1588476  94.5855139
  31.4355440  37.9631285  94.2261028  30.6379952  37.9298828  95.5124496
  40.1847574  48.4486057  88.0565332  39.4077017  48.1097216  87.6120494
  40.8639055  48.4538680  87.3820297  34.9999603  43.5680794  87.9471940
  34.6949739  43.8826943  88.7982083  35.9530045  43.6462214  87.9899273
  33.4446035  49.7271018  89.5964894  32.9167396  48.9923777  89.2838132
  32.9433538  50.5045694  89.3504862  38.4238881  47.9220038  94.7131940
  37.7662555  48.6119299  94.8012069  39.2279280  48.3116470  95.0565927
  28.1764762  40.3890684  91.9571506  28.7508514  40.1665865  91.2244699
  28.7635745  40.4579378  92.7100107  37.2344340  46.2764411  92.7635882
  37.7476221  46.9094403  93.2657592  37.8845564  45.6765606  92.3979242
  28.5034350  42.4195145  85.9767391  27.6671662  42.7569831  86.2976666
  28.3639119  42.2844125  85.0394528  30.4787430  37.2631933  90.6846575
  29.8251843  36.9480950  90.0603190  30.4367904  36.6407673  91.4106398
  31.5898635  47.5451228  82.5999867  30.6825697  47.3140481  82.7991016
  32.0869667  46.7488847  82.7873849  34.4966714  56.2548735  85.5196553
  33.8228413  56.5580432  86.1281511  34.8832536  57.0577815  85.1702010
  33.7125171  43.7513866  95.0094223  32.7947732  43.9728813  94.8515911
  34.1285314  43.8260177  94.1505930  34.4960218  45.1505282  90.1396903
  35.2432037  45.6626679  89.8304025  34.7651808  44.8289335  91.0001296
  32.7686868  47.6463823  87.1223857  31.8598088  47.3622855  87.2196327
  32.7981952  48.0662901  86.2627164  38.0006136  51.2570412  90.8915025
  37.5468463  50.4161322  90.9480215  37.3700103  51.8931810  91.2289805
  36.9439055  42.1862398  92.1215692  36.2061812  41.6739784  92.4525935
  37.1965829  41.7462780  91.3098969  36.4439075  53.0946909  91.8264843
  36.7362050  53.6551966  91.1077209  36.9537696  53.3875470  92.5818002
  37.0450683  34.9638650  92.7157461  37.3509560  34.1036014  92.4283377
  37.7703288  35.5556270  92.5156455  23.3375039  45.3669337  91.1039059
  23.1399439  44.7738697  90.3790126  22.7821703  45.0621547  91.8214998
  31.3171763  45.2592443  93.2233653  31.3720372  44.3066280  93.1476129
  30.5062965  45.4151882  93.7074951  32.4662956  49.1872566  84.4611936
  32.0282386  48.4708425  84.0017573  33.2073397  49.4148681  83.8997027
  29.2564122  43.8769503  90.9824031  28.4431988  44.1763674  91.3889224
  29.7523117  43.4825192  91.6998514  31.4072700  53.8727260  92.9158296
  31.3648879  54.0988106  91.9866828  32.3235399  53.6390634  93.0644097
  34.8538334  44.3411327  99.8138925  35.2087722  44.5682801 100.6733391
  35.5010465  44.6729704  99.1916181  40.5836071  47.4629763  90.5188254
  40.4453970  47.6531359  89.5909444  40.2272290  48.2249146  90.9756305
  28.7478197  41.4487858  96.5985266  29.3877577  41.3076618  95.9008230
  27.9155728  41.1622372  96.2223868  40.6105451  49.5306290  95.5299526
  41.0441957  49.4381579  96.3782580  41.3237031  49.5063791  94.8919542
  29.5238501  50.7490289  92.7120259  30.3179100  50.2540609  92.5102834
  28.8130193  50.2208152  92.3487964  34.3433346  53.1308384  97.0632626
  34.3970368  53.6999321  97.8310342  33.4748127  53.3010269  96.6986664
  25.8321265  44.8933371  88.7880012  24.9018853  44.8317826  89.0049974
  25.9278737  44.3709323  87.9916653  25.7506814  41.4188183  91.3758253
  26.0113631  42.3333517  91.2667414  26.5723986  40.9512626  91.5254866
  27.2231739  42.8325941  98.5457078  27.8954792  42.6243303  97.8969727
  26.3961525  42.6348027  98.1062310  41.4721000  49.5729991  98.0632411
  41.6656890  50.4775802  98.3091686  41.3721618  49.1137410  98.8970996
  33.1257311  39.4587882 100.5622739  32.4785226  40.1577831 100.4687215
  33.8958326  39.8924026 100.9298987  36.5336109  49.7236734 103.6373292
  36.3821615  49.4947285 102.7203376  36.5240788  50.6807335 103.6504637
  33.3021445  47.2968646  98.6219558  34.2313505  47.4479806  98.4488526
  32.8812475  47.3852667  97.7668205  32.1009777  51.3219311  96.3918096
  31.9620863  50.9538095  97.2644034  31.3124373  51.8366950  96.2202054
  32.6957929  56.4228407  87.7343632  32.8709685  55.9516451  88.5489255
  32.0090717  57.0494174  87.9624893  33.6514992  50.7000914  93.7806934
  33.3164825  50.6601684  94.6764584  33.1518938  50.0345630  93.3077344
  27.6259236  46.1068544  99.3059515  27.4879034  45.3748782  99.9071054
  28.5364160  46.0177444  99.0243703  30.2541537  45.8188503  98.7943195
  30.9641155  45.1781695  98.7529813  30.2110845  46.0701398  99.7169375
  38.2428316  52.7555856 101.7149774  38.1840862  52.0715076 101.0480357
  38.6447834  53.4974846 101.2630400  28.9670471  42.8053721 100.6138834
  28.4307828  42.3544459 101.2660430  28.3787179  42.9399630  99.8709298
  27.2619014  59.5717770  94.5083493  27.5015613  60.2036294  95.1862511
  26.4188211  59.2205810  94.7948852  28.3772730  42.2642372  83.1765298
  27.5002196  42.1431173  82.8127544  28.8530483  41.4728451  82.9244186
  38.2445723  50.7195440  99.9463753  37.3572502  50.3821362 100.0690152
  38.8144274  49.9878471 100.1832519  19.8974870  47.0519532  93.2706805
  20.5845910  46.7381262  92.6827820  19.7422999  47.9560897  92.9974056
  24.7009592  41.9409729  97.6991828  24.6167781  41.3335398  96.9642238
  23.8792298  42.4318747  97.7001325  31.7746876  55.3796893  96.9124997
  31.7017048  56.1851864  97.4244301  31.3324269  55.5788858  96.0873018
  31.5636656  54.6168663  90.4227818  30.7804178  55.1590343  90.5166043
  32.2629401  55.1342642  90.8222059  34.8733306  40.4263292  93.0662024
  35.3702005  39.6733254  92.7463094  34.1020287  40.4627609  92.5005233
  42.7263063  46.1303658  94.7080315  42.7152940  47.0128373  94.3374248
  41.8580443  45.7775208  94.5134852  34.2345560  55.2783727  99.0683155
  34.9473532  55.9131191  98.9959057  33.7435588  55.3747593  98.2523157
  35.9563087  49.1834979  90.6400447  35.0219365  49.3036442  90.4705151
  36.1339755  48.2807446  90.3760457  31.4568275  42.5680675  92.7933708
  31.0866062  42.0151715  93.4814614  31.9527367  41.9638809  92.2408708
  39.3435638  45.0252299  91.1750481  39.8096090  45.8580290  91.1010784
  39.7943138  44.5597280  91.8795740  29.2857473  53.0278170  99.8888726
  29.9866933  53.6614653 100.0418120  28.8152588  53.3692902  99.1284365
  37.4111869  51.3696120  88.1736633  37.6871713  51.2552714  89.0830507
  36.5416368  50.9713605  88.1348806  37.3152301  37.3932886  95.2141382
  36.4015381  37.6237112  95.3823589  37.7445402  37.4771330  96.0655415
  37.0858759  45.5822778  97.7141276  36.4330209  45.8298685  97.0593729
  37.4639139  44.7686916  97.3803754  34.0465933  55.6182471  91.8169447
  34.2288328  54.8004127  92.2797199  34.8698919  55.8350163  91.3794337
  34.3808099  54.5450656  89.0784495  34.9095865  54.0343110  88.4654657
  34.6436318  54.2293186  89.9430028  33.1346332  46.3242589 104.2007314
  32.4586969  46.2236718 104.8709689  33.9573966  46.1681802 104.6643311
  24.8825191  52.5614525  96.8219829  25.4678628  51.8158213  96.9547733
  24.6850030  52.8718482  97.7056493  27.7363847  55.5965773  91.8382271
  27.0674222  56.0811900  91.3546311  27.5976716  55.8434993  92.7525650
  19.4742846  45.1320125  95.5424272  19.5126946  44.5983716  96.3361390
  18.9683139  44.6055331  94.9235249  31.8769115  57.6309516  98.4364930
  32.4287423  57.7941138  99.2014015  32.2175309  58.2213954  97.7644954
  26.8533608  39.9784666  99.0386814  26.9174935  40.8399497  98.6264212
  26.7900729  39.3658667  98.3059173  36.7279989  52.4570774 104.2913584
  37.2719893  53.0700732 103.7968539  36.1466834  53.0150352 104.8080597
  23.1051424  43.8584227  88.6178203  23.4004865  42.9494906  88.5645257
  22.2039459  43.8371967  88.2959206  35.0137502  55.5791492  95.4228612
  34.8888642  54.7781231  94.9139557  35.6716594  56.0737685  94.9342582
  26.6345671  41.9340224  94.6005752  25.9132256  42.5476192  94.4613225
  27.4238926  42.4697989  94.5222398  37.0772411  53.3800512  97.0508162
  36.1302746  53.2605863  96.9786488  37.4255184  52.4923010  97.1334423
  29.4371984  39.2694651 100.8746404  29.9606386  39.5156947 101.6372713
  29.2184317  40.1014685 100.4549541  24.8339265  41.5398325  88.7417528
  24.5051971  40.6595704  88.5592634  25.1878636  41.4845994  89.6293918
  34.0818844  53.1753228  93.2512514  33.9343807  52.2469935  93.4320084
  34.9072338  53.1973319  92.7669589  27.9481088  41.8271295  89.1093006
  28.2877161  42.3557216  88.3871614  28.3953209  42.1651701  89.8851573
  37.6852966  53.9981787  94.3377387  38.6099513  53.7924648  94.2001838
  37.5168269  53.7498188  95.2466728  30.6424529  40.2108346  98.5596074
  30.3021350  39.4116159  98.9616754  29.9363535  40.5110057  97.9872907
  31.2941001  37.2957658  97.0123397  32.1167070  36.8218136  96.8902288
  31.5379065  38.0748142  97.5122084  29.9349236  40.3245917  87.3086299
  30.6557598  40.7027169  86.8050016  29.3114540  41.0434793  87.4121277
  34.0780358  41.0291066  88.2444631  34.2943973  41.9115703  87.9433459
  33.5974426  40.6377279  87.5150273  28.8179580  43.9876779  94.8215376
  28.6724161  44.3017082  95.7139657  28.3404783  44.6061679  94.2686274
  30.6775963  40.9779327  94.8696265  30.6637531  40.0820420  94.5328563
  31.3948391  40.9849990  95.5034551  32.5302093  41.4116667  96.9149393
  32.2719871  42.3333738  96.9133723  31.9987134  41.0147101  97.6049857
  37.4748282  54.5167454  89.6939478  37.6485160  53.9513877  88.9413331
  37.9677173  55.3168349  89.5118968  23.2925242  46.5282123  97.7603037
  22.7478710  47.3041931  97.8923311  24.1704592  46.8752928  97.6022158
  30.0812859  39.8593707  90.1383836  30.2028770  38.9310353  90.3374723
  29.7914901  39.8732393  89.2262151  32.9504049  37.5448617  93.2750555
  32.9725746  37.6087951  92.3202535  33.3672108  36.7053126  93.4691062
  43.3287673  47.2803877  91.3129778  43.7718819  46.5311202  90.9148901
  42.4514184  47.2714013  90.9303510  24.0791264  45.6552019 100.6533194
  23.3373000  45.8034655 101.2397824  23.7584008  45.9160285  99.7899943
  40.3614878  51.2833924  88.3223707  40.8866202  51.6221197  87.5973027
  40.2737230  50.3480939  88.1386842  32.0234926  55.1967998 100.4513584
  32.3322053  54.9517144 101.3236283  32.8210408  55.4014636  99.9632454
  32.0455539  57.3505907  92.6818960  31.6060529  56.8582286  93.3751817
  32.7963655  56.8078875  92.4411036  24.5247877  53.5417448  92.6843588
  25.3505897  53.2421220  92.3042232  24.1741929  52.7725071  93.1333377
  29.4929411  52.8943916  94.7541262  28.8709420  52.2314621  94.4543490
  30.1634278  52.9205048  94.0714910  22.7256483  51.4603775  93.6432522
  21.8888391  51.0325949  93.4616523  22.6980128  51.6536218  94.5803313
  40.0508784  51.9166828 103.6274905  39.2604328  51.8990966 103.0879405
  39.8142138  52.4555121 104.3823942  40.1706659  48.7659294 100.9407634
  40.2204664  48.6009301 101.8823157  40.0620582  47.8986553 100.5505515
  29.0542918  51.4447840  88.2299723  29.2031038  52.1283304  87.5766395
  29.8609361  51.4252930  88.7449178  37.4610421  44.7490222 102.2566940
  38.3620284  44.6096687 101.9650938  37.5358396  44.9144677 103.1965118
  31.7953227  42.1257077 101.1020127  30.9256536  42.4190643 100.8302715
  32.0312707  42.7097522 101.8227390  41.6724856  51.1856236 101.1849655
  41.3809664  51.5486216 102.0213116  41.0596987  50.4723244 101.0062987
  42.8720538  48.7509115  93.7052226  43.7067429  49.1898919  93.8689786
  43.0079667  48.2747769  92.8860471  39.9212044  46.3088850  99.6529713
  40.3966166  46.5016496  98.8448565  38.9977609  46.3648036  99.4073097
  26.8095551  47.4713017  89.2360792  26.5641592  46.5675347  89.4341002
  26.9791465  47.4730168  88.2940270  34.4992260  38.3436694  98.6185547
  35.0174204  39.0797721  98.2932036  34.1447393  38.6500687  99.4532306
  26.0791198  43.2041375  86.7346953  25.3860443  43.2785730  86.0786989
  25.8342950  42.4401719  87.2568470  34.7504855  34.7636976  94.1386444
  35.0306608  34.0960165  94.7646870  35.5355462  34.9566072  93.6261108
  32.5538323  53.9395970  85.7011470  31.9812290  54.5586157  85.2481942
  33.1271117  54.4895332  86.2351392  38.6213713  43.1854610  97.8858019
  39.5731136  43.2852708  97.9070243  38.4517163  42.3932879  98.3956103
  36.6428092  40.2710193  98.0717420  36.0478025  40.5515206  97.3763908
  36.3577789  40.7604094  98.8434161  35.7735583  54.2233120  86.8320052
  36.7066256  54.1578682  87.0352928  35.6858796  55.0589387  86.3734585
  41.1001791  46.4060730  97.0000319  41.0678111  45.4676731  97.1860002
  41.7102414  46.4844767  96.2666143  32.9385122  45.2756783  83.0427523
  33.8844226  45.1462991  83.1115941  32.5599367  44.5371445  83.5196951
  41.2496279  43.1971773  97.0458602  40.7335328  42.4130230  96.8588531
  42.1336228  42.8690490  97.2105121  38.9107006  36.9412789  93.0054414
  38.7131827  36.6327877  93.8897746  39.5206712  37.6674428  93.1352344
  46.9178341  47.4676737  96.1406355  47.6481729  47.2062025  96.7014059
  46.3085286  46.7305459  96.1808423  44.9993638  45.6084599  96.7380807
  44.2726801  45.4740564  96.1297298  44.5840925  45.9161428  97.5437525
  32.8223814  49.3274529 104.5028180  33.7426824  49.5053128 104.6968226
  32.7873397  48.3830574 104.3507879  31.1228039  43.2006759  82.9782408
  30.2159494  42.9039872  83.0545121  31.4004020  42.9036577  82.1116694
  22.0405979  44.5213123  93.4281454  21.7208763  43.6678431  93.1355828
  21.4939407  44.7361701  94.1839422  25.8185887  47.2375564  97.1450961
  26.0371896  48.1692671  97.1638995  26.2311660  46.8783538  97.9305765
  32.7390104  37.7443649  89.1326649  31.9290833  37.3990734  89.5081895
  33.4274521  37.4351193  89.7214261  34.6680653  36.8221696  90.7550946
  35.2211691  37.2417149  91.4140969  34.9050739  35.8957444  90.7973902
  29.8926823  40.0593694  83.1194387  30.7545987  40.3848593  83.3790204
  30.0777168  39.2725190  82.6067453  21.9094239  48.1416034  95.3974576
  21.2157711  47.7269987  94.8844530  22.6567230  48.1836571  94.8007995
  38.0459460  38.9322221  90.2629610  37.4658129  39.5907025  89.8807662
  37.7795393  38.1099566  89.8517027  36.4963026  38.3327279  92.4650930
  36.9962805  38.4443813  91.6565249  37.1398634  38.0288332  93.1051739
  30.5545022  46.2405908 105.3518771  30.0712104  47.0406268 105.5582660
  30.6405961  46.2513853 104.3986215  23.8230982  48.0734288  93.2740591
  23.8001670  48.1721975  92.3222474  24.1331618  48.9199439  93.5957757
  26.4818360  50.1310443  97.3887205  27.4361613  50.0994385  97.3217137
  26.2830883  49.6701067  98.2037431  27.0717742  48.7011559  99.9558003
  27.8910631  49.1955638  99.9792840  27.3454549  47.7843527  99.9275570
  36.8284338  41.0922311  89.3185958  35.9410193  41.3771962  89.1006153
  37.2438327  40.9316075  88.4713235  40.1798874  41.1168832  93.0340297
  40.9559264  41.6065285  93.3064914  39.4547008  41.5426887  93.4912167
  42.6171433  41.8296452  94.0914238  43.2115923  41.5892187  93.3807546
  42.6898016  41.1103582  94.7187774  24.8368588  55.6730062  94.4057403
  24.7023056  54.9130463  93.8395401  24.4200651  56.3970962  93.9386192
  36.8025362  46.6076847  89.5336248  36.7460563  47.0645399  88.6943881
  37.3553704  45.8467532  89.3559091  40.6130168  42.3966579  90.3586368
  40.3567102  41.9963215  91.1894576  39.9883036  43.1110373  90.2336507
  44.9242505  45.1362652  92.8657659  44.3642063  45.2055842  93.6389221
  44.3186009  44.9603637  92.1457156  27.9937714  56.5699379  94.6175846
  27.8770098  57.5144812  94.5154536  27.1730160  56.2672941  95.0061645
  37.5360141  47.7981629  86.8288778  37.4808945  47.6325900  85.8877222
  36.9106196  48.5057661  86.9850967  34.8506048  50.1030540 106.1542340
  35.7197208  50.2771193 105.7928975  34.3712800  50.9224957 106.0318070
  30.8456266  37.2989738  86.4074096  30.8334936  38.2431577  86.5642367
  31.7379688  37.1159883  86.1133557  29.0192228  57.2227641  97.8331774
  29.9219475  57.2551252  98.1498269  28.7929598  56.2928092  97.8478110
  30.7745830  55.9758628  94.4941853  29.8241461  55.9760490  94.3806225
  31.0778316  55.2291362  93.9777887  34.6608386  33.8932514  90.6620033
  33.8940782  33.3391001  90.8076715  35.0719091  33.9654383  91.5234184
  46.5098524  61.8119166  95.5587615  47.1476934  61.6925914  94.8550955
  46.3919367  62.7600010  95.6175567  43.3188230  61.7646594  95.4949140
  42.9806742  61.6487659  94.6069675  44.1877998  61.3637760  95.4750146
  39.1775046  63.6182071  91.4846031  38.6139911  63.5272008  90.7162318
  39.0627441  62.7981975  91.9648523  43.8008013  62.9181446 101.4535345
  43.7896654  62.5234244 100.5815849  43.9628653  62.1847519 102.0469117
  36.7239478  65.1133262  94.3230251  37.5160770  64.7724087  93.9076550
  36.9636128  65.2228237  95.2432404  44.7574605  67.2853039  86.7960496
  44.1062584  67.8707119  86.4094509  45.5518967  67.8159233  86.8555533
  38.6830232  64.3742176  87.1947630  39.4561108  63.8271163  87.0560506
  39.0355631  65.2386425  87.4062091  40.5215274  65.7018558 100.4014529
  40.2305140  66.6064189 100.2861196  41.1572259  65.7435086 101.1158599
  41.4471481  63.0795406  96.9915889  42.0435053  62.8551429  96.2772852
  41.5046453  62.3380152  97.5941337  41.0196510  60.5334842  84.8266080
  41.2722030  60.0116363  84.0649543  40.0821069  60.3700987  84.9292763
  46.0639792  59.5370620  92.6340823  46.8502882  59.1190043  92.2831240
  46.3278497  60.4416712  92.8022471  46.2349870  64.9743470  87.3329480
  45.5995703  65.0478097  88.0450385  45.9047276  65.5637069  86.6548559
  51.4648219  59.4745853  93.5373802  52.1973391  58.9045070  93.7711631
  50.7087575  59.0867454  93.9780307  43.0824339  61.8973095  90.7337144
  42.7182546  61.3703716  91.4450066  43.9391455  61.5071564  90.5603629
  48.9873640  53.1867427  97.9968410  48.6556965  54.0562838  97.7729625
  48.3919253  52.8703711  98.6762441  42.7229826  56.9262995  85.7298493
  42.8904228  57.7943231  86.0968964  42.5326995  57.0890276  84.8059782
  45.4805159  65.3879973  97.3964323  45.1805882  66.2905012  97.2880130
  45.1356219  65.1212157  98.2485476  38.9317641  61.8393770  93.4301027
  38.0068137  61.7069984  93.6378719  39.1802054  62.6187990  93.9270970
  48.8802303  57.9062514  95.0761760  47.9719180  57.8377922  94.7820521
  48.8289899  58.3834459  95.9043586  42.7019047  59.3820652  86.7145159
  42.5818672  59.8277703  87.5530640  42.0071635  59.7305970  86.1558698
  36.2926452  61.4827044  94.2644816  36.4218833  61.7361523  95.1784228
  35.6123903  62.0754752  93.9449471  40.4625939  72.1524294  90.3635291
  40.3849969  73.1032119  90.4423771  39.8587583  71.8070166  91.0210217
  42.9543169  59.3252159 103.0196658  42.1776503  59.8846079 103.0099522
  43.5933732  59.8108942 103.5411528  50.7463950  56.1078952  96.8539634
  50.1038330  56.4011485  96.2079429  50.2418878  55.9931872  97.6592831
  48.4004113  59.8542125  87.5425493  49.3121969  60.0869512  87.3673191
  47.8913760  60.4379169  86.9800572  41.2089541  62.1337613 102.5814625
  41.9504226  62.6722657 102.3049448  40.5026527  62.7603901 102.7386176
  46.6844881  64.2766753 101.1786786  47.0928237  63.8349164 100.4341418
  45.9622142  63.7019381 101.4320979  43.0375951  59.2139360  98.5520343
  43.8837146  59.6378773  98.6954992  42.9774589  58.5572984  99.2458906
  47.0073695  64.8367944  94.9339075  46.3782558  65.0013658  94.2315143
  46.6199358  65.2509553  95.7050039  50.8862927  65.7722382  92.2883439
  50.2013966  66.1521283  91.7380472  50.9706777  66.3817708  93.0215386
  46.1875396  56.8743728 100.2101517  45.9436328  57.6285789  99.6735792
  46.4635327  57.2529076 101.0448764  48.1413859  63.4182341  98.8878782
  48.3530754  64.0614100  98.2113163  48.0943607  62.5844657  98.4200712
  45.7440088  56.0300161  95.7915354  44.8824567  56.3281415  96.0832092
  45.7702523  56.2470560  94.8596387  42.5601657  64.5742352  92.1989160
  43.0240003  64.8530055  91.4093782  42.2958455  63.6725796  92.0162251
  39.4525738  64.1213833  95.1368923  40.0227095  64.5501102  94.4986408
  40.0433850  63.8396418  95.8353109  41.4970543  60.6965504  89.0078725
  42.1994587  61.1486548  89.4752651  41.1651172  60.0549323  89.6358618
  39.9450905  59.2877261 103.3829935  39.3149566  59.9693542 103.6165331
  39.8386993  59.1760342 102.4383073  35.2395877  58.9549057  94.3095859
  34.4494931  59.2106585  93.8335969  35.7307125  59.7697395  94.4147899
  49.2559687  66.2954296  97.0601140  50.0777131  65.8934483  96.7783821
  49.2522090  66.1922530  98.0117255  37.1910623  59.3193636  91.2679335
  36.3941786  59.4312330  91.7862831  36.9636215  59.6580288  90.4020226
  43.0216290  65.8438339  99.2161850  43.0860723  66.3058747 100.0520022
  42.3127214  65.2135704  99.3444160  33.5233580  59.2079547  96.7410849
  33.7741619  60.0926557  97.0068425  34.0593129  59.0284149  95.9685941
  57.3465680  62.6393044  93.4086111  56.5929388  62.0700443  93.2530115
  57.4813221  62.6055709  94.3556746  42.7364308  67.5106447  89.0840830
  42.6009983  68.3557983  89.5125678  43.2774121  67.7125724  88.3206764
  39.2231648  53.5898027 105.7455186  38.8298593  53.0364225 106.4202830
  40.0397788  53.9008605 106.1361703  36.1893705  65.0281885  89.6568755
  36.7018226  65.8225135  89.8074320  36.8416418  64.3308175  89.5902357
  37.9988590  68.1447641  91.7391509  38.1755218  69.0665606  91.5512492
  38.7945424  67.8306060  92.1685888  42.1399609  55.0055906 103.3375442
  42.8809322  55.6063059 103.2579905  42.3717531  54.2633544 102.7793485
  37.2840947  60.1912273 101.6153672  37.1694462  59.2897530 101.9160771
  36.4285464  60.4375970 101.2638488  44.3632784  68.1330013 103.2141172
  43.9196639  67.3466392 102.8962077  45.0249998  68.3209164 102.5485063
  39.1219906  69.6625815  97.7401851  39.6727331  69.5342878  96.9678845
  38.2831382  69.9620704  97.3896744  46.4614022  68.4132813 101.2422574
  46.4432498  69.2341694 100.7502843  47.3833943  68.2886888 101.4672715
  42.9187077  65.9276943 102.0846082  43.4515413  65.1665231 101.8545390
  42.3901158  65.6350595 102.8270237  46.0856772  51.0337009  97.6139724
  45.7421041  51.9238650  97.5378834  46.4535734  50.8438666  96.7509309
  34.1542622  63.3570539  90.4328326  34.9917844  63.7667547  90.2162034
  34.3320890  62.4169981  90.4028520  46.0507054  61.0245620  86.1212159
  45.5353678  61.7950224  86.3600546  45.7784363  60.3510756  86.7445220
  43.6354165  55.8695321  91.1797397  42.7795762  55.4802171  91.0003036
  44.0481117  55.9487281  90.3197183  45.1653312  53.4041664  95.5788957
  44.6618108  53.3671799  94.7656762  45.4583919  54.3134407  95.6385614
  41.4096198  53.4880394  94.5855139  42.2749195  53.2923202  94.2261028
  41.4773707  53.2590745  95.5124496  51.0241328  63.7777974  88.0565332
  50.2470771  63.4389134  87.6120494  51.7032809  63.7830598  87.3820297
  45.8393357  58.8972712  87.9471940  45.5343493  59.2118861  88.7982083
  46.7923800  58.9754132  87.9899273  44.2839789  65.0562935  89.5964894
  43.7561151  64.3215695  89.2838132  43.7827292  65.8337612  89.3504862
  49.2632635  63.2511956  94.7131940  48.6056310  63.9411217  94.8012069
  50.0673035  63.6408388  95.0565927  39.0158517  55.7182601  91.9571506
  39.5902269  55.4957783  91.2244699  39.6029499  55.7871296  92.7100107
  48.0738094  61.6056328  92.7635882  48.5869976  62.2386320  93.2657592
  48.7239318  61.0057524  92.3979242  39.3428104  57.7487062  85.9767391
  38.5065416  58.0861749  86.2976666  39.2032874  57.6136042  85.0394528
  41.3181185  52.5923850  90.6846575  40.6645597  52.2772868  90.0603190
  41.2761659  51.9699591  91.4106398  45.3360468  71.5840653  85.5196553
  44.6622167  71.8872349  86.1281511  45.7226290  72.3869733  85.1702010
  44.5518925  59.0805784  95.0094223  43.6341486  59.3020731  94.8515911
  44.9679069  59.1552094  94.1505930  45.3353973  60.4797200  90.1396903
  46.0825792  60.9918597  89.8304025  45.6045562  60.1581252  91.0001296
  43.6080623  62.9755740  87.1223857  42.6991842  62.6914773  87.2196327
  43.6375707  63.3954819  86.2627164  48.8399890  66.5862330  90.8915025
  48.3862217  65.7453240  90.9480215  48.2093857  67.2223728  91.2289805
  47.7832810  57.5154316  92.1215692  47.0455567  57.0031702  92.4525935
  48.0359583  57.0754697  91.3098969  47.2832830  68.4238826  91.8264843
  47.5755804  68.9843884  91.1077209  47.7931450  68.7167387  92.5818002
  47.8844437  50.2930568  92.7157461  48.1903314  49.4327931  92.4283377
  48.6097042  50.8848188  92.5156455  34.1768793  60.6961254  91.1039059
  33.9793193  60.1030615  90.3790126  33.6215457  60.3913465  91.8214998
  42.1565517  60.5884361  93.2233653  42.2114127  59.6358197  93.1476129
  41.3456719  60.7443800  93.7074951  40.0957877  59.2061421  90.9824031
  39.2825742  59.5055591  91.3889224  40.5916871  58.8117109  91.6998514
  42.2466455  69.2019178  92.9158296  42.2042634  69.4280024  91.9866828
  43.1629154  68.9682552  93.0644097  45.6932089  59.6703245  99.8138925
  46.0481476  59.8974718 100.6733391  46.3404220  60.0021622  99.1916181
  51.4229826  62.7921681  90.5188254  51.2847724  62.9823277  89.5909444
  51.0666044  63.5541064  90.9756305  39.5871952  56.7779776  96.5985266
  40.2271331  56.6368535  95.9008230  38.7549482  56.4914290  96.2223868
  51.4499205  64.8598208  95.5299526  51.8835712  64.7673497  96.3782580
  52.1630786  64.8355708  94.8919542  40.3632256  66.0782207  92.7120259
  41.1572854  65.5832527  92.5102834  39.6523948  65.5500070  92.3487964
  45.1827100  68.4600302  97.0632626  45.2364122  69.0291238  97.8310342
  44.3141881  68.6302187  96.6986664  36.6715019  60.2225288  88.7880012
  35.7412607  60.1609744  89.0049974  36.7672491  59.7001241  87.9916653
  36.5900568  56.7480101  91.3758253  36.8507385  57.6625434  91.2667414
  37.4117740  56.2804544  91.5254866  38.0625493  58.1617858  98.5457078
  38.7348547  57.9535220  97.8969727  37.2355280  57.9639944  98.1062310
  52.3114755  64.9021909  98.0632411  52.5050645  65.8067719  98.3091686
  52.2115373  64.4429328  98.8970996  43.9651065  54.7879799 100.5622739
  43.3178980  55.4869749 100.4687215  44.7352081  55.2215943 100.9298987
  47.3729863  65.0528651 103.6373292  47.2215370  64.8239203 102.7203376
  47.3634543  66.0099253 103.6504637  44.1415200  62.6260564  98.6219558
  45.0707260  62.7771724  98.4488526  43.7206230  62.7144585  97.7668205
  42.9403532  66.6511229  96.3918096  42.8014617  66.2830013  97.2644034
  42.1518128  67.1658868  96.2202054  43.5351684  71.7520325  87.7343632
  43.7103439  71.2808368  88.5489255  42.8484472  72.3786091  87.9624893
  44.4908747  66.0292831  93.7806934  44.1558579  65.9893601  94.6764584
  43.9912692  65.3637547  93.3077344  38.4652991  61.4360461  99.3059515
  38.3272789  60.7040700  99.9071054  39.3757914  61.3469361  99.0243703
  47.4267938  63.3748866  84.0543993  46.8097109  62.6495694  83.9577046
  46.9584427  64.1358226  83.7111068  41.0935291  61.1480421  98.7943195
  41.8034910  60.5073613  98.7529813  41.0504600  61.3993315  99.7169375
  49.0822070  68.0847774 101.7149774  49.0234616  67.4006994 101.0480357
  49.4841588  68.8266764 101.2630400  39.8064225  58.1345639 100.6138834
  39.2701582  57.6836377 101.2660430  39.2180934  58.2691547  99.8709298
  38.1012769  74.9009688  94.5083493  38.3409367  75.5328212  95.1862511
  37.2581965  74.5497728  94.7948852  39.2166484  57.5934290  83.1765298
  38.3395951  57.4723091  82.8127544  39.6924237  56.8020368  82.9244186
  49.0839477  66.0487358  99.9463753  48.1966256  65.7113280 100.0690152
  49.6538028  65.3170389 100.1832519  30.7368624  62.3811450  93.2706805
  31.4239664  62.0673180  92.6827820  30.5816753  63.2852814  92.9974056
  35.5403347  57.2701646  97.6991828  35.4561535  56.6627316  96.9642238
  34.7186053  57.7610665  97.7001325  42.6140631  70.7088810  96.9124997
  42.5410802  71.5143782  97.4244301  42.1718024  70.9080776  96.0873018
  42.4030410  69.9460580  90.4227818  41.6197932  70.4882260  90.5166043
  43.1023156  70.4634560  90.8222059  45.7127060  55.7555210  93.0662024
  46.2095760  55.0025172  92.7463094  44.9414042  55.7919526  92.5005233
  53.5656818  61.4595575  94.7080315  53.5546694  62.3420291  94.3374248
  52.6974197  61.1067126  94.5134852  45.0739314  70.6075644  99.0683155
  45.7867286  71.2423109  98.9959057  44.5829343  70.7039510  98.2523157
  46.7956841  64.5126897  90.6400447  45.8613120  64.6328359  90.4705151
  46.9733510  63.6099364  90.3760457  42.2962029  57.8972593  92.7933708
  41.9259817  57.3443633  93.4814614  42.7921122  57.2930726  92.2408708
  50.1829392  60.3544216  91.1750481  50.6489845  61.1872208  91.1010784
  50.6336893  59.8889198  91.8795740  40.1251228  68.3570088  99.8888726
  40.8260687  68.9906571 100.0418120  39.6546343  68.6984819  99.1284365
  48.2505624  66.6988038  88.1736633  48.5265467  66.5844632  89.0830507
  47.3810122  66.3005522  88.1348806  48.1546055  52.7224803  95.2141382
  47.2409135  52.9529030  95.3823589  48.5839157  52.8063247  96.0655415
  47.9252514  60.9114695  97.7141276  47.2723964  61.1590603  97.0593729
  48.3032894  60.0978833  97.3803754  44.8859688  70.9474388  91.8169447
  45.0682082  70.1296044  92.2797199  45.7092674  71.1642081  91.3794337
  45.2201853  69.8742574  89.0784495  45.7489620  69.3635028  88.4654657
  45.4830073  69.5585104  89.9430028  43.9740087  61.6534506 104.2007314
  43.2980724  61.5528636 104.8709689  44.7967721  61.4973720 104.6643311
  35.7218946  67.8906443  96.8219829  36.3072383  67.1450131  96.9547733
  35.5243784  68.2010400  97.7056493  38.5757601  70.9257690  91.8382271
  37.9067976  71.4103818  91.3546311  38.4370471  71.1726911  92.7525650
  30.3136601  60.4612043  95.5424272  30.3520700  59.9275634  96.3361390
  29.8076893  59.9347249  94.9235249  42.7162870  72.9601434  98.4364930
  43.2681178  73.1233055  99.2014015  43.0569063  73.5505872  97.7644954
  37.6927363  55.3076584  99.0386814  37.7568689  56.1691414  98.6264212
  37.6294483  54.6950585  98.3059173  37.1679635  57.3799716 102.6859848
  37.7951674  56.9976793 103.2997373  36.3107554  57.1613918 103.0515541
  47.5673744  67.7862691 104.2913584  48.1113648  68.3992649 103.7968539
  46.9860589  68.3442270 104.8080597  33.9445178  59.1876145  88.6178203
  34.2398619  58.2786824  88.5645257  33.0433214  59.1663885  88.2959206
  45.8531257  70.9083409  95.4228612  45.7282396  70.1073149  94.9139557
  46.5110348  71.4029603  94.9342582  37.4739425  57.2632142  94.6005752
  36.7526011  57.8768109  94.4613225  38.2632681  57.7989907  94.5222398
  47.9166165  68.7092429  97.0508162  46.9696501  68.5897781  96.9786488
  48.2648938  67.8214927  97.1334423  40.2765739  54.5986568 100.8746404
  40.8000140  54.8448865 101.6372713  40.0578072  55.4306603 100.4549541
  35.6733020  56.8690243  88.7417528  35.3445726  55.9887622  88.5592634
  36.0272390  56.8137912  89.6293918  44.9212599  68.5045146  93.2512514
  44.7737561  67.5761853  93.4320084  45.7466092  68.5265236  92.7669589
  38.7874843  57.1563213  89.1093006  39.1270915  57.6849134  88.3871614
  39.2346963  57.4943619  89.8851573  48.5246720  69.3273704  94.3377387
  49.4493268  69.1216566  94.2001838  48.3562024  69.0790105  95.2466728
  41.4818284  55.5400263  98.5596074  41.1415104  54.7408076  98.9616754
  40.7757290  55.8401974  97.9872907  42.1334756  52.6249576  97.0123397
  42.9560825  52.1510054  96.8902288  42.3772819  53.4040060  97.5122084
  40.7742990  55.6537834  87.3086299  41.4951353  56.0319087  86.8050016
  40.1508294  56.3726711  87.4121277  44.9174113  56.3582983  88.2444631
  45.1337727  57.2407621  87.9433459  44.4368180  55.9669197  87.5150273
  39.6573334  59.3168696  94.8215376  39.5117915  59.6308999  95.7139657
  39.1798538  59.9353597  94.2686274  41.5169717  56.3071244  94.8696265
  41.5031286  55.4112338  94.5328563  42.2342145  56.3141908  95.5034551
  43.3695848  56.7408585  96.9149393  43.1113626  57.6625655  96.9133723
  42.8380888  56.3439019  97.6049857  48.3142037  69.8459372  89.6939478
  48.4878914  69.2805794  88.9413331  48.8070928  70.6460267  89.5118968
  34.1318996  61.8574041  97.7603037  33.5872465  62.6333849  97.8923311
  35.0098346  62.2044845  97.6022158  40.9206613  55.1885625  90.1383836
  41.0422524  54.2602271  90.3374723  40.6308655  55.2024311  89.2262151
  43.7897803  52.8740535  93.2750555  43.8119500  52.9379868  92.3202535
  44.2065862  52.0345044  93.4691062  54.1681428  62.6095795  91.3129778
  54.6112574  61.8603120  90.9148901  53.2907938  62.6005931  90.9303510
  49.3017209  69.1626136  86.7936376  49.9968114  69.7832829  87.0123691
  49.6440359  68.3121487  87.0688754  34.9185018  60.9843937 100.6533194
  34.1766754  61.1326572 101.2397824  34.5977763  61.2452203  99.7899943
  51.2008632  66.6125842  88.3223707  51.7259956  66.9513114  87.5973027
  51.1130985  65.6772857  88.1386842  42.8628681  70.5259915 100.4513584
  43.1715807  70.2809062 101.3236283  43.6604163  70.7306554  99.9632454
  42.8849293  72.6797825  92.6818960  42.4454283  72.1874204  93.3751817
  43.6357410  72.1370793  92.4411036  35.3641632  68.8709366  92.6843588
  36.1899652  68.5713138  92.3042232  35.0135684  68.1016988  93.1333377
  40.3323165  68.2235834  94.7541262  39.7103174  67.5606539  94.4543490
  41.0028032  68.2496966  94.0714910  33.5650237  66.7895692  93.6432522
  32.7282145  66.3617867  93.4616523  33.5373882  66.9828136  94.5803313
  40.4047693  56.7017622 104.3473768  40.4535848  57.5779745 103.9651538
  40.9470207  56.1595015 103.7745411  50.8902538  67.2458745 103.6274905
  50.0998082  67.2282884 103.0879405  50.6535893  67.7847039 104.3823942
  51.0100413  64.0951212 100.9407634  51.0598418  63.9301219 101.8823157
  50.9014337  63.2278471 100.5505515  39.8936672  66.7739757  88.2299723
  40.0424792  67.4575222  87.5766395  40.7003116  66.7544847  88.7449178
  48.3004176  60.0782140 102.2566940  49.2014039  59.9388605 101.9650938
  48.3752150  60.2436595 103.1965118  42.6346981  57.4548994 101.1020127
  41.7650290  57.7482561 100.8302715  42.8706461  58.0389439 101.8227390
  52.5118610  66.5148153 101.1849655  52.2203419  66.8778134 102.0213116
  51.8990741  65.8015161 101.0062987  53.7114293  64.0801033  93.7052226
  54.5461184  64.5190837  93.8689786  53.8473421  63.6039686  92.8860471
  50.7605798  61.6380768  99.6529713  51.2359920  61.8308414  98.8448565
  49.8371364  61.6939954  99.4073097  37.6489305  62.8004935  89.2360792
  37.4035347  61.8967265  89.4341002  37.8185220  62.8022085  88.2940270
  45.3386015  53.6728611  98.6185547  45.8567959  54.4089638  98.2932036
  44.9841148  53.9792605  99.4532306  36.9184953  58.5333293  86.7346953
  36.2254198  58.6077648  86.0786989  36.6736704  57.7693636  87.2568470
  45.5898609  50.0928894  94.1386444  45.8700363  49.4252083  94.7646870
  46.3749216  50.2857990  93.6261108  43.3932078  69.2687888  85.7011470
  42.8206045  69.8878075  85.2481942  43.9664871  69.8187250  86.2351392
  49.4607467  58.5146528  97.8858019  50.4124890  58.6144626  97.9070243
  49.2910918  57.7224796  98.3956103  47.4821847  55.6002111  98.0717420
  46.8871779  55.8807124  97.3763908  47.1971544  56.0896012  98.8434161
  46.6129337  69.5525038  86.8320052  47.5460011  69.4870600  87.0352928
  46.5252550  70.3881305  86.3734585  49.2417354  68.8690908  83.7924000
  49.1630986  68.5350772  84.6859758  50.0627021  69.3612676  83.7915472
  51.9395545  61.7352648  97.0000319  51.9071865  60.7968648  97.1860002
  52.5496169  61.8136684  96.2666143  43.7778876  60.6048701  83.0427523
  44.7237981  60.4754909  83.1115941  43.3993121  59.8663362  83.5196951
  52.0890034  58.5263691  97.0458602  51.5729082  57.7422148  96.8588531
  52.9729982  58.1982408  97.2105121  49.7500761  52.2704707  93.0054414
  49.5525582  51.9619795  93.8897746  50.3600466  52.9966346  93.1352344
  57.7572095  62.7968654  96.1406355  58.4875484  62.5353943  96.7014059
  57.1479041  62.0597376  96.1808423  55.8387392  60.9376517  96.7380807
  55.1120556  60.8032482  96.1297298  55.4234679  61.2453346  97.5437525
  43.6617569  64.6566447 104.5028180  44.5820578  64.8345046 104.6968226
  43.6267152  63.7122492 104.3507879  41.9621793  58.5298677  82.9782408
  41.0553249  58.2331790  83.0545121  42.2397774  58.2328495  82.1116694
  32.8799734  59.8505040  93.4281454  32.5602518  58.9970349  93.1355828
  32.3333162  60.0653619  94.1839422  36.6579641  62.5667481  97.1450961
  36.8765651  63.4984589  97.1638995  37.0705415  62.2075456  97.9305765
  43.5783859  53.0735567  89.1326649  42.7684587  52.7282652  89.5081895
  44.2668276  52.7643110  89.7214261  45.5074407  52.1513613  90.7550946
  46.0605446  52.5709067  91.4140969  45.7444494  51.2249362  90.7973902
  41.5307506  58.1400687 106.5353710  41.4304233  59.0895044 106.4665801
  41.3129049  57.8118926 105.6629780  32.7487994  63.4707952  95.3974576
  32.0551465  63.0561905  94.8844530  33.4960985  63.5128488  94.8007995
  48.8853214  54.2614139  90.2629610  48.3051883  54.9198943  89.8807662
  48.6189147  53.4391483  89.8517027  47.3356781  53.6619196  92.4650930
  47.8356559  53.7735731  91.6565249  47.9792389  53.3580249  93.1051739
  41.3938777  61.5697826 105.3518771  40.9105858  62.3698186 105.5582660
  41.4799716  61.5805771 104.3986215  34.6624736  63.4026206  93.2740591
  34.6395424  63.5013893  92.3222474  34.9725373  64.2491356  93.5957757
  37.3212114  65.4602361  97.3887205  38.2755368  65.4286303  97.3217137
  37.1224638  64.9992984  98.2037431  37.9111496  64.0303477  99.9558003
  38.7304385  64.5247555  99.9792840  38.1848304  63.1135445  99.9275570
  47.6678092  56.4214229  89.3185958  46.7803947  56.7063880  89.1006153
  48.0832081  56.2607992  88.4713235  51.0192628  56.4460750  93.0340297
  51.7953019  56.9357202  93.3064914  50.2940763  56.8718804  93.4912167
  53.4565187  57.1588369  94.0914238  54.0509678  56.9184105  93.3807546
  53.5291771  56.4395500  94.7187774  35.6762343  71.0021980  94.4057403
  35.5416811  70.2422381  93.8395401  35.2594405  71.7262880  93.9386192
  46.8121306  66.1858904  83.4133978  47.5157156  66.3908906  84.0291634
  46.0883955  66.7535666  83.6783062  47.6419116  61.9368765  89.5336248
  47.5854318  62.3937316  88.6943881  48.1947459  61.1759450  89.3559091
  51.4523922  57.7258497  90.3586368  51.1960856  57.3255132  91.1894576
  50.8276790  58.4402291  90.2336507  55.7636260  60.4654570  92.8657659
  55.2035818  60.5347759  93.6389221  55.1579763  60.2895555  92.1457156
  38.8331469  71.8991297  94.6175846  38.7163853  72.8436730  94.5154536
  38.0123915  71.5964859  95.0061645  48.7208003  66.6241433  85.4632438
  49.5553607  66.1922631  85.2809913  48.5592346  66.4523447  86.3909333
  48.3753895  63.1273546  86.8288778  48.3202699  62.9617818  85.8877222
  47.7499951  63.8349579  86.9850967  33.1646410  58.3641611 100.6550200
  33.8105274  57.8540565 101.1437425  32.9563562  59.1010292 101.2293625
  45.6899803  65.4322458 106.1542340  46.5590962  65.6063110 105.7928975
  45.2106554  66.2516875 106.0318070  39.8585983  72.5519559  97.8331774
  40.7613230  72.5843169  98.1498269  39.6323353  71.6220010  97.8478110
  41.6139585  71.3050546  94.4941853  40.6635216  71.3052407  94.3806225
  41.9172071  70.5583280  93.9777887  45.5002140  49.2224432  90.6620033
  44.7334536  48.6682919  90.8076715  45.9112845  49.2946301  91.5234184
  37.5043901  55.5109228 104.7525214  38.3675363  55.1546032 104.9628539
  36.9309312  55.1723122 105.4400618  57.3492278  77.1411084  95.5587615
  57.9870688  77.0217831  94.8550955  57.2313121  78.0891928  95.6175567
  54.1581985  77.0938512  95.4949140  53.8200496  76.9779577  94.6069675
  55.0271753  76.6929677  95.4750146  50.0168800  78.9473989  91.4846031
  49.4533665  78.8563925  90.7162318  49.9021195  78.1273893  91.9648523
  54.6401768  78.2473364 101.4535345  54.6290408  77.8526162 100.5815849
  54.8022407  77.5139436 102.0469117  47.5633232  80.4425180  94.3230251
  48.3554524  80.1016005  93.9076550  47.8029882  80.5520155  95.2432404
  55.5968359  82.6144956  86.7960496  54.9456339  83.1999037  86.4094509
  56.3912722  83.1451151  86.8555533  49.5223986  79.7034093  87.1947630
  50.2954862  79.1563080  87.0560506  49.8749385  80.5678343  87.4062091
  51.3609029  81.0310476 100.4014529  51.0698895  81.9356106 100.2861196
  51.9966013  81.0727003 101.1158599  52.2865236  78.4087324  96.9915889
  52.8828808  78.1843347  96.2772852  52.3440207  77.6672070  97.5941337
  51.8590264  75.8626759  84.8266080  52.1115785  75.3408281  84.0649543
  50.9214823  75.6992905  84.9292763  56.9033547  74.8662538  92.6340823
  57.6896636  74.4481961  92.2831240  57.1672251  75.7708630  92.8022471
  57.0743624  80.3035388  87.3329480  56.4389457  80.3770015  88.0450385
  56.7441031  80.8928987  86.6548559  62.3041974  74.8037771  93.5373802
  63.0367146  74.2336988  93.7711631  61.5481330  74.4159371  93.9780307
  51.5786553  77.7654865  87.0290455  51.4622811  77.0899769  87.6971539
  51.6888813  77.2787239  86.2122608  53.9218094  77.2265013  90.7337144
  53.5576301  76.6995634  91.4450066  54.7785210  76.8363482  90.5603629
  59.8267394  68.5159345  97.9968410  59.4950719  69.3854756  97.7729625
  59.2313008  68.1995629  98.6762441  53.5623581  72.2554912  85.7298493
  53.7297983  73.1235149  86.0968964  53.3720750  72.4182194  84.8059782
  56.3198914  80.7171891  97.3964323  56.0199637  81.6196930  97.2880130
  55.9749973  80.4504074  98.2485476  49.7711395  77.1685688  93.4301027
  48.8461892  77.0361902  93.6378719  50.0195809  77.9479907  93.9270970
  59.7196058  73.2354431  95.0761760  58.8112935  73.1669840  94.7820521
  59.6683653  73.7126376  95.9043586  53.5412802  74.7112570  86.7145159
  53.4212427  75.1569621  87.5530640  52.8465390  75.0597887  86.1558698
  47.1320206  76.8118962  94.2644816  47.2612588  77.0653440  95.1784228
  46.4517658  77.4046670  93.9449471  51.3019694  87.4816211  90.3635291
  51.2243723  88.4324037  90.4423771  50.6981337  87.1362084  91.0210217
  53.7936923  74.6544077 103.0196658  53.0170257  75.2137997 103.0099522
  54.4327486  75.1400860 103.5411528  61.5857704  71.4370870  96.8539634
  60.9432084  71.7303403  96.2079429  61.0812633  71.3223790  97.6592831
  59.2397868  75.1834043  87.5425493  60.1515724  75.4161430  87.3673191
  58.7307515  75.7671087  86.9800572  52.0483296  77.4629530 102.5814625
  52.7897980  78.0014574 102.3049448  51.3420281  78.0895819 102.7386176
  57.5238635  79.6058671 101.1786786  57.9321991  79.1641081 100.4341418
  56.8015897  79.0311298 101.4320979  53.8769705  74.5431278  98.5520343
  54.7230901  74.9670691  98.6954992  53.8168343  73.8864902  99.2458906
  57.8467450  80.1659861  94.9339075  57.2176312  80.3305576  94.2315143
  57.4593112  80.5801471  95.7050039  61.7256682  81.1014299  92.2883439
  61.0407720  81.4813201  91.7380472  61.8100531  81.7109626  93.0215386
  57.0269151  72.2035646 100.2101517  56.7830083  72.9577706  99.6735792
  57.3029081  72.5820993 101.0448764  58.9807613  78.7474258  98.8878782
  59.1924509  79.3906018  98.2113163  58.9337362  77.9136575  98.4200712
  56.5833842  71.3592079  95.7915354  55.7218321  71.6573332  96.0832092
  56.6096277  71.5762478  94.8596387  53.3995412  79.9034269  92.1989160
  53.8633757  80.1821972  91.4093782  53.1352210  79.0017714  92.0162251
  50.2919493  79.4505751  95.1368923  50.8620850  79.8793019  94.4986408
  50.8827605  79.1688336  95.8353109  52.3364298  76.0257422  89.0078725
  53.0388341  76.4778465  89.4752651  52.0044926  75.3841241  89.6358618
  50.7844659  74.6169178 103.3829935  50.1543320  75.2985459 103.6165331
  50.6780747  74.5052260 102.4383073  46.0789632  74.2840974  94.3095859
  45.2888686  74.5398503  93.8335969  46.5700879  75.0989312  94.4147899
  60.0953441  81.6246214  97.0601140  60.9170885  81.2226401  96.7783821
  60.0915844  81.5214448  98.0117255  48.0304377  74.6485554  91.2679335
  47.2335541  74.7604248  91.7862831  47.8029969  74.9872206  90.4020226
  53.8610045  81.1730257  99.2161850  53.9254477  81.6350664 100.0520022
  53.1520969  80.5427622  99.3444160  44.3627335  74.5371465  96.7410849
  44.6135373  75.4218475  97.0068425  44.8986883  74.3576066  95.9685941
  68.1859434  77.9684962  93.4086111  67.4323143  77.3992360  93.2530115
  68.3206976  77.9347627  94.3556746  53.5758063  82.8398364  89.0840830
  53.4403737  83.6849900  89.5125678  54.1167875  83.0417642  88.3206764
  50.0625402  68.9189944 105.7455186  49.6692348  68.3656143 106.4202830
  50.8791542  69.2300523 106.1361703  47.0287460  80.3573802  89.6568755
  47.5411980  81.1517053  89.8074320  47.6810173  79.6600093  89.5902357
  48.8382345  83.4739559  91.7391509  49.0148973  84.3957523  91.5512492
  49.6339178  83.1597978  92.1685888  52.9793363  70.3347823 103.3375442
  53.7203077  70.9354977 103.2579905  53.2111286  69.5925461 102.7793485
  48.1234701  75.5204191 101.6153672  48.0088216  74.6189448 101.9160771
  47.2679219  75.7667887 101.2638488  55.2026539  83.4621931 103.2141172
  54.7590393  82.6758310 102.8962077  55.8643752  83.6501081 102.5485063
  49.9613660  84.9917733  97.7401851  50.5121085  84.8634796  96.9678845
  49.1225136  85.2912622  97.3896744  57.3007777  83.7424731 101.2422574
  57.2826252  84.5633612 100.7502843  58.2227697  83.6178806 101.4672715
  53.7580831  81.2568860 102.0846082  54.2909168  80.4957149 101.8545390
  53.2294912  80.9642512 102.8270237  56.9250526  66.3628926  97.6139724
  56.5814795  67.2530568  97.5378834  57.2929489  66.1730584  96.7509309
  44.9936377  78.6862457  90.4328326  45.8311599  79.0959465  90.2162034
  45.1714644  77.7461899  90.4028520  56.8900809  76.3537537  86.1212159
  56.3747432  77.1242142  86.3600546  56.6178117  75.6802674  86.7445220
  54.4747920  71.1987238  91.1797397  53.6189516  70.8094089  91.0003036
  54.8874872  71.2779199  90.3197183  56.0047066  68.7333581  95.5788957
  55.5011862  68.6963717  94.7656762  56.2977673  69.6426324  95.6385614
  52.2489952  68.8172311  94.5855139  53.1142949  68.6215120  94.2261028
  52.3167461  68.5882663  95.5124496  61.8635083  79.1069892  88.0565332
  61.0864526  78.7681052  87.6120494  62.5426564  79.1122515  87.3820297
  56.6787112  74.2264630  87.9471940  56.3737248  74.5410779  88.7982083
  57.6317554  74.3046049  87.9899273  55.1233544  80.3854853  89.5964894
  54.5954905  79.6507612  89.2838132  54.6221047  81.1629529  89.3504862
  60.1026390  78.5803873  94.7131940  59.4450064  79.2703135  94.8012069
  60.9066789  78.9700305  95.0565927  49.8552271  71.0474519  91.9571506
  50.4296023  70.8249701  91.2244699  50.4423254  71.1163214  92.7100107
  58.9131849  76.9348246  92.7635882  59.4263730  77.5678238  93.2657592
  59.5633073  76.3349442  92.3979242  50.1821859  73.0778980  85.9767391
  49.3459171  73.4153667  86.2976666  50.0426628  72.9427960  85.0394528
  52.1574939  67.9215768  90.6846575  51.5039351  67.6064785  90.0603190
  52.1155413  67.2991508  91.4106398  53.2686144  78.2035063  82.5999867
  52.3613206  77.9724317  82.7991016  53.7657176  77.4072682  82.7873849
  56.1754223  86.9132570  85.5196553  55.5015922  87.2164267  86.1281511
  56.5620045  87.7161651  85.1702010  55.3912680  74.4097702  95.0094223
  54.4735241  74.6312649  94.8515911  55.8072823  74.4844012  94.1505930
  56.1747727  75.8089117  90.1396903  56.9219546  76.3210514  89.8304025
  56.4439317  75.4873170  91.0001296  54.4474377  78.3047658  87.1223857
  53.5385597  78.0206691  87.2196327  54.4769461  78.7246737  86.2627164
  59.6793645  81.9154247  90.8915025  59.2255972  81.0745157  90.9480215
  59.0487612  82.5515646  91.2289805  58.6226564  72.8446234  92.1215692
  57.8849321  72.3323620  92.4525935  58.8753338  72.4046615  91.3098969
  58.1226584  83.7530744  91.8264843  58.4149558  84.3135801  91.1077209
  58.6325205  84.0459305  92.5818002  58.7238192  65.6222486  92.7157461
  59.0297069  64.7619849  92.4283377  59.4490797  66.2140106  92.5156455
  45.0162548  76.0253172  91.1039059  44.8186948  75.4322533  90.3790126
  44.4609212  75.7205382  91.8214998  52.9959271  75.9176279  93.2233653
  53.0507881  74.9650115  93.1476129  52.1850474  76.0735718  93.7074951
  54.1450465  79.8456402  84.4611936  53.7069895  79.1292261  84.0017573
  54.8860906  80.0732516  83.8997027  50.9351631  74.5353338  90.9824031
  50.1219497  74.8347509  91.3889224  51.4310626  74.1409027  91.6998514
  53.0860209  84.5311095  92.9158296  53.0436388  84.7571942  91.9866828
  54.0022908  84.2974470  93.0644097  56.5325843  74.9995163  99.8138925
  56.8875231  75.2266636 100.6733391  57.1797974  75.3313540  99.1916181
  62.2623580  78.1213599  90.5188254  62.1241479  78.3115195  89.5909444
  61.9059799  78.8832982  90.9756305  50.4265706  72.1071694  96.5985266
  51.0665085  71.9660453  95.9008230  49.5943237  71.8206207  96.2223868
  62.2892960  80.1890126  95.5299526  62.7229466  80.0965415  96.3782580
  63.0024540  80.1647626  94.8919542  51.2026010  81.4074124  92.7120259
  51.9966609  80.9124444  92.5102834  50.4917702  80.8791987  92.3487964
  56.0220855  83.7892220  97.0632626  56.0757877  84.3583156  97.8310342
  55.1535636  83.9594105  96.6986664  47.5108774  75.5517206  88.7880012
  46.5806362  75.4901662  89.0049974  47.6066246  75.0293159  87.9916653
  47.4294323  72.0772019  91.3758253  47.6901140  72.9917352  91.2667414
  48.2511495  71.6096461  91.5254866  48.9019248  73.4909776  98.5457078
  49.5742301  73.2827138  97.8969727  48.0749034  73.2931862  98.1062310
  63.1508509  80.2313826  98.0632411  63.3444399  81.1359637  98.3091686
  63.0509127  79.7721245  98.8970996  54.8044820  70.1171717 100.5622739
  54.1572735  70.8161667 100.4687215  55.5745835  70.5507861 100.9298987
  54.9808954  77.9552482  98.6219558  55.9101014  78.1063641  98.4488526
  54.5599984  78.0436503  97.7668205  53.7797286  81.9803146  96.3918096
  53.6408372  81.6121931  97.2644034  52.9911882  82.4950786  96.2202054
  54.3745438  87.0812243  87.7343632  54.5497194  86.6100286  88.5489255
  53.6878226  87.7078009  87.9624893  55.3302501  81.3584749  93.7806934
  54.9952334  81.3185519  94.6764584  54.8306447  80.6929465  93.3077344
  49.3046745  76.7652379  99.3059515  49.1666543  76.0332618  99.9071054
  50.2151669  76.6761279  99.0243703  58.2661693  78.7040783  84.0543993
  57.6490864  77.9787611  83.9577046  57.7978181  79.4650144  83.7111068
  51.9329046  76.4772338  98.7943195  52.6428664  75.8365531  98.7529813
  51.8898354  76.7285233  99.7169375  50.6457980  73.4637556 100.6138834
  50.1095337  73.0128295 101.2660430  50.0574688  73.5983465  99.8709298
  48.9406523  90.2301605  94.5083493  49.1803122  90.8620130  95.1862511
  48.0975720  89.8789646  94.7948852  50.0560239  72.9226208  83.1765298
  49.1789705  72.8015008  82.8127544  50.5317992  72.1312286  82.9244186
  59.9233232  81.3779276  99.9463753  59.0360011  81.0405197 100.0690152
  60.4931783  80.6462307 100.1832519  41.5762379  77.7103367  93.2706805
  42.2633419  77.3965097  92.6827820  41.4210508  78.6144732  92.9974056
  46.3797101  72.5993564  97.6991828  46.2955290  71.9919233  96.9642238
  45.5579807  73.0902582  97.7001325  53.4534385  86.0380728  96.9124997
  53.3804557  86.8435699  97.4244301  53.0111778  86.2372694  96.0873018
  53.2424165  85.2752498  90.4227818  52.4591687  85.8174178  90.5166043
  53.9416910  85.7926478  90.8222059  56.5520815  71.0847127  93.0662024
  57.0489514  70.3317090  92.7463094  55.7807796  71.1211444  92.5005233
  64.4050572  76.7887493  94.7080315  64.3940449  77.6712208  94.3374248
  63.5367952  76.4359044  94.5134852  55.9133069  85.9367562  99.0683155
  56.6261041  86.5715027  98.9959057  55.4223097  86.0331428  98.2523157
  57.6350596  79.8418815  90.6400447  56.7006874  79.9620277  90.4705151
  57.8127264  78.9391281  90.3760457  53.1355784  73.2264510  92.7933708
  52.7653571  72.6735551  93.4814614  53.6314876  72.6222644  92.2408708
  61.0223147  75.6836134  91.1750481  61.4883599  76.5164126  91.1010784
  61.4730647  75.2181115  91.8795740  50.9644982  83.6862005  99.8888726
  51.6654442  84.3198488 100.0418120  50.4940097  84.0276737  99.1284365
  59.0899378  82.0279955  88.1736633  59.3659222  81.9136550  89.0830507
  58.2203877  81.6297440  88.1348806  58.9939810  68.0516721  95.2141382
  58.0802890  68.2820948  95.3823589  59.4232911  68.1355165  96.0655415
  58.7646268  76.2406613  97.7141276  58.1117718  76.4882520  97.0593729
  59.1426648  75.4270751  97.3803754  55.7253442  86.2766306  91.8169447
  55.9075837  85.4587962  92.2797199  56.5486428  86.4933998  91.3794337
  56.0595608  85.2034491  89.0784495  56.5883374  84.6926946  88.4654657
  56.3223827  84.8877021  89.9430028  54.8133841  76.9826424 104.2007314
  54.1374478  76.8820553 104.8709689  55.6361475  76.8265638 104.6643311
  46.5612700  83.2198360  96.8219829  47.1466137  82.4742048  96.9547733
  46.3637539  83.5302317  97.7056493  49.4151356  86.2549608  91.8382271
  48.7461731  86.7395735  91.3546311  49.2764225  86.5018828  92.7525650
  41.1530355  75.7903961  95.5424272  41.1914455  75.2567551  96.3361390
  40.6470648  75.2639166  94.9235249  53.5556624  88.2893351  98.4364930
  54.1074932  88.4524973  99.2014015  53.8962818  88.8797789  97.7644954
  48.5321117  70.6368501  99.0386814  48.5962444  71.4983332  98.6264212
  48.4688238  70.0242503  98.3059173  48.0073390  72.7091634 102.6859848
  48.6345429  72.3268711 103.2997373  47.1501309  72.4905836 103.0515541
  44.7838933  74.5168063  88.6178203  45.0792374  73.6078741  88.5645257
  43.8826968  74.4955802  88.2959206  56.6925011  86.2375327  95.4228612
  56.5676151  85.4365067  94.9139557  57.3504103  86.7321520  94.9342582
  48.3133180  72.5924059  94.6005752  47.5919765  73.2060027  94.4613225
  49.1026435  73.1281824  94.5222398  58.7559920  84.0384347  97.0508162
  57.8090255  83.9189698  96.9786488  59.1042693  83.1506845  97.1334423
  51.1159493  69.9278486 100.8746404  51.6393895  70.1740782 101.6372713
  50.8971826  70.7598521 100.4549541  46.5126774  72.1982160  88.7417528
  46.1839480  71.3179539  88.5592634  46.8666145  72.1429829  89.6293918
  55.7606353  83.8337063  93.2512514  55.6131316  82.9053771  93.4320084
  56.5859847  83.8557154  92.7669589  49.6268597  72.4855130  89.1093006
  49.9664670  73.0141052  88.3871614  50.0740718  72.8235536  89.8851573
  59.3640475  84.6565622  94.3377387  60.2887022  84.4508483  94.2001838
  59.1955778  84.4082023  95.2466728  52.3212038  70.8692181  98.5596074
  51.9808859  70.0699994  98.9616754  51.6151044  71.1693892  97.9872907
  52.9728510  67.9541493  97.0123397  53.7954579  67.4801972  96.8902288
  53.2166574  68.7331977  97.5122084  51.6136745  70.9829752  87.3086299
  52.3345107  71.3611005  86.8050016  50.9902049  71.7018629  87.4121277
  55.7567867  71.6874901  88.2444631  55.9731482  72.5699539  87.9433459
  55.2761935  71.2961114  87.5150273  50.4967089  74.6460614  94.8215376
  50.3511669  74.9600917  95.7139657  50.0192292  75.2645514  94.2686274
  52.3563472  71.6363162  94.8696265  52.3425040  70.7404255  94.5328563
  53.0735900  71.6433826  95.5034551  54.2089602  72.0700502  96.9149393
  53.9507380  72.9917573  96.9133723  53.6774643  71.6730937  97.6049857
  59.1535791  85.1751289  89.6939478  59.3272669  84.6097712  88.9413331
  59.6464682  85.9752184  89.5118968  44.9712751  77.1865958  97.7603037
  44.4266219  77.9625766  97.8923311  45.8492101  77.5336763  97.6022158
  51.7600368  70.5177542  90.1383836  51.8816279  69.5894189  90.3374723
  51.4702410  70.5316228  89.2262151  54.6291558  68.2032453  93.2750555
  54.6513255  68.2671786  92.3202535  55.0459617  67.3636961  93.4691062
  65.0075182  77.9387712  91.3129778  65.4506328  77.1895038  90.9148901
  64.1301693  77.9297849  90.9303510  60.1410964  84.4918054  86.7936376
  60.8361868  85.1124746  87.0123691  60.4834114  83.6413405  87.0688754
  45.7578773  76.3135855 100.6533194  45.0160509  76.4618490 101.2397824
  45.4371517  76.5744120  99.7899943  62.0402387  81.9417759  88.3223707
  62.5653711  82.2805032  87.5973027  61.9524739  81.0064775  88.1386842
  53.7022435  85.8551833 100.4513584  54.0109562  85.6100980 101.3236283
  54.4997917  86.0598471  99.9632454  53.7243047  88.0089743  92.6818960
  53.2848038  87.5166121  93.3751817  54.4751164  87.4662710  92.4411036
  46.2035386  84.2001283  92.6843588  47.0293406  83.9005055  92.3042232
  45.8529438  83.4308906  93.1333377  51.1716920  83.5527752  94.7541262
  50.5496929  82.8898457  94.4543490  51.8421787  83.5788884  94.0714910
  44.4043992  82.1187610  93.6432522  43.5675900  81.6909784  93.4616523
  44.3767637  82.3120053  94.5803313  51.2441447  72.0309540 104.3473768
  51.2929603  72.9071663 103.9651538  51.7863961  71.4886933 103.7745411
  61.8494168  79.4243129 100.9407634  61.8992173  79.2593137 101.8823157
  61.7408091  78.5570388 100.5505515  50.7330427  82.1031675  88.2299723
  50.8818547  82.7867139  87.5766395  51.5396870  82.0836765  88.7449178
  59.1397930  75.4074057 102.2566940  60.0407793  75.2680522 101.9650938
  59.2145905  75.5728512 103.1965118  53.4740736  72.7840912 101.1020127
  52.6044045  73.0774478 100.8302715  53.7100216  73.3681357 101.8227390
  64.5508047  79.4092951  93.7052226  65.3854938  79.8482755  93.8689786
  64.6867176  78.9331604  92.8860471  61.5999553  76.9672685  99.6529713
  62.0753675  77.1600332  98.8448565  60.6765118  77.0231871  99.4073097
  48.4883060  78.1296853  89.2360792  48.2429101  77.2259183  89.4341002
  48.6578974  78.1314003  88.2940270  56.1779769  69.0020529  98.6185547
  56.6961713  69.7381556  98.2932036  55.8234902  69.3084522  99.4532306
  47.7578707  73.8625210  86.7346953  47.0647952  73.9369565  86.0786989
  47.5130459  73.0985554  87.2568470  56.4292364  65.4220812  94.1386444
  56.7094117  64.7544001  94.7646870  57.2142971  65.6149907  93.6261108
  54.2325832  84.5979805  85.7011470  53.6599799  85.2169993  85.2481942
  54.8058626  85.1479167  86.2351392  60.3001222  73.8438446  97.8858019
  61.2518645  73.9436543  97.9070243  60.1304672  73.0516714  98.3956103
  58.3215601  70.9294029  98.0717420  57.7265534  71.2099042  97.3763908
  58.0365298  71.4187930  98.8434161  57.4523092  84.8816956  86.8320052
  58.3853765  84.8162517  87.0352928  57.3646305  85.7173222  86.3734585
  60.0811109  84.1982826  83.7924000  60.0024740  83.8642690  84.6859758
  60.9020775  84.6904594  83.7915472  62.7789300  77.0644565  97.0000319
  62.7465620  76.1260566  97.1860002  63.3889923  77.1428602  96.2666143
  54.6172631  75.9340618  83.0427523  55.5631735  75.8046826  83.1115941
  54.2386876  75.1955280  83.5196951  62.9283788  73.8555609  97.0458602
  62.4122837  73.0714065  96.8588531  63.8123737  73.5274325  97.2105121
  60.5894515  67.5996624  93.0054414  60.3919336  67.2911712  93.8897746
  61.1994221  68.3258263  93.1352344  68.5965850  78.1260572  96.1406355
  69.3269238  77.8645860  96.7014059  67.9872795  77.3889294  96.1808423
  66.6781147  76.2668435  96.7380807  65.9514310  76.1324400  96.1297298
  66.2628434  76.5745263  97.5437525  54.5011323  79.9858364 104.5028180
  55.4214333  80.1636963 104.6968226  54.4660906  79.0414410 104.3507879
  52.8015548  73.8590595  82.9782408  51.8947003  73.5623707  83.0545121
  53.0791529  73.5620413  82.1116694  43.7193488  75.1796958  93.4281454
  43.3996272  74.3262266  93.1355828  43.1726916  75.3945536  94.1839422
  47.4973396  77.8959399  97.1450961  47.7159405  78.8276507  97.1638995
  47.9099169  77.5367373  97.9305765  54.4177613  68.4027484  89.1326649
  53.6078342  68.0574569  89.5081895  55.1062030  68.0935028  89.7214261
  56.3468162  67.4805531  90.7550946  56.8999200  67.9000985  91.4140969
  56.5838248  66.5541279  90.7973902  52.3701261  73.4692605 106.5353710
  52.2697988  74.4186962 106.4665801  52.1522803  73.1410844 105.6629780
  51.5714332  70.7177530  83.1194387  52.4333496  71.0432428  83.3790204
  51.7564677  69.9309026  82.6067453  43.5881748  78.7999870  95.3974576
  42.8945220  78.3853822  94.8844530  44.3354739  78.8420406  94.8007995
  59.7246969  69.5906056  90.2629610  59.1445638  70.2490860  89.8807662
  59.4582902  68.7683401  89.8517027  58.1750535  68.9911114  92.4650930
  58.6750314  69.1027649  91.6565249  58.8186143  68.6872167  93.1051739
  52.2332531  76.8989744 105.3518771  51.7499613  77.6990104 105.5582660
  52.3193470  76.9097689 104.3986215  45.5018491  78.7318123  93.2740591
  45.4789179  78.8305811  92.3222474  45.8119127  79.5783274  93.5957757
  48.1605869  80.7894278  97.3887205  49.1149122  80.7578221  97.3217137
  47.9618392  80.3284902  98.2037431  48.7505251  79.3595394  99.9558003
  49.5698140  79.8539473  99.9792840  49.0242058  78.4427363  99.9275570
  58.5071847  71.7506147  89.3185958  57.6197702  72.0355797  89.1006153
  58.9225836  71.5899910  88.4713235  61.8586383  71.7752668  93.0340297
  62.6346773  72.2649120  93.3064914  61.1334517  72.2010722  93.4912167
  64.2958942  72.4880287  94.0914238  64.8903432  72.2476023  93.3807546
  64.3685525  71.7687417  94.7187774  46.5156097  86.3313898  94.4057403
  46.3810565  85.5714299  93.8395401  46.0988160  87.0554798  93.9386192
  57.6515060  81.5150821  83.4133978  58.3550910  81.7200824  84.0291634
  56.9277709  82.0827583  83.6783062  58.4812871  77.2660683  89.5336248
  58.4248072  77.7229234  88.6943881  59.0341213  76.5051367  89.3559091
  62.2917677  73.0550414  90.3586368  62.0354611  72.6547050  91.1894576
  61.6670545  73.7694208  90.2336507  66.6030014  75.7946488  92.8657659
  66.0429572  75.8639677  93.6389221  65.9973518  75.6187472  92.1457156
  49.6725223  87.2283215  94.6175846  49.5557607  88.1728647  94.5154536
  48.8517669  86.9256776  95.0061645  59.5601758  81.9533351  85.4632438
  60.3947362  81.5214549  85.2809913  59.3986101  81.7815364  86.3909333
  59.2147650  78.4565464  86.8288778  59.1596454  78.2909735  85.8877222
  58.5893705  79.1641497  86.9850967  44.0040165  73.6933528 100.6550200
  44.6499028  73.1832482 101.1437425  43.7957316  74.4302210 101.2293625
  52.5243775  67.9573573  86.4074096  52.5122445  68.9015413  86.5642367
  53.4167197  67.7743718  86.1133557  50.6979737  87.8811477  97.8331774
  51.6006984  87.9135087  98.1498269  50.4717107  86.9511928  97.8478110
  52.4533339  86.6342463  94.4941853  51.5028970  86.6344325  94.3806225
  52.7565825  85.8875198  93.9777887  56.3395895  64.5516350  90.6620033
  55.5728291  63.9974836  90.8076715  56.7506600  64.6238218  91.5234184
  48.3437656  70.8401145 104.7525214  49.2069117  70.4837950 104.9628539
  47.7703067  70.5015040 105.4400618  60.8562555  94.2765906  91.4846031
  60.2927420  94.1855843  90.7162318  60.7414950  93.4565811  91.9648523
  66.4362114  97.9436874  86.7960496  65.7850093  98.5290954  86.4094509
  67.2306476  98.4743069  86.8555533  60.3617741  95.0326011  87.1947630
  61.1348617  94.4854998  87.0560506  60.7143140  95.8970260  87.4062091
  62.6984018  91.1918677  84.8266080  62.9509539  90.6700198  84.0649543
  61.7608578  91.0284823  84.9292763  67.7427301  90.1954456  92.6340823
  68.5290391  89.7773879  92.2831240  68.0066006  91.1000548  92.8022471
  67.9137379  95.6327306  87.3329480  67.2783212  95.7061932  88.0450385
  67.5834785  96.2220905  86.6548559  62.4180307  93.0946783  87.0290455
  62.3016565  92.4191686  87.6971539  62.5282567  92.6079157  86.2122608
  64.7611848  92.5556930  90.7337144  64.3970055  92.0287551  91.4450066
  65.6178964  92.1655399  90.5603629  64.4017335  87.5846830  85.7298493
  64.5691737  88.4527066  86.0968964  64.2114504  87.7474112  84.8059782
  60.6105150  92.4977606  93.4301027  59.6855646  92.3653820  93.6378719
  60.8589563  93.2771825  93.9270970  64.3806556  90.0404487  86.7145159
  64.2606181  90.4861538  87.5530640  63.6859144  90.3889805  86.1558698
  57.9713961  92.1410879  94.2644816  58.1006342  92.3945358  95.1784228
  57.2911412  92.7338587  93.9449471  70.0791622  90.5125961  87.5425493
  70.9909478  90.7453347  87.3673191  69.5701269  91.0963005  86.9800572
  67.4227597  86.6883997  95.7915354  66.5612076  86.9865250  96.0832092
  67.4490032  86.9054395  94.8596387  64.2389166  95.2326187  92.1989160
  64.7027512  95.5113890  91.4093782  63.9745964  94.3309632  92.0162251
  63.1758052  91.3549340  89.0078725  63.8782096  91.8070383  89.4752651
  62.8438681  90.7133158  89.6358618  56.9183386  89.6132892  94.3095859
  56.1282440  89.8690421  93.8335969  57.4094634  90.4281230  94.4147899
  58.8698132  89.9777471  91.2679335  58.0729295  90.0896166  91.7862831
  58.6423724  90.3164124  90.4020226  55.2021089  89.8663383  96.7410849
  55.4529128  90.7510393  97.0068425  55.7380638  89.6867984  95.9685941
  64.4151817  98.1690282  89.0840830  64.2797492  99.0141818  89.5125678
  64.9561630  98.3709560  88.3206764  57.8681214  95.6865720  89.6568755
  58.3805735  96.4808970  89.8074320  58.5203927  94.9892011  89.5902357
  59.6776099  98.8031476  91.7391509  59.8542727  99.7249441  91.5512492
  60.4732933  98.4889896  92.1685888  67.7644281  81.6920844  97.6139724
  67.4208550  82.5822486  97.5378834  68.1323243  81.5022502  96.7509309
  55.8330131  94.0154374  90.4328326  56.6705353  94.4251383  90.2162034
  56.0108399  93.0753817  90.4028520  67.7294563  91.6829455  86.1212159
  67.2141187  92.4534060  86.3600546  67.4571872  91.0094591  86.7445220
  65.3141674  86.5279156  91.1797397  64.4583271  86.1386006  91.0003036
  65.7268626  86.6071117  90.3197183  66.8440821  84.0625499  95.5788957
  66.3405617  84.0255634  94.7656762  67.1371428  84.9718242  95.6385614
  63.0883707  84.1464229  94.5855139  63.9536704  83.9507038  94.2261028
  63.1561216  83.9174581  95.5124496  72.7028837  94.4361810  88.0565332
  71.9258280  94.0972969  87.6120494  73.3820318  94.4414433  87.3820297
  67.5180866  89.5556547  87.9471940  67.2131002  89.8702696  88.7982083
  68.4711309  89.6337967  87.9899273  65.9627298  95.7146771  89.5964894
  65.4348660  94.9799530  89.2838132  65.4614801  96.4921447  89.3504862
  60.6946026  86.3766437  91.9571506  61.2689778  86.1541618  91.2244699
  61.2817008  86.4455131  92.7100107  61.0215613  88.4070898  85.9767391
  60.1852925  88.7445584  86.2976666  60.8820383  88.2719878  85.0394528
  62.9968694  83.2507686  90.6846575  62.3433106  82.9356703  90.0603190
  62.9549168  82.6283426  91.4106398  64.1079899  93.5326981  82.5999867
  63.2006960  93.3016234  82.7991016  64.6050930  92.7364600  82.7873849
  67.0147977 102.2424488  85.5196553  66.3409676 102.5456185  86.1281511
  67.4013799 103.0453568  85.1702010  66.2306434  89.7389619  95.0094223
  65.3128995  89.9604566  94.8515911  66.6466578  89.8135930  94.1505930
  67.0141482  91.1381035  90.1396903  67.7613301  91.6502432  89.8304025
  67.2833071  90.8165088  91.0001296  65.2868132  93.6339576  87.1223857
  64.3779351  93.3498608  87.2196327  65.3163216  94.0538654  86.2627164
  69.4620319  88.1738151  92.1215692  68.7243076  87.6615537  92.4525935
  69.7147092  87.7338533  91.3098969  69.5631946  80.9514403  92.7157461
  69.8690823  80.0911767  92.4283377  70.2884551  81.5432023  92.5156455
  55.8556302  91.3545090  91.1039059  55.6580702  90.7614450  90.3790126
  55.3002966  91.0497300  91.8214998  63.8353026  91.2468196  93.2233653
  63.8901636  90.2942033  93.1476129  63.0244228  91.4027635  93.7074951
  64.9844220  95.1748319  84.4611936  64.5463650  94.4584178  84.0017573
  65.7254661  95.4024434  83.8997027  61.7745386  89.8645256  90.9824031
  60.9613251  90.1639427  91.3889224  62.2704380  89.4700945  91.6998514
  61.2659461  87.4363612  96.5985266  61.9058840  87.2952371  95.9008230
  60.4336991  87.1498125  96.2223868  62.0419765  96.7366042  92.7120259
  62.8360363  96.2416362  92.5102834  61.3311457  96.2083905  92.3487964
  58.3502528  90.8809124  88.7880012  57.4200116  90.8193579  89.0049974
  58.4460000  90.3585076  87.9916653  58.2688077  87.4063937  91.3758253
  58.5294894  88.3209270  91.2667414  59.0905249  86.9388379  91.5254866
  69.1055447  94.0332701  84.0543993  68.4884618  93.3079529  83.9577046
  68.6371936  94.7942061  83.7111068  60.8953993  88.2518125  83.1765298
  60.0183460  88.1306926  82.8127544  61.3711746  87.4604204  82.9244186
  52.4156133  93.0395285  93.2706805  53.1027173  92.7257015  92.6827820
  52.2604262  93.9436650  92.9974056  57.2190856  87.9285482  97.6991828
  57.1349044  87.3211151  96.9642238  56.3973562  88.4194500  97.7001325
  67.3914569  86.4139045  93.0662024  67.8883269  85.6609007  92.7463094
  66.6201551  86.4503362  92.5005233  68.4744350  95.1710732  90.6400447
  67.5400629  95.2912195  90.4705151  68.6521019  94.2683199  90.3760457
  63.9749538  88.5556428  92.7933708  63.6047326  88.0027468  93.4814614
  64.4708631  87.9514562  92.2408708  71.8616901  91.0128052  91.1750481
  72.3277354  91.8456043  91.1010784  72.3124402  90.5473033  91.8795740
  69.9293133  97.3571873  88.1736633  70.2052976  97.2428467  89.0830507
  69.0597631  96.9589358  88.1348806  69.8333564  83.3808639  95.2141382
  68.9196644  83.6112865  95.3823589  70.2626666  83.4647083  96.0655415
  51.9924110  91.1195878  95.5424272  52.0308209  90.5859469  96.3361390
  51.4864402  90.5931084  94.9235249  59.3714872  85.9660419  99.0386814
  59.4356198  86.8275250  98.6264212  59.3081992  85.3534421  98.3059173
  55.6232687  89.8459981  88.6178203  55.9186128  88.9370659  88.5645257
  54.7220723  89.8247720  88.2959206  59.1526934  87.9215977  94.6005752
  58.4313520  88.5351945  94.4613225  59.9420190  88.4573742  94.5222398
  57.3520529  87.5274078  88.7417528  57.0233235  86.6471457  88.5592634
  57.7059899  87.4721747  89.6293918  60.4662352  87.8147048  89.1093006
  60.8058424  88.3432969  88.3871614  60.9134472  88.1527454  89.8851573
  63.8122264  83.2833411  97.0123397  64.6348334  82.8093889  96.8902288
  64.0560328  84.0623895  97.5122084  62.4530499  86.3121670  87.3086299
  63.1738861  86.6902922  86.8050016  61.8295803  87.0310546  87.4121277
  66.5961622  87.0166819  88.2444631  66.8125236  87.8991456  87.9433459
  66.1155689  86.6253032  87.5150273  61.3360843  89.9752532  94.8215376
  61.1905424  90.2892835  95.7139657  60.8586047  90.5937432  94.2686274
  63.1957226  86.9655080  94.8696265  63.1818795  86.0696173  94.5328563
  63.9129654  86.9725743  95.5034551  62.5994122  85.8469460  90.1383836
  62.7210033  84.9186106  90.3374723  62.3096164  85.8608146  89.2262151
  65.4685312  83.5324370  93.2750555  65.4907009  83.5963704  92.3202535
  65.8853371  82.6928879  93.4691062  57.0429141  99.5293201  92.6843588
  57.8687161  99.2296973  92.3042232  56.6923193  98.7600824  93.1333377
  55.2437746  97.4479528  93.6432522  54.4069654  97.0201702  93.4616523
  55.2161391  97.6411971  94.5803313  61.5724181  97.4323593  88.2299723
  61.7212301  98.1159057  87.5766395  62.3790624  97.4128683  88.7449178
  59.3276814  93.4588770  89.2360792  59.0822856  92.5551100  89.4341002
  59.4972729  93.4605921  88.2940270  58.5972462  89.1917128  86.7346953
  57.9041706  89.2661483  86.0786989  58.3524213  88.4277472  87.2568470
  67.2686118  80.7512729  94.1386444  67.5487872  80.0835918  94.7646870
  68.0536725  80.9441825  93.6261108  65.0719587  99.9271723  85.7011470
  64.4993554 100.5461910  85.2481942  65.6452380 100.4771085  86.2351392
  68.2916846 100.2108873  86.8320052  69.2247520 100.1454435  87.0352928
  68.2040059 101.0465140  86.3734585  70.9204863  99.5274744  83.7924000
  70.8418495  99.1934607  84.6859758  71.7414530 100.0196512  83.7915472
  65.4566385  91.2632536  83.0427523  66.4025490  91.1338744  83.1115941
  65.0780630  90.5247198  83.5196951  71.4288270  82.9288542  93.0054414
  71.2313091  82.6203630  93.8897746  72.0387975  83.6550181  93.1352344
  63.6409302  89.1882512  82.9782408  62.7340758  88.8915625  83.0545121
  63.9185283  88.8912330  82.1116694  54.5587243  90.5088876  93.4281454
  54.2390027  89.6554184  93.1355828  54.0120671  90.7237454  94.1839422
  65.2571368  83.7319402  89.1326649  64.4472096  83.3866487  89.5081895
  65.9455785  83.4226946  89.7214261  67.1861916  82.8097449  90.7550946
  67.7392955  83.2292902  91.4140969  67.4232003  81.8833197  90.7973902
  62.4108087  86.0469448  83.1194387  63.2727251  86.3724346  83.3790204
  62.5958431  85.2600943  82.6067453  54.4275503  94.1291787  95.3974576
  53.7338974  93.7145740  94.8844530  55.1748494  94.1712324  94.8007995
  70.5640723  84.9197974  90.2629610  69.9839392  85.5782778  89.8807662
  70.2976656  84.0975319  89.8517027  69.0144290  84.3203032  92.4650930
  69.5144068  84.4319566  91.6565249  69.6579898  84.0164085  93.1051739
  56.3412245  94.0610041  93.2740591  56.3182933  94.1597728  92.3222474
  56.6512882  94.9075192  93.5957757  69.3465601  87.0798064  89.3185958
  68.4591456  87.3647715  89.1006153  69.7619590  86.9191828  88.4713235
  72.6980137  87.1044585  93.0340297  73.4740528  87.5941038  93.3064914
  71.9728272  87.5302640  93.4912167  68.4908815  96.8442739  83.4133978
  69.1944665  97.0492742  84.0291634  67.7671464  97.4119501  83.6783062
  69.3206625  92.5952600  89.5336248  69.2641826  93.0521152  88.6943881
  69.8734968  91.8343285  89.3559091  73.1311431  88.3842332  90.3586368
  72.8748365  87.9838968  91.1894576  72.5064299  89.0986126  90.2336507
  70.3995512  97.2825268  85.4632438  71.2341116  96.8506467  85.2809913
  70.2379855  97.1107282  86.3909333  70.0541404  93.7857382  86.8288778
  69.9990208  93.6201653  85.8877222  69.4287460  94.4933414  86.9850967
  63.3637530  83.2865491  86.4074096  63.3516200  84.2307330  86.5642367
  64.2560952  83.1035636  86.1133557  67.1789649  79.8808267  90.6620033
  66.4122045  79.3266754  90.8076715  67.5900354  79.9530136  91.5234184
  71.7347748 103.5810043  83.1765298  70.8577214 103.4598844  82.8127544
  72.2105501 102.7896121  82.9244186  74.4803057 104.5174430  82.9782408
  73.5734512 104.2207543  83.0545121  74.7579038 104.2204248  82.1116694
  73.2501841 101.3761365  83.1194387  74.1121005 101.7016264  83.3790204
  73.4352185 100.5892861  82.6067453  17.4987538   9.9660358  78.2091337
  16.9352403   9.8750295  77.4407625  17.3839933   9.1460263  78.6893830
  23.0787097  13.6331326  73.5205802  22.4275077  14.2185406  73.1339816
  23.8731460  14.1637521  73.5800840  17.0042724  10.7220463  73.9192937
  17.7773600  10.1749450  73.7805812  17.3568123  11.5864712  74.1307398
  19.3409002   6.8813129  71.5511386  19.5934522   6.3594650  70.7894849
  18.4033561   6.7179274  71.6538070  24.3852285   5.8848907  79.3586130
  25.1715374   5.4668331  79.0076547  24.6490989   6.7895000  79.5267778
  24.5562362  11.3221758  74.0574787  23.9208195  11.3956384  74.7695691
  24.2259768  11.9115357  73.3793866  29.7860712   5.8224141  80.2619108
  30.5185884   5.2523357  80.4956938  29.0300067   5.4345741  80.7025614
  19.0605291   8.7841235  73.7535761  18.9441549   8.1086138  74.4216846
  19.1707550   8.2973609  72.9367914  21.4036831   8.2451382  77.4582451
  21.0395039   7.7182003  78.1695372  22.2603947   7.8549851  77.2848936
  21.0442318   3.2741282  72.4543799  21.2116721   4.1421518  72.8214270
  20.8539487   3.4368564  71.5305088  21.0231539   5.7298939  73.4390466
  20.9031165   6.1755990  74.2775946  20.3284128   6.0784257  72.8804004
  18.7838431  18.5002581  77.0880597  18.7062461  19.4510406  77.1669078
  18.1800075  18.1548454  77.7455524  26.7216605   6.2020412  74.2670800
  27.6334462   6.4347799  74.0918498  26.2126253   6.7857457  73.7045879
  25.3286188  11.1846231  81.6584382  24.6995050  11.3491945  80.9560449
  24.9411850  11.5987840  82.4295346  29.2075420  12.1200669  79.0128745
  28.5226458  12.4999570  78.4625779  29.2919269  12.7295995  79.7460693
  20.8814150  10.9220639  78.9234467  21.3452495  11.2008342  78.1339089
  20.6170948  10.0204084  78.7407557  19.8183036   7.0443791  75.7324032
  20.5207079   7.4964835  76.1997958  19.4863664   6.4027610  76.3603925
  27.5772179  12.6432583  83.7846446  28.3989623  12.2412771  83.5029128
  27.5734582  12.5400817  84.7362562  35.6678172   8.9871332  80.1331418
  34.9141881   8.4178730  79.9775422  35.8025713   8.9533996  81.0802052
  21.0576800  13.8584734  75.8086137  20.9222475  14.7036270  76.2370985
  21.5986613  14.0604012  75.0452071  14.5106198  11.3760172  76.3814062
  15.0230718  12.1703422  76.5319627  15.1628911  10.6786463  76.3147664
  16.3201082  14.4925928  78.4636815  16.4967711  15.4143893  78.2757799
  17.1157916  14.1784348  78.8931195  24.3719547   7.3723907  72.8457466
  23.8566170   8.1428512  73.0845853  24.0996855   6.6989043  73.4690527
  29.3453821  10.1256262  74.7810639  28.5683264   9.7867421  74.3365801
  30.0245302  10.1308885  74.1065604  24.1605850   5.2450999  74.6717247
  23.8555985   5.5597148  75.5227390  25.1136292   5.3232419  74.7144580
  22.6052282  11.4041222  76.3210201  22.0773643  10.6693982  76.0083438
  22.1039784  12.1815899  76.0750169  27.5845128   9.5990243  81.4377247
  26.9268802  10.2889504  81.5257376  28.3885527   9.9886675  81.7811233
  26.3950586   7.9534616  79.4881189  26.9082468   8.5864607  79.9902898
  27.0451810   7.3535811  79.1224549  20.7504882   9.2221433  69.3245174
  19.8431944   8.9910686  69.5236323  21.2475914   8.4259052  69.5119155
  23.6572961  17.9318940  72.2441860  22.9834659  18.2350637  72.8526818
  24.0438783  18.7348020  71.8947317  23.6566465   6.8275487  76.8642210
  24.4038284   7.3396884  76.5549332  23.9258055   6.5059540  77.7246603
  21.9293115   9.3234028  73.8469164  21.0204335   9.0393060  73.9441634
  21.9588199   9.7433106  72.9872471  27.1612383  12.9340617  77.6160331
  26.7074710  12.0931527  77.6725522  26.5306349  13.5702015  77.9535112
  26.1045302   3.8632603  78.8460999  25.3668059   3.3509989  79.1771241
  26.3572076   3.4232985  78.0344276  25.6045322  14.7717114  78.5510150
  25.8968296  15.3322171  77.8322515  26.1143942  15.0645675  79.3063309
  21.6269203  10.8642771  71.1857242  21.1888633  10.1478630  70.7262880
  22.3679644  11.0918886  70.6242334  20.5678947  15.5497465  79.6403603
  20.5255126  15.7758311  78.7112135  21.4841646  15.3160839  79.7889404
  29.7442318   9.1399968  77.2433561  29.6060216   9.3301564  76.3154750
  29.3878537   9.9019351  77.7001612  29.7711697  11.2076495  82.2544832
  30.2048204  11.1151784  83.1027887  30.4843278  11.1833996  81.6164848
  18.6844748  12.4260494  79.4365565  19.4785346  11.9310814  79.2348140
  17.9736440  11.8978357  79.0733271  23.5039592  14.8078589  83.7877933
  23.5576615  15.3769526  84.5555649  22.6354374  14.9780474  83.4231970
  21.8564176  18.0998612  74.4588939  22.0315932  17.6286655  75.2734562
  21.1696964  18.7264378  74.6870200  22.8121239  12.3771119  80.5052240
  22.4771072  12.3371888  81.4009890  22.3125185  11.7115834  80.0322651
  25.7480431   9.7227153  70.7789300  25.1309601   8.9973981  70.6822353
  25.2796919  10.4836513  70.4356374  16.4225261  21.2487975  81.2328799
  16.6621859  21.8806499  81.9107818  15.5794458  20.8976015  81.5194159
  20.9353123  17.0567097  83.6370303  20.8623294  17.8622069  84.1489608
  20.4930516  17.2559063  82.8118325  20.7242903  16.2938868  77.1473125
  19.9410425  16.8360548  77.2411349  21.4235648  16.8112847  77.5467366
  31.8869310   7.8073863  81.4325622  31.8759186   8.6898578  81.0619555
  31.0186690   7.4545413  81.2380159  23.3951807  16.9553932  85.7928462
  24.1079779  17.5901396  85.7204363  22.9041835  17.0517798  84.9768464
  25.1169333  10.8605184  77.3645754  24.1825612  10.9806647  77.1950458
  25.2946002   9.9577651  77.1005763  28.5041885   6.7022503  77.8995788
  28.9702337   7.5350495  77.8256090  28.9549385   6.2367485  78.6041046
  26.5718116  13.0466325  74.8981940  26.8477960  12.9322919  75.8075814
  25.7022615  12.6483810  74.8594113  23.2072180  17.2952676  78.5414753
  23.3894574  16.4774332  79.0042506  24.0305166  17.5120368  78.1039643
  23.5414345  16.2220861  75.8029802  24.0702112  15.7113315  75.1899964
  23.8042565  15.9063391  76.6675335  16.8970093  17.2735977  78.5627578
  16.2280469  17.7582105  78.0791618  16.7582963  17.5205198  79.4770956
  21.0375362  19.3079721  85.1610236  21.5893670  19.4711342  85.9259321
  21.3781555  19.8984159  84.4890261  24.1743749  17.2561696  82.1473918
  24.0494889  16.4551436  81.6384864  24.8322840  17.7507890  81.6587888
  26.2378658  15.0570717  83.7753468  25.2908993  14.9376068  83.7031795
  26.5861431  14.1693215  83.8579730  23.2425091  14.8523433  79.9757821
  23.0950053  13.9240140  80.1565391  24.0678584  14.8743523  79.4914896
  26.8459213  15.6751992  81.0622693  27.7705760  15.4694853  80.9247145
  26.6774516  15.4268393  81.9712035  23.2386605   2.7061270  74.9689938
  23.4550220   3.5885908  74.6678766  22.7580672   2.3147484  74.2395580
  26.6354529  16.1937659  76.4184785  26.8091406  15.6284081  75.6658637
  27.1283420  16.9938554  76.2364275  32.4893920   8.9574082  78.0375085
  32.9325066   8.2081407  77.6394208  31.6120430   8.9484218  77.6548817
  27.6229701  15.5104423  73.5181683  28.3180606  16.1311116  73.7368998
  27.9652852  14.6599775  73.7934061  29.5221125  12.9604129  75.0469014
  30.0472449  13.2991402  74.3218334  29.4343477  12.0251144  74.8632149
  21.2061785  19.0276112  79.4064267  20.7666776  18.5352491  80.0997124
  21.9569902  18.4849080  79.1656342  13.6854124  15.2187653  79.4088895
  14.5112144  14.9191425  79.0287539  13.3348176  14.4495275  79.8578684
  18.6535657  14.5714121  81.4786569  18.0315667  13.9084826  81.1788797
  19.3240524  14.5975253  80.7960217  18.2149164  13.1218045  74.9545029
  18.3637285  13.8053509  74.3011702  19.0215608  13.1023135  75.4694485
  32.0326785  10.4279320  80.4297532  32.8673676  10.8669124  80.5935093
  32.1685914   9.9517973  79.6105778  15.9701797   9.1483222  75.9606098
  15.7247839   8.2445552  76.1586308  16.1397712   9.1500373  75.0185576
  21.7144570  15.6166175  72.4256777  21.1418537  16.2356362  71.9727249
  22.2877364  16.1665537  72.9596699  24.9341830  15.9003325  73.5565359
  25.8672503  15.8348887  73.7598234  24.8465042  16.7359592  73.0979892
  27.5629846  15.2169196  70.5169307  27.4843478  14.8829059  71.4105064
  28.3839513  15.7090963  70.5160779  22.0991368   6.9526988  69.7672829
  23.0450473   6.8233196  69.8361247  21.7205613   6.2141650  70.2442257
  36.0784587   9.1446942  82.8651662  36.8087976   8.8832230  83.4259365
  35.4691533   8.4075664  82.9053730  34.1599884   7.2854804  83.4626113
  33.4333048   7.1510769  82.8542605  33.7447171   7.5931633  84.2682831
  20.2834286   4.8776964  69.7027714  19.3765741   4.5810077  69.7790428
  20.5610267   4.5806782  68.8362001  27.2065707   0.6092426  76.9874917
  26.6264376   1.2677230  76.6052969  26.9401639  -0.2130230  76.5762334
  25.9890585   2.7692516  76.0431265  25.1016440   3.0542167  75.8251460
  26.4044574   2.6086280  75.1958542  29.3405121   2.7939037  79.7585604
  30.1165511   3.2835490  80.0310221  28.6153255   3.2197091  80.2157474
  31.7777679   3.5066656  80.8159545  32.3722170   3.2662392  80.1052853
  31.8504263   2.7873787  81.4433081  13.9974835  17.3500267  81.1302710
  13.8629303  16.5900668  80.5640708  13.5806897  18.0741167  80.6631498
  25.1333798  12.5337191  70.1379285  25.8369648  12.7387193  70.7536940
  24.4096447  13.1013953  70.4028368  25.9631608   8.2847052  76.2581555
  25.9066810   8.7415604  75.4189187  26.5159951   7.5237737  76.0804398
  29.7736414   4.0736784  77.0831675  29.5173349   3.6733420  77.9139882
  29.1489282   4.7880578  76.9581814  34.0848752   6.8132857  79.5902966
  33.5248310   6.8826047  80.3634528  33.4792256   6.6373842  78.8702462
  17.1543961  18.2469584  81.3421152  17.0376345  19.1915017  81.2399842
  16.3336407  17.9443146  81.7306951  27.0420496  12.9719720  72.1877745
  27.8766099  12.5400919  72.0055220  26.8804838  12.8001734  73.1154639
  26.6966388   9.4751833  73.5534084  26.6415191   9.3096105  72.6122528
  26.0712443  10.1827866  73.7096274  18.1798475  18.8997846  84.5577081
  19.0825722  18.9321457  84.8743576  17.9535845  17.9698297  84.5723416
  19.9352077  17.6528833  81.2187159  18.9847708  17.6530694  81.1051532
  20.2384563  16.9061567  80.7023194  35.6704771  23.4889371  82.2832922
  36.3083181  23.3696119  81.5796262  35.5525613  24.4370215  82.3420874
  32.4794477  23.4416799  82.2194446  32.1412988  23.3257864  81.3314981
  33.3484245  23.0407964  82.1995452  28.3381293  25.2952276  78.2091337
  27.7746158  25.2042213  77.4407625  28.2233688  24.4752180  78.6893830
  32.9614260  24.5951651  88.1780652  32.9502901  24.2004449  87.3061156
  33.1234899  23.8617724  88.7714423  25.8845725  26.7903467  81.0475558
  26.6767016  26.4494292  80.6321857  26.1242375  26.8998442  81.9677711
  33.9180851  28.9623243  73.5205802  33.2668831  29.5477324  73.1339816
  34.7125214  29.4929438  73.5800840  27.8436478  26.0512381  73.9192937
  28.6167354  25.5041368  73.7805812  28.1961877  26.9156630  74.1307398
  29.6821521  27.3788763  87.1259836  29.3911387  28.2834394  87.0106502
  30.3178505  27.4205290  87.8403905  30.6077728  24.7565611  83.7161196
  31.2041300  24.5321634  83.0018158  30.6652699  24.0150357  84.3186643
  30.1802756  22.2105047  71.5511386  30.4328277  21.6886568  70.7894849
  29.2427315  22.0471192  71.6538070  35.2246039  21.2140825  79.3586130
  36.0109128  20.7960248  79.0076547  35.4884743  22.1186917  79.5267778
  35.3956116  26.6513675  74.0574787  34.7601949  26.7248302  74.7695691
  35.0653523  27.2407274  73.3793866  40.6254466  21.1516058  80.2619108
  41.3579638  20.5815275  80.4956938  39.8693822  20.7637659  80.7025614
  29.8999045  24.1133153  73.7535761  29.7835303  23.4378056  74.4216846
  30.0101305  23.6265527  72.9367914  32.2430586  23.5743300  77.4582451
  31.8788793  23.0473921  78.1695372  33.0997702  23.1841769  77.2848936
  38.1479887  14.8637632  84.7213717  37.8163211  15.7333043  84.4974932
  37.5525500  14.5473916  85.4007747  31.8836073  18.6033199  72.4543799
  32.0510475  19.4713436  72.8214270  31.6933242  18.7660481  71.5305088
  34.6411406  27.0650178  84.1209630  34.3412129  27.9675217  84.0125437
  34.2962466  26.7982362  84.9730782  28.0923888  23.5163975  80.1546334
  27.1674384  23.3840189  80.3624026  28.3408301  24.2958194  80.6516276
  38.0408550  19.5832719  81.8007067  37.1325427  19.5148127  81.5065828
  37.9896146  20.0604664  82.6288892  31.8625294  21.0590857  73.4390466
  31.7424919  21.5047908  74.2775946  31.1677882  21.4076175  72.8804004
  25.4532699  23.1597249  80.9890123  25.5825080  23.4131728  81.9029535
  24.7730150  23.7524957  80.6694778  29.6232186  33.8294499  77.0880597
  29.5456216  34.7802324  77.1669078  29.0193829  33.4840371  77.7455524
  32.1149416  21.0022364  89.7441964  31.3382750  21.5616284  89.7344829
  32.7539979  21.4879147  90.2656834  39.9070196  17.7849157  83.5784941
  39.2644577  18.0781690  82.9324735  39.4025125  17.6702077  84.3838137
  37.5610360  21.5312330  74.2670800  38.4728216  21.7639717  74.0918498
  37.0520007  22.1149374  73.7045879  30.3695788  23.8107818  89.3059931
  31.1110472  24.3492861  89.0294755  29.6632773  24.4374106  89.4631483
  35.8451128  25.9536958  87.9032093  36.2534484  25.5119369  87.1586725
  35.1228389  25.3789586  88.1566286  32.1982198  20.8909565  85.2765650
  33.0443393  21.3148978  85.4200299  32.1380835  20.2343189  85.9704213
  36.1679942  26.5138149  81.6584382  35.5388805  26.6783863  80.9560449
  35.7805604  26.9279758  82.4295346  40.0469174  27.4492586  79.0128745
  39.3620212  27.8291488  78.4625779  40.1313023  28.0587913  79.7460693
  35.3481643  18.5513933  86.9346823  35.1042575  19.3055994  86.3981099
  35.6241573  18.9299281  87.7694070  37.3020106  25.0952545  85.6124089
  37.5137001  25.7384305  84.9358470  37.2549854  24.2614862  85.1446019
  34.9046335  17.7070366  82.5160661  34.0430814  18.0051620  82.8077399
  34.9308769  17.9240765  81.5841694  31.7207904  26.2512557  78.9234467
  32.1846250  26.5300260  78.1339089  31.4564702  25.3496001  78.7407557
  28.6131985  25.7984038  81.8614230  29.1833342  26.2271307  81.2231714
  29.2040097  25.5166623  82.5598416  30.6576790  22.3735709  75.7324032
  31.3600834  22.8256753  76.1997958  30.3257419  21.7319528  76.3603925
  29.1057152  20.9647466  90.1075241  28.4755812  21.6463747  90.3410638
  28.9993240  20.8530547  89.1628379  24.4002124  20.6319262  81.0341165
  23.6101178  20.8876790  80.5581276  24.8913372  21.4467600  81.1393206
  38.4165934  27.9724501  83.7846446  39.2383377  27.5704688  83.5029128
  38.4128337  27.8692735  84.7362562  26.3516870  20.9963841  77.9924642
  25.5548033  21.1082535  78.5108138  26.1242462  21.3350493  77.1265533
  32.1822537  27.5208544  85.9407157  32.2466970  27.9828951  86.7765328
  31.4733461  26.8905909  86.0689466  22.6839827  20.8849752  83.4656156
  22.9347866  21.7696762  83.7313732  23.2199376  20.7054354  82.6931248
  46.5071927  24.3163249  80.1331418  45.7535635  23.7470647  79.9775422
  46.6419468  24.2825914  81.0802052  31.8970555  29.1876652  75.8086137
  31.7616230  30.0328187  76.2370985  32.4380367  29.3895929  75.0452071
  25.3499952  26.7052090  76.3814062  25.8624473  27.4995340  76.5319627
  26.0022665  26.0078380  76.3147664  27.1594837  29.8217846  78.4636815
  27.3361465  30.7435811  78.2757799  27.9551670  29.5076265  78.8931195
  26.4447193  21.8682478  88.3398978  26.3300709  20.9667735  88.6406077
  25.5891711  22.1146175  87.9883795  33.5239031  29.8100218  89.9386479
  33.0802885  29.0236597  89.6207384  34.1856245  29.9979369  89.2730370
  28.2826152  31.3396020  84.4647158  28.8333577  31.2113083  83.6924152
  27.4437628  31.6390909  84.1142050  35.6220269  30.0903018  87.9667880
  35.6038745  30.9111899  87.4748149  36.5440189  29.9657093  88.1918021
  32.0793323  27.6047148  88.8091389  32.6121660  26.8435436  88.5790697
  31.5507405  27.3120799  89.5515543  35.2463018  12.7107214  84.3385030
  34.9027288  13.6008855  84.2624141  35.6141981  12.5208871  83.4754615
  23.3148869  25.0340744  77.1573633  24.1524091  25.4437752  76.9407340
  23.4927137  24.0940186  77.1273826  35.2113301  22.7015825  72.8457466
  34.6959925  23.4720429  73.0845853  34.9390610  22.0280961  73.4690527
  32.7960412  17.5465525  77.9042704  31.9402008  17.1572376  77.7248343
  33.2087364  17.6257486  77.0442489  34.3259559  15.0811869  82.3034264
  33.8224354  15.0442004  81.4902069  34.6190166  15.9904611  82.3630920
  30.5702445  15.1650598  81.3100445  31.4355441  14.9693407  80.9506335
  30.6379954  14.9360950  82.2369802  40.1847575  25.4548179  74.7810639
  39.4077018  25.1159339  74.3365801  40.8639056  25.4600802  74.1065604
  34.9999604  20.5742917  74.6717247  34.6949740  20.8889066  75.5227390
  35.9530046  20.6524337  74.7144580  33.4446036  26.7333140  76.3210201
  32.9167398  25.9985900  76.0083438  32.9433539  27.5107816  76.0750169
  38.4238882  24.9282161  81.4377247  37.7662557  25.6181422  81.5257376
  39.2279281  25.3178593  81.7811233  28.1764764  17.3952806  78.6816812
  28.7508516  17.1727988  77.9490005  28.7635746  17.4641501  79.4345414
  37.2344341  23.2826533  79.4881189  37.7476223  23.9156525  79.9902898
  37.8845565  22.6827729  79.1224549  28.5034351  19.4257267  72.7012697
  27.6671663  19.7631954  73.0221972  28.3639120  19.2906247  71.7639834
  30.4787431  14.2694055  77.4091882  29.8251844  13.9543072  76.7848496
  30.4367906  13.6469796  78.1351705  31.5898636  24.5513350  69.3245174
  30.6825698  24.3202604  69.5236323  32.0869668  23.7550970  69.5119155
  34.4966715  33.2610858  72.2441860  33.8228414  33.5642554  72.8526818
  34.8832537  34.0639938  71.8947317  33.7125172  20.7575989  81.7339529
  32.7947733  20.9790936  81.5761217  34.1285315  20.8322299  80.8751237
  34.4960220  22.1567405  76.8642210  35.2432039  22.6688802  76.5549332
  34.7651809  21.8351457  77.7246603  32.7686870  24.6525945  73.8469164
  31.8598089  24.3684978  73.9441634  32.7981954  25.0725024  72.9872471
  38.0006137  28.2632535  77.6160331  37.5468464  27.4223445  77.6725522
  37.3700104  28.8993933  77.9535112  36.9439057  19.1924521  78.8460999
  36.2061814  18.6801907  79.1771241  37.1965830  18.7524902  78.0344276
  36.4439076  30.1009031  78.5510150  36.7362051  30.6614089  77.8322515
  36.9537697  30.3937592  79.3063309  37.0450684  11.9700773  79.4402768
  37.3509561  11.1098136  79.1528683  37.7703289  12.5618393  79.2401762
  23.3375040  22.3731459  77.8284366  23.1399440  21.7800820  77.1035433
  22.7821704  22.0683670  78.5460305  31.3171764  22.2654566  79.9478959
  31.3720374  21.3128402  79.8721436  30.5062966  22.4214005  80.4320258
  32.4662958  26.1934689  71.1857242  32.0282387  25.4770548  70.7262880
  33.2073398  26.4210804  70.6242334  29.2564124  20.8831626  77.7069338
  28.4431989  21.1825796  78.1134530  29.7523118  20.4887314  78.4243820
  31.4072702  30.8789383  79.6403603  31.3648880  31.1050229  78.7112135
  32.3235400  30.6452757  79.7889404  34.8538335  21.3473450  86.5384232
  35.2087723  21.5744923  87.3978698  35.5010467  21.6791827  85.9161487
  40.5836072  24.4691886  77.2433561  40.4453971  24.6593482  76.3154750
  40.2272291  25.2311269  77.7001612  28.7478198  18.4549981  83.3230573
  29.3877578  18.3138740  82.6253536  27.9155729  18.1684494  82.9469175
  40.6105452  26.5368413  82.2544832  41.0441959  26.4443702  83.1027887
  41.3237033  26.5125913  81.6164848  29.5238502  27.7552412  79.4365565
  30.3179101  27.2602732  79.2348140  28.8130195  27.2270275  79.0733271
  34.3433347  30.1370507  83.7877933  34.3970369  30.7061443  84.5555649
  33.4748128  30.3072392  83.4231970  25.8321266  21.8995493  75.5125318
  24.9018854  21.8379949  75.7295280  25.9278738  21.3771446  74.7161959
  25.7506815  18.4250306  78.1003560  26.0113632  19.3395639  77.9912720
  26.5723987  17.9574749  78.2500173  27.2231740  19.8388063  85.2702384
  27.8954794  19.6305425  84.6215033  26.3961527  19.6410149  84.8307617
  41.4721001  26.5792114  84.7877718  41.6656892  27.4837924  85.0336993
  41.3721620  26.1199533  85.6216303  33.1257312  16.4650004  87.2868045
  32.4785227  17.1639954  87.1932522  33.8958328  16.8986148  87.6544293
  36.5336110  26.7298856  90.3618598  36.3821617  26.5009408  89.4448682
  36.5240790  27.6869458  90.3749944  33.3021447  24.3030769  85.3464865
  34.2313507  24.4541929  85.1733832  32.8812477  24.3914790  84.4913511
  32.1009778  28.3281434  83.1163403  31.9620864  27.9600218  83.9889341
  31.3124375  28.8429073  82.9447360  32.6957930  33.4290530  74.4588939
  32.8709686  32.9578573  75.2734562  32.0090718  34.0556296  74.6870200
  33.6514994  27.7063036  80.5052240  33.3164826  27.6663806  81.4009890
  33.1518939  27.0407752  80.0322651  27.6259237  23.1130666  86.0304822
  27.4879035  22.3810905  86.6316361  28.5364161  23.0239566  85.7489009
  36.5874185  25.0519071  70.7789300  35.9703356  24.3265899  70.6822353
  36.1190674  25.8128431  70.4356374  30.2541538  22.8250626  85.5188501
  30.9641157  22.1843818  85.4775120  30.2110846  23.0763520  86.4414682
  38.2428317  29.7617979  88.4395080  38.1840863  29.0777199  87.7725663
  38.6447835  30.5036969  87.9875706  28.9670472  19.8115843  87.3384141
  28.4307829  19.3606582  87.9905737  28.3787181  19.9461752  86.5954605
  27.2619016  36.5779893  81.2328799  27.5015614  37.2098417  81.9107818
  26.4188212  36.2267933  81.5194159  28.3772731  19.2704495  69.9010604
  27.5002197  19.1493296  69.5372851  28.8530484  18.4790573  69.6489493
  38.2445724  27.7257563  86.6709060  37.3572503  27.3883485  86.7935459
  38.8144275  26.9940594  86.9077825  19.8974871  24.0581655  79.9952111
  20.5845911  23.7443385  79.4073127  19.7423000  24.9623019  79.7219363
  24.7009593  18.9471851  84.4237135  24.6167782  18.3397521  83.6887545
  23.8792300  19.4380869  84.4246631  31.7746877  32.3859015  83.6370303
  31.7017049  33.1913987  84.1489608  31.3324271  32.5850981  82.8118325
  31.5636657  31.6230785  77.1473125  30.7804179  32.1652465  77.2411349
  32.2629402  32.1404765  77.5467366  34.8733307  17.4325415  79.7907330
  35.3702007  16.6795377  79.4708400  34.1020289  17.4689731  79.2250539
  42.7263065  23.1365780  81.4325622  42.7152941  24.0190496  81.0619555
  41.8580444  22.7837331  81.2380159  34.2345561  32.2845849  85.7928462
  34.9473533  32.9193314  85.7204363  33.7435590  32.3809715  84.9768464
  35.9563088  26.1897102  77.3645754  35.0219367  26.3098564  77.1950458
  36.1339756  25.2869569  77.1005763  31.4568276  19.5742798  79.5179015
  31.0866063  19.0213838  80.2059920  31.9527368  18.9700931  78.9654015
  39.3435639  22.0314421  77.8995788  39.8096091  22.8642413  77.8256090
  39.7943140  21.5659403  78.6041046  29.2857475  30.0340293  86.6134033
  29.9866934  30.6676776  86.7663427  28.8152590  30.3755024  85.8529672
  37.4111870  28.3758242  74.8981940  37.6871714  28.2614837  75.8075814
  36.5416369  27.9775727  74.8594113  37.3152302  14.3995008  81.9386689
  36.4015382  14.6299235  82.1068896  37.7445403  14.4833452  82.7900721
  37.0858760  22.5884900  84.4386583  36.4330211  22.8360808  83.7839036
  37.4639140  21.7749038  84.1049060  34.0465934  32.6244593  78.5414753
  34.2288329  31.8066249  79.0042506  34.8698920  32.8412286  78.1039643
  34.3808100  31.5512778  75.8029802  34.9095866  31.0405233  75.1899964
  34.6436319  31.2355309  76.6675335  33.1346334  23.3304711  90.9252620
  32.4586971  23.2298841  91.5954995  33.9573967  23.1743925  91.3888617
  24.8825193  29.5676648  83.5465135  25.4678629  28.8220336  83.6793040
  24.6850031  29.8780604  84.4301799  27.7363848  32.6027895  78.5627578
  27.0674223  33.0874023  78.0791618  27.5976718  32.8497116  79.4770956
  19.4742847  22.1382248  82.2669579  19.5126947  21.6045839  83.0606697
  18.9683140  21.6117453  81.6480556  31.8769116  34.6371639  85.1610236
  32.4287424  34.8003260  85.9259321  32.2175310  35.2276076  84.4890261
  26.8533610  16.9846788  85.7632121  26.9174936  17.8461619  85.3509519
  26.7900730  16.3720790  85.0304479  36.7279991  29.4632896  91.0158891
  37.2719895  30.0762854  90.5213845  36.1466836  30.0212475  91.5325904
  23.1051425  20.8646350  75.3423510  23.4004866  19.9557028  75.2890564
  22.2039461  20.8434090  75.0204512  35.0137504  32.5853614  82.1473918
  34.8888643  31.7843354  81.6384864  35.6716595  33.0799808  81.6587888
  26.6345672  18.9402347  81.3251059  25.9132258  19.5538314  81.1858532
  27.4238928  19.4760111  81.2467704  37.0772412  30.3862634  83.7753468
  36.1302748  30.2667985  83.7031795  37.4255185  29.4985132  83.8579730
  29.4371985  16.2756773  87.5991710  29.9606387  16.5219070  88.3618020
  29.2184319  17.1076808  87.1794848  24.8339266  18.5460448  75.4662835
  24.5051973  17.6657827  75.2837941  25.1878637  18.4908116  76.3539224
  34.0818845  30.1815350  79.9757821  33.9343808  29.2532058  80.1565391
  34.9072339  30.2035441  79.4914896  27.9481090  18.8333418  75.8338313
  28.2877162  19.3619339  75.1116921  28.3953210  19.1713824  76.6096879
  37.6852967  31.0043909  81.0622693  38.6099515  30.7986771  80.9247145
  37.5168271  30.7560310  81.9712035  30.6424530  17.2170468  85.2841381
  30.3021351  16.4178281  85.6862061  29.9363537  17.5172179  84.7118214
  31.2941002  14.3019781  83.7368704  32.1167072  13.8280259  83.6147594
  31.5379066  15.0810264  84.2367390  29.9349237  17.3308039  74.0331606
  30.6557599  17.7089292  73.5295322  29.3114541  18.0496916  74.1366583
  34.0780360  18.0353188  74.9689938  34.2943974  18.9177826  74.6678766
  33.5974427  17.6439402  74.2395580  28.8179581  20.9938901  81.5460682
  28.6724162  21.3079204  82.4384964  28.3404785  21.6123802  80.9931581
  30.6775964  17.9841449  81.5941572  30.6637533  17.0882543  81.2573870
  31.3948392  17.9912113  82.2279858  32.5302095  18.4178790  83.6394699
  32.2719872  19.3395860  83.6379030  31.9987135  18.0209224  84.3295164
  37.4748283  31.5229577  76.4184785  37.6485161  30.9575999  75.6658637
  37.9677175  32.3230472  76.2364275  23.2925243  23.5344246  84.4848344
  22.7478711  24.3104054  84.6168618  24.1704593  23.8815050  84.3267465
  30.0812860  16.8655830  76.8629142  30.2028771  15.9372476  77.0620030
  29.7914902  16.8794516  75.9507458  32.9504050  14.5510740  79.9995862
  32.9725747  14.6150073  79.0447842  33.3672109  13.7115249  80.1936368
  43.3287675  24.2866000  78.0375085  43.7718821  23.5373325  77.6394208
  42.4514185  24.2776136  77.6548817  38.4623456  30.8396341  73.5181683
  39.1574361  31.4603034  73.7368998  38.8046606  29.9891692  73.7934061
  24.0791265  22.6614142  87.3778501  23.3373001  22.8096777  87.9643131
  23.7584009  22.9222408  86.5145250  40.3614879  28.2896047  75.0469014
  40.8866203  28.6283319  74.3218334  40.2737232  27.3543062  74.8632149
  32.0234928  32.2030120  87.1758891  32.3322054  31.9579267  88.0481590
  32.8210410  32.4076759  86.6877761  32.0455540  34.3568030  79.4064267
  31.6060530  33.8644409  80.0997124  32.7963657  33.8140998  79.1656342
  24.5247879  30.5479571  79.4088895  25.3505899  30.2483343  79.0287539
  24.1741931  29.7787193  79.8578684  29.4929412  29.9006039  81.4786569
  28.8709421  29.2376744  81.1788797  30.1634279  29.9267171  80.7960217
  22.7256484  28.4665897  80.3677829  21.8888392  28.0388072  80.1861830
  22.6980129  28.6598341  81.3048620  40.0508785  28.9228950  90.3520212
  39.2604329  28.9053089  89.8124711  39.8142140  29.4617244  91.1069248
  40.1706660  25.7721417  87.6652940  40.2204665  25.6071424  88.6068463
  40.0620583  24.9048676  87.2750821  29.0542919  28.4509962  74.9545029
  29.2031039  29.1345427  74.3011702  29.8609362  28.4315052  75.4694485
  37.4610423  21.7552345  88.9812247  38.3620285  21.6158809  88.6896245
  37.5358397  21.9206799  89.9210425  31.7953228  19.1319199  87.8265433
  30.9256537  19.4252765  87.5548022  32.0312708  19.7159644  88.5472697
  41.6724857  28.1918358  87.9094962  41.3809665  28.5548339  88.7458423
  41.0596988  27.4785366  87.7308294  42.8720539  25.7571238  80.4297532
  43.7067431  26.1961042  80.5935093  43.0079668  25.2809891  79.6105778
  39.9212045  23.3150973  86.3775020  40.3966167  23.5078619  85.5693871
  38.9977611  23.3710159  86.1318404  26.8095552  24.4775140  75.9606098
  26.5641594  23.5737470  76.1586308  26.9791466  24.4792290  75.0185576
  34.4992262  15.3498816  85.3430854  35.0174206  16.0859843  85.0177342
  34.1447394  15.6562810  86.1777613  26.0791199  20.2103497  73.4592260
  25.3860444  20.2847852  72.8032296  25.8342951  19.4463841  73.9813777
  34.7504856  11.7699099  80.8631750  35.0306610  11.1022288  81.4892177
  35.5355463  11.9628194  80.3506414  32.5538324  30.9458093  72.4256777
  31.9812291  31.5648280  71.9727249  33.1271118  31.4957454  72.9596699
  38.6213714  20.1916733  84.6103326  39.5731137  20.2914830  84.6315550
  38.4517165  19.3995001  85.1201410  36.6428094  17.2772316  84.7962726
  36.0478026  17.5577329  84.1009215  36.3577790  17.7666217  85.5679468
  35.7735584  31.2295243  73.5565359  36.7066257  31.1640805  73.7598234
  35.6858797  32.0651510  73.0979892  38.4023601  30.5461113  70.5169307
  38.3237232  30.2120977  71.4105064  39.2233268  31.0382881  70.5160779
  41.1001792  23.4122853  83.7245625  41.0678112  22.4738853  83.9105309
  41.7102416  23.4906889  82.9911450  32.9385123  22.2818905  69.7672829
  33.8844228  22.1525114  69.8361247  32.5599368  21.5433567  70.2442257
  41.2496280  20.2033896  83.7703908  40.7335329  19.4192353  83.5833837
  42.1336229  19.8752613  83.9350428  38.9107007  13.9474912  79.7299721
  38.7131829  13.6390000  80.6143053  39.5206713  14.6736550  79.8597651
  46.9178342  24.4738859  82.8651662  47.6481730  24.2124147  83.4259365
  46.3085287  23.7367581  82.9053730  44.9993639  22.6146722  83.4626113
  44.2726803  22.4802687  82.8542605  44.5840926  22.9223551  84.2682831
  32.8223815  26.3336652  91.2273486  33.7426825  26.5115251  91.4213533
  32.7873398  25.3892697  91.0753185  31.1228040  20.2068882  69.7027714
  30.2159495  19.9101995  69.7790428  31.4004021  19.9098700  68.8362001
  22.0405980  21.5275245  80.1526761  21.7208765  20.6740553  79.8601135
  21.4939409  21.7423823  80.9084728  25.8185888  24.2437686  83.8696267
  26.0371898  25.1754794  83.8884301  26.2311662  23.8845661  84.6551071
  32.7390106  14.7505772  75.8571956  31.9290834  14.4052857  76.2327202
  33.4274523  14.4413315  76.4459567  34.6680654  13.8283818  77.4796252
  35.2211693  14.2479272  78.1386275  34.9050740  12.9019567  77.5219208
  29.8926825  17.0655817  69.8439694  30.7545989  17.3910715  70.1035511
  30.0777169  16.2787313  69.3312759  21.9094240  25.1478157  82.1219882
  21.2157712  24.7332110  81.6089837  22.6567231  25.1898693  81.5253301
  38.0459461  15.9384344  76.9874917  37.4658130  16.5969148  76.6052969
  37.7795394  15.1161688  76.5762334  36.4963027  15.3389401  79.1896237
  36.9962806  15.4505936  78.3810556  37.1398635  15.0350454  79.8297045
  30.5545023  23.2468031  92.0764078  30.0712105  24.0468391  92.2827967
  30.6405962  23.2575976  91.1231522  23.8230983  25.0796411  79.9985897
  23.8001671  25.1784098  79.0467780  24.1331619  25.9261561  80.3203063
  26.4818361  27.1372566  84.1132512  27.4361614  27.1056508  84.0462443
  26.2830884  26.6763189  84.9282738  27.0717743  25.7073682  86.6803309
  27.8910632  26.2017760  86.7038147  27.3454551  24.7905650  86.6520877
  36.8284339  18.0984434  76.0431265  35.9410194  18.3834085  75.8251460
  37.2438328  17.9378197  75.1958542  40.1798875  18.1230955  79.7585604
  40.9559265  18.6127407  80.0310221  39.4547009  18.5489009  80.2157474
  42.6171434  18.8358574  80.8159545  43.2115925  18.5954310  80.1052853
  42.6898018  18.1165705  81.4433081  24.8368590  32.6792185  81.1302710
  24.7023058  31.9192586  80.5640708  24.4200652  33.4033085  80.6631498
  35.9727553  27.8629109  70.1379285  36.6763403  28.0679111  70.7536940
  35.2490201  28.4305871  70.4028368  36.8025363  23.6138970  76.2581555
  36.7460564  24.0707521  75.4189187  37.3553705  22.8529654  76.0804398
  40.6130169  19.4028702  77.0831675  40.3567103  19.0025337  77.9139882
  39.9883037  20.1172496  76.9581814  44.9242507  22.1424775  79.5902966
  44.3642065  22.2117964  80.3634528  44.3186010  21.9665760  78.8702462
  27.9937715  33.5761502  81.3421152  27.8770100  34.5206935  81.2399842
  27.1730162  33.2735064  81.7306951  37.8814250  28.3011638  72.1877745
  38.7159854  27.8692836  72.0055220  37.7198593  28.1293651  73.1154639
  37.5360142  24.8043751  73.5534084  37.4808946  24.6388023  72.6122528
  36.9106197  25.5119784  73.7096274  34.8506049  27.1092663  92.8787647
  35.7197209  27.2833315  92.5174282  34.3712801  27.9287080  92.7563376
  30.8456268  14.3051860  73.1319403  30.8334937  15.2493700  73.2887673
  31.7379690  14.1222006  72.8378864  29.0192230  34.2289764  84.5577081
  29.9219476  34.2613374  84.8743576  28.7929600  33.2990215  84.5723416
  30.7745832  32.9820751  81.2187159  29.8241463  32.9822612  81.1051532
  31.0778318  32.2353485  80.7023194  34.6608387  10.8994637  77.3865339
  33.8940783  10.3453123  77.5322022  35.0719092  10.9716506  78.2479491
  46.5098525  38.8181289  82.2832922  47.1476935  38.6988036  81.5796262
  46.3919368  39.7662133  82.3420874  43.3188231  38.7708717  82.2194446
  42.9806743  38.6549782  81.3314981  44.1878000  38.3699882  82.1995452
  43.8008014  39.9243569  88.1780652  43.7896655  39.5296367  87.3061156
  43.9628654  39.1909641  88.7714423  38.6830233  41.3804298  73.9192937
  39.4561109  40.8333285  73.7805812  39.0355632  42.2448548  74.1307398
  40.5215276  42.7080681  87.1259836  40.2305141  43.6126311  87.0106502
  41.1572260  42.7497208  87.8403905  41.0196511  37.5396964  71.5511386
  41.2722031  37.0178486  70.7894849  40.0821070  37.3763110  71.6538070
  46.0639794  36.5432743  79.3586130  46.8502883  36.1252166  79.0076547
  46.3278498  37.4478835  79.5267778  46.2349871  41.9805593  74.0574787
  45.5995704  42.0540220  74.7695691  45.9047277  42.5699192  73.3793866
  51.4648221  36.4807976  80.2619108  52.1973393  35.9107193  80.4956938
  50.7087576  36.0929576  80.7025614  40.7392799  39.4425070  73.7535761
  40.6229058  38.7669974  74.4216846  40.8495059  38.9557444  72.9367914
  43.0824340  38.9035217  77.4582451  42.7182548  38.3765838  78.1695372
  43.9391456  38.5133687  77.2848936  48.9873641  30.1929550  84.7213717
  48.6556966  31.0624961  84.4974932  48.3919254  29.8765834  85.4007747
  42.7229827  33.9325117  72.4543799  42.8904230  34.8005354  72.8214270
  42.5326996  34.0952399  71.5305088  45.4805161  42.3942096  84.1209630
  45.1805884  43.2967135  84.0125437  45.1356220  42.1274279  84.9730782
  48.8802304  34.9124636  81.8007067  47.9719182  34.8440045  81.5065828
  48.8289900  35.3896581  82.6288892  42.7019048  36.3882775  73.4390466
  42.5818673  36.8339825  74.2775946  42.0071637  36.7368092  72.8804004
  36.2926453  38.4889166  80.9890123  36.4218834  38.7423645  81.9029535
  35.6123904  39.0816874  80.6694778  42.9543170  36.3314282  89.7441964
  42.1776504  36.8908202  89.7344829  43.5933733  36.8171065  90.2656834
  50.7463951  33.1141075  83.5784941  50.1038331  33.4073608  82.9324735
  50.2418879  32.9993995  84.3838137  48.4004114  36.8604248  74.2670800
  49.3121971  37.0931635  74.0918498  47.8913762  37.4441292  73.7045879
  41.2089542  39.1399735  89.3059931  41.9504227  39.6784779  89.0294755
  40.5026528  39.7666024  89.4631483  46.6844882  41.2828876  87.9032093
  47.0928238  40.8411286  87.1586725  45.9622144  40.7081503  88.1566286
  43.0375952  36.2201482  85.2765650  43.8837147  36.6440896  85.4200299
  42.9774590  35.5635107  85.9704213  50.8862929  42.7784504  79.0128745
  50.2013967  43.1583405  78.4625779  50.9706778  43.3879831  79.7460693
  46.1875397  33.8805851  86.9346823  45.9436329  34.6347911  86.3981099
  46.4635328  34.2591198  87.7694070  48.1413860  40.4244463  85.6124089
  48.3530755  41.0676223  84.9358470  48.0943609  39.5906780  85.1446019
  45.7440089  33.0362284  82.5160661  44.8824568  33.3343537  82.8077399
  45.7702524  33.2532683  81.5841694  41.4970545  37.7027627  75.7324032
  42.1994588  38.1548670  76.1997958  41.1651173  37.0611446  76.3603925
  39.9450906  36.2939383  90.1075241  39.3149567  36.9755664  90.3410638
  39.8386994  36.1822465  89.1628379  35.2395879  35.9611179  81.0341165
  34.4494933  36.2168708  80.5581276  35.7307126  36.7759517  81.1393206
  49.2559688  43.3016419  83.7846446  50.0777132  42.8996606  83.5029128
  49.2522091  43.1984653  84.7362562  37.1910624  36.3255759  77.9924642
  36.3941787  36.4374453  78.5108138  36.9636216  36.6642411  77.1265533
  33.5233582  36.2141670  83.4656156  33.7741620  37.0988680  83.7313732
  34.0593130  36.0346271  82.6931248  57.3465681  39.6455167  80.1331418
  56.5929390  39.0762565  79.9775422  57.4813222  39.6117832  81.0802052
  39.2231649  30.5960149  92.4700492  38.8298595  30.0426348  93.1448136
  40.0397789  30.9070728  92.8607010  42.1399610  32.0118028  90.0620749
  42.8809323  32.6125181  89.9825211  42.3717533  31.2695666  89.5038791
  37.2840948  37.1974396  88.3398978  37.1694463  36.2959653  88.6406077
  36.4285466  37.4438092  87.9883795  44.3632786  45.1392136  89.9386479
  43.9196640  44.3528514  89.6207384  45.0249999  45.3271286  89.2730370
  46.4614024  45.4194936  87.9667880  46.4432499  46.2403817  87.4748149
  47.3833944  45.2949011  88.1918021  42.9187078  42.9339065  88.8091389
  43.4515415  42.1727353  88.5790697  42.3901159  42.6412717  89.5515543
  46.0856773  28.0399131  84.3385030  45.7421042  28.9300773  84.2624141
  46.4535735  27.8500789  83.4754615  34.1542623  40.3632662  77.1573633
  34.9917845  40.7729670  76.9407340  34.3320891  39.4232104  77.1273826
  46.0507056  38.0307742  72.8457466  45.5353679  38.8012347  73.0845853
  45.7784364  37.3572879  73.4690527  43.6354167  32.8757443  77.9042704
  42.7795763  32.4864294  77.7248343  44.0481118  32.9549404  77.0442489
  45.1653313  30.4103786  82.3034264  44.6618109  30.3733922  81.4902069
  45.4583920  31.3196529  82.3630920  41.4096199  30.4942516  81.3100445
  42.2749196  30.2985325  80.9506335  41.4773708  30.2652868  82.2369802
  51.0241330  40.7840097  74.7810639  50.2470772  40.4451256  74.3365801
  51.7032811  40.7892720  74.1065604  45.8393359  35.9034834  74.6717247
  45.5343494  36.2180984  75.5227390  46.7923801  35.9816254  74.7144580
  49.2632637  40.2574078  81.4377247  48.6056311  40.9473340  81.5257376
  50.0673036  40.6470510  81.7811233  39.0158518  32.7244724  78.6816812
  39.5902270  32.5019906  77.9490005  39.6029501  32.7933419  79.4345414
  48.0738095  38.6118451  79.4881189  48.5869977  39.2448443  79.9902898
  48.7239319  38.0119646  79.1224549  39.3428105  34.7549185  72.7012697
  38.5065418  35.0923872  73.0221972  39.2032875  34.6198165  71.7639834
  41.3181186  29.5985973  77.4091882  40.6645598  29.2834990  76.7848496
  41.2761660  28.9761713  78.1351705  44.5518926  36.0867906  81.7339529
  43.6341488  36.3082854  81.5761217  44.9679070  36.1614217  80.8751237
  45.3353974  37.4859322  76.8642210  46.0825793  37.9980719  76.5549332
  45.6045564  37.1643375  77.7246603  43.6080624  39.9817863  73.8469164
  42.6991843  39.6976896  73.9441634  43.6375708  40.4016941  72.9872471
  48.8399892  43.5924452  77.6160331  48.3862219  42.7515362  77.6725522
  48.2093858  44.2285851  77.9535112  47.7832811  34.5216438  78.8460999
  47.0455568  34.0093825  79.1771241  48.0359585  34.0816820  78.0344276
  47.8844439  27.2992690  79.4402768  48.1903315  26.4390054  79.1528683
  48.6097043  27.8910311  79.2401762  34.1768795  37.7023377  77.8284366
  33.9793194  37.1092738  77.1035433  33.6215459  37.3975587  78.5460305
  42.1565518  37.5946484  79.9478959  42.2114128  36.6420320  79.8721436
  41.3456720  37.7505923  80.4320258  40.0957878  36.2123543  77.7069338
  39.2825744  36.5117714  78.1134530  40.5916872  35.8179232  78.4243820
  45.6932090  36.6765368  86.5384232  46.0481478  36.9036841  87.3978698
  46.3404221  37.0083745  85.9161487  51.4229827  39.7983804  77.2433561
  51.2847725  39.9885400  76.3154750  51.0666046  40.5603186  77.7001612
  39.5871953  33.7841899  83.3230573  40.2271332  33.6430658  82.6253536
  38.7549483  33.4976412  82.9469175  51.4499206  41.8660331  82.2544832
  51.8835713  41.7735620  83.1027887  52.1630787  41.8417831  81.6164848
  36.6715020  37.2287411  75.5125318  35.7412608  37.1671866  75.7295280
  36.7672492  36.7063364  74.7161959  36.5900569  33.7542224  78.1003560
  36.8507387  34.6687557  77.9912720  37.4117742  33.2866666  78.2500173
  38.0625495  35.1679981  85.2702384  38.7348548  34.9597343  84.6215033
  37.2355281  34.9702067  84.8307617  52.3114756  41.9084031  84.7877718
  52.5050646  42.8129842  85.0336993  52.2115374  41.4491450  85.6216303
  43.9651067  31.7941922  87.2868045  43.3178982  32.4931872  87.1932522
  44.7352082  32.2278066  87.6544293  47.3729865  42.0590774  90.3618598
  47.2215371  41.8301326  89.4448682  47.3634544  43.0161375  90.3749944
  44.1415201  39.6322687  85.3464865  45.0707261  39.7833846  85.1733832
  43.7206231  39.7206708  84.4913511  38.4652992  38.4422584  86.0304822
  38.3272790  37.7102823  86.6316361  39.3757915  38.3531484  85.7489009
  41.0935293  38.1542543  85.5188501  41.8034911  37.5135735  85.4775120
  41.0504601  38.4055438  86.4414682  49.0822071  45.0909897  88.4395080
  49.0234617  44.4069117  87.7725663  49.4841590  45.8328887  87.9875706
  39.8064227  35.1407761  87.3384141  39.2701584  34.6898500  87.9905737
  39.2180935  35.2753670  86.5954605  39.2166486  34.5996413  69.9010604
  38.3395952  34.4785213  69.5372851  39.6924239  33.8082491  69.6489493
  49.0839479  43.0549481  86.6709060  48.1966257  42.7175402  86.7935459
  49.6538030  42.3232512  86.9077825  30.7368626  39.3873572  79.9952111
  31.4239666  39.0735302  79.4073127  30.5816754  40.2914937  79.7219363
  35.5403348  34.2763769  84.4237135  35.4561537  33.6689438  83.6887545
  34.7186054  34.7672787  84.4246631  45.7127062  32.7617332  79.7907330
  46.2095761  32.0087295  79.4708400  44.9414043  32.7981649  79.2250539
  53.5656819  38.4657698  81.4325622  53.5546695  39.3482413  81.0619555
  52.6974199  38.1129249  81.2380159  45.0739315  47.6137767  85.7928462
  45.7867288  48.2485232  85.7204363  44.5829344  47.7101633  84.9768464
  46.7956842  41.5189020  77.3645754  45.8613121  41.6390482  77.1950458
  46.9733511  40.6161486  77.1005763  42.2962030  34.9034715  79.5179015
  41.9259818  34.3505756  80.2059920  42.7921123  34.2992849  78.9654015
  50.1829394  37.3606339  77.8995788  50.6489846  38.1934330  77.8256090
  50.6336894  36.8951320  78.6041046  48.2505625  43.7050160  74.8981940
  48.5265469  43.5906755  75.8075814  47.3810124  43.3067645  74.8594113
  48.1546056  29.7286926  81.9386689  47.2409136  29.9591153  82.1068896
  48.5839158  29.8125370  82.7900721  47.9252515  37.9176818  84.4386583
  47.2723965  38.1652725  83.7839036  48.3032895  37.1040956  84.1049060
  43.9740088  38.6596629  90.9252620  43.2980725  38.5590758  91.5954995
  44.7967722  38.5035843  91.3888617  30.3136602  37.4674166  82.2669579
  30.3520701  36.9337756  83.0606697  29.8076895  36.9409371  81.6480556
  37.6927364  32.3138706  85.7632121  37.7568691  33.1753537  85.3509519
  37.6294484  31.7012708  85.0304479  37.1679637  34.3861839  89.4105155
  37.7951675  34.0038916  90.0242679  36.3107556  34.1676041  89.7760848
  47.5673745  44.7924814  91.0158891  48.1113649  45.4054772  90.5213845
  46.9860590  45.3504392  91.5325904  33.9445179  36.1938268  75.3423510
  34.2398620  35.2848946  75.2890564  33.0433215  36.1726007  75.0204512
  37.4739426  34.2694264  81.3251059  36.7526012  34.8830232  81.1858532
  38.2632682  34.8052029  81.2467704  47.9166167  45.7154552  83.7753468
  46.9696502  45.5959903  83.7031795  48.2648940  44.8277050  83.8579730
  40.2765740  31.6048691  87.5991710  40.8000142  31.8510987  88.3618020
  40.0578073  32.4368726  87.1794848  35.6733021  33.8752365  75.4662835
  35.3445727  32.9949744  75.2837941  36.0272392  33.8200034  76.3539224
  38.7874844  34.1625335  75.8338313  39.1270917  34.6911256  75.1116921
  39.2346965  34.5005741  76.6096879  41.4818285  32.5462386  85.2841381
  41.1415105  31.7470199  85.6862061  40.7757291  32.8464097  84.7118214
  42.1334757  29.6311698  83.7368704  42.9560826  29.1572177  83.6147594
  42.3772820  30.4102182  84.2367390  40.7742991  32.6599957  74.0331606
  41.4951354  33.0381210  73.5295322  40.1508295  33.3788834  74.1366583
  44.9174114  33.3645106  74.9689938  45.1337729  34.2469744  74.6678766
  44.4368181  32.9731319  74.2395580  39.6573336  36.3230819  81.5460682
  39.5117916  36.6371122  82.4384964  39.1798539  36.9415719  80.9931581
  41.5169718  33.3133367  81.5941572  41.5031287  32.4174460  81.2573870
  42.2342147  33.3204031  82.2279858  43.3695849  33.7470707  83.6394699
  43.1113627  34.6687778  83.6379030  42.8380890  33.3501142  84.3295164
  34.1318998  38.8636163  84.4848344  33.5872466  39.6395971  84.6168618
  35.0098348  39.2106968  84.3267465  40.9206614  32.1947747  76.8629142
  41.0422526  31.2664393  77.0620030  40.6308657  32.2086433  75.9507458
  43.7897805  29.8802658  79.9995862  43.8119502  29.9441991  79.0447842
  44.2065864  29.0407166  80.1936368  54.1681429  39.6157917  78.0375085
  54.6112575  38.8665242  77.6394208  53.2907939  39.6068054  77.6548817
  34.9185020  37.9906060  87.3778501  34.1766756  38.1388695  87.9643131
  34.5977764  38.2514325  86.5145250  42.8628682  47.5322038  87.1758891
  43.1715809  47.2871185  88.0481590  43.6604164  47.7368676  86.6877761
  40.4047694  33.7079745  91.0719075  40.4535849  34.5841867  90.6896844
  40.9470208  33.1657138  90.4990718  50.8902540  44.2520868  90.3520212
  50.0998083  44.2345007  89.8124711  50.6535894  44.7909162  91.1069248
  51.0100415  41.1013334  87.6652940  51.0598420  40.9363342  88.6068463
  50.9014338  40.2340593  87.2750821  48.3004177  37.0844262  88.9812247
  49.2014040  36.9450727  88.6896245  48.3752152  37.2498717  89.9210425
  42.6346982  34.4611117  87.8265433  41.7650292  34.7544683  87.5548022
  42.8706463  35.0451562  88.5472697  52.5118611  43.5210276  87.9094962
  52.2203420  43.8840256  88.7458423  51.8990743  42.8077284  87.7308294
  53.7114294  41.0863156  80.4297532  54.5461185  41.5252960  80.5935093
  53.8473423  40.6101809  79.6105778  50.7605800  38.6442890  86.3775020
  51.2359921  38.8370537  85.5693871  49.8371365  38.7002076  86.1318404
  45.3386016  30.6790734  85.3430854  45.8567960  31.4151761  85.0177342
  44.9841149  30.9854727  86.1777613  36.9184954  35.5395415  73.4592260
  36.2254199  35.6139770  72.8032296  36.6736706  34.7755759  73.9813777
  45.5898610  27.0991017  80.8631750  45.8700364  26.4314206  81.4892177
  46.3749217  27.2920112  80.3506414  49.4607469  35.5208650  84.6103326
  50.4124892  35.6206748  84.6315550  49.2910919  34.7286919  85.1201410
  47.4821848  32.6064234  84.7962726  46.8871780  32.8869246  84.1009215
  47.1971545  33.0958135  85.5679468  51.9395546  38.7414770  83.7245625
  51.9071867  37.8030771  83.9105309  52.5496170  38.8198807  82.9911450
  43.7778877  37.6110823  69.7672829  44.7237982  37.4817031  69.8361247
  43.3993122  36.8725485  70.2442257  52.0890035  35.5325814  83.7703908
  51.5729084  34.7484270  83.5833837  52.9729983  35.2044530  83.9350428
  49.7500762  29.2766829  79.7299721  49.5525583  28.9681917  80.6143053
  50.3600467  30.0028468  79.8597651  57.7572096  39.8030777  82.8651662
  58.4875485  39.5416065  83.4259365  57.1479042  39.0659499  82.9053730
  55.8387393  37.9438640  83.4626113  55.1120557  37.8094605  82.8542605
  55.4234680  38.2515468  84.2682831  43.6617570  41.6628569  91.2273486
  44.5820579  41.8407168  91.4213533  43.6267153  40.7184615  91.0753185
  41.9621794  35.5360800  69.7027714  41.0553250  35.2393912  69.7790428
  42.2397776  35.2390618  68.8362001  32.8799735  36.8567163  80.1526761
  32.5602519  36.0032471  79.8601135  32.3333163  37.0715741  80.9084728
  36.6579642  39.5729604  83.8696267  36.8765652  40.5046712  83.8884301
  37.0705416  39.2137578  84.6551071  43.5783860  30.0797689  75.8571956
  42.7684589  29.7344774  76.2327202  44.2668277  29.7705233  76.4459567
  45.5074409  29.1575736  77.4796252  46.0605447  29.5771189  78.1386275
  45.7444495  28.2311484  77.5219208  41.5307508  35.1462810  93.2599016
  41.4304235  36.0957167  93.1911107  41.3129050  34.8181049  92.3875086
  40.7320579  32.3947735  69.8439694  41.5939743  32.7202633  70.1035511
  40.9170923  31.6079231  69.3312759  32.7487995  40.4770074  82.1219882
  32.0551466  40.0624027  81.6089837  33.4960986  40.5190611  81.5253301
  48.8853216  31.2676261  76.9874917  48.3051885  31.9261065  76.6052969
  48.6189148  30.4453606  76.5762334  47.3356782  30.6681319  79.1896237
  47.8356560  30.7797853  78.3810556  47.9792390  30.3642372  79.8297045
  41.3938778  38.5759949  92.0764078  40.9105859  39.3760309  92.2827967
  41.4799717  38.5867893  91.1231522  34.6624737  40.4088328  79.9985897
  34.6395426  40.5076016  79.0467780  34.9725374  41.2553479  80.3203063
  37.9111497  41.0365599  86.6803309  38.7304386  41.5309678  86.7038147
  38.1848305  40.1197567  86.6520877  47.6678094  33.4276352  76.0431265
  46.7803949  33.7126002  75.8251460  48.0832083  33.2670115  75.1958542
  51.0192630  33.4522873  79.7585604  51.7953020  33.9419325  80.0310221
  50.2940764  33.8780927  80.2157474  53.4565188  34.1650492  80.8159545
  54.0509679  33.9246228  80.1052853  53.5291772  33.4457622  81.4433081
  47.6419117  38.9430888  76.2581555  47.5854319  39.3999439  75.4189187
  48.1947460  38.1821572  76.0804398  51.4523923  34.7320619  77.0831675
  51.1960858  34.3317255  77.9139882  50.8276791  35.4464413  76.9581814
  55.7636261  37.4716693  79.5902966  55.2035819  37.5409882  80.3634528
  55.1579764  37.2957677  78.8702462  48.7208004  43.6303555  72.1877745
  49.5553608  43.1984754  72.0055220  48.5592347  43.4585569  73.1154639
  48.3753897  40.1335669  73.5534084  48.3202700  39.9679940  72.6122528
  47.7499952  40.8411702  73.7096274  33.1646412  35.3703733  87.3795506
  33.8105275  34.8602687  87.8682732  32.9563563  36.1072415  87.9538932
  45.6899804  42.4384581  92.8787647  46.5590963  42.6125233  92.5174282
  45.2106555  43.2578997  92.7563376  41.6850022  29.6343778  73.1319403
  41.6728692  30.5785618  73.2887673  42.5773444  29.4513923  72.8378864
  45.5002142  26.2286554  77.3865339  44.7334537  25.6745041  77.5322022
  45.9112847  26.3008423  78.2479491  37.5043903  32.5171350  91.4770521
  38.3675364  32.1608155  91.6873845  36.9309313  32.1785245  92.1645925
  57.3492280  54.1473207  82.2832922  57.9870690  54.0279954  81.5796262
  57.2313122  55.0954051  82.3420874  54.1581986  54.1000635  82.2194446
  53.8200497  53.9841699  81.3314981  55.0271754  53.6991800  82.1995452
  50.0168802  55.9536111  78.2091337  49.4533667  55.8626048  77.4407625
  49.9021197  55.1336016  78.6893830  54.6401769  55.2535486  88.1780652
  54.6290410  54.8588285  87.3061156  54.8022408  54.5201559  88.7714423
  47.5633233  57.4487303  81.0475558  48.3554525  57.1078127  80.6321857
  47.8029884  57.5582278  81.9677711  51.3609030  58.0372598  87.1259836
  51.0698896  58.9418229  87.0106502  51.9966014  58.0789126  87.8403905
  52.2865237  55.4149447  83.7161196  52.8828809  55.1905469  83.0018158
  52.3440208  54.6734192  84.3186643  56.9033548  51.8724660  79.3586130
  57.6896637  51.4544084  79.0076547  57.1672252  52.7770753  79.5267778
  62.3041975  51.8099894  80.2619108  63.0367147  51.2399110  80.4956938
  61.5481331  51.4221494  80.7025614  53.9218095  54.2327135  77.4582451
  53.5576302  53.7057756  78.1695372  54.7785211  53.8425604  77.2848936
  59.8267396  45.5221468  84.7213717  59.4950720  46.3916879  84.4974932
  59.2313009  45.2057752  85.4007747  56.3198915  57.7234014  84.1209630
  56.0199638  58.6259053  84.0125437  55.9749975  57.4566197  84.9730782
  49.7711397  54.1747811  80.1546334  48.8461893  54.0424025  80.3624026
  50.0195810  54.9542030  80.6516276  59.7196059  50.2416554  81.8007067
  58.8112936  50.1731962  81.5065828  59.6683655  50.7188499  82.6288892
  53.7936925  51.6606200  89.7441964  53.0170259  52.2200120  89.7344829
  54.4327488  52.1462982  90.2656834  61.5857705  48.4432992  83.5784941
  60.9432086  48.7365525  82.9324735  61.0812634  48.3285913  84.3838137
  52.0483297  54.4691653  89.3059931  52.7897981  55.0076697  89.0294755
  51.3420282  55.0957942  89.4631483  57.5238637  56.6120793  87.9032093
  57.9321993  56.1703204  87.1586725  56.8015898  56.0373421  88.1566286
  53.8769707  51.5493400  85.2765650  54.7230902  51.9732814  85.4200299
  53.8168344  50.8927024  85.9704213  57.8467451  57.1721984  81.6584382
  57.2176314  57.3367698  80.9560449  57.4593113  57.5863594  82.4295346
  61.7256683  58.1076422  79.0128745  61.0407721  58.4875323  78.4625779
  61.8100532  58.7171748  79.7460693  57.0269152  49.2097768  86.9346823
  56.7830084  49.9639829  86.3981099  57.3029082  49.5883116  87.7694070
  58.9807615  55.7536381  85.6124089  59.1924510  56.3968141  84.9358470
  58.9337363  54.9198697  85.1446019  56.5833844  48.3654201  82.5160661
  55.7218323  48.6635455  82.8077399  56.6096278  48.5824600  81.5841694
  53.3995413  56.9096392  78.9234467  53.8633759  57.1884095  78.1339089
  53.1352211  56.0079837  78.7407557  50.2919494  56.4567874  81.8614230
  50.8620851  56.8855142  81.2231714  50.8827606  56.1750458  82.5598416
  52.3364299  53.0319544  75.7324032  53.0388343  53.4840588  76.1997958
  52.0044928  52.3903363  76.3603925  50.7844661  51.6231301  90.1075241
  50.1543321  52.3047582  90.3410638  50.6780749  51.5114383  89.1628379
  60.0953443  58.6308336  83.7846446  60.9170886  58.2288524  83.5029128
  60.0915846  58.5276570  84.7362562  53.8610046  58.1792380  85.9407157
  53.9254479  58.6412787  86.7765328  53.1520970  57.5489744  86.0689466
  68.1859436  54.9747085  80.1331418  67.4323144  54.4054483  79.9775422
  68.3206977  54.9409749  81.0802052  50.0625403  45.9252067  92.4700492
  49.6692349  45.3718265  93.1448136  50.8791544  46.2362645  92.8607010
  47.0287461  57.3635925  76.3814062  47.5411982  58.1579175  76.5319627
  47.6810174  56.6662216  76.3147664  52.9793364  47.3409946  90.0620749
  53.7203078  47.9417099  89.9825211  53.2111287  46.5987584  89.5038791
  48.1234702  52.5266313  88.3398978  48.0088218  51.6251570  88.6406077
  47.2679220  52.7730010  87.9883795  55.2026540  60.4684054  89.9386479
  54.7590394  59.6820432  89.6207384  55.8643754  60.6563204  89.2730370
  49.9613661  61.9979855  84.4647158  50.5121086  61.8696919  83.6924152
  49.1225137  62.2974744  84.1142050  57.3007778  60.7486853  87.9667880
  57.2826254  61.5695735  87.4748149  58.2227698  60.6240929  88.1918021
  53.7580832  58.2630983  88.8091389  54.2909169  57.5019271  88.5790697
  53.2294913  57.9704635  89.5515543  56.9250527  43.3691049  84.3385030
  56.5814797  44.2592691  84.2624141  57.2929490  43.1792707  83.4754615
  56.0047068  45.7395704  82.3034264  55.5011863  45.7025839  81.4902069
  56.2977675  46.6488447  82.3630920  52.2489954  45.8234434  81.3100445
  53.1142950  45.6277242  80.9506335  52.3167463  45.5944786  82.2369802
  61.8635084  56.1132015  74.7810639  61.0864527  55.7743174  74.3365801
  62.5426565  56.1184638  74.1065604  55.1233545  57.3916975  76.3210201
  54.5954907  56.6569735  76.0083438  54.6221048  58.1691652  76.0750169
  60.1026391  55.5865996  81.4377247  59.4450066  56.2765257  81.5257376
  60.9066790  55.9762428  81.7811233  58.9131850  53.9410369  79.4881189
  59.4263732  54.5740360  79.9902898  59.5633074  53.3411564  79.1224549
  55.3912681  51.4159824  81.7339529  54.4735242  51.6374771  81.5761217
  55.8072824  51.4906135  80.8751237  56.1747729  52.8151240  76.8642210
  56.9219547  53.3272637  76.5549332  56.4439318  52.4935293  77.7246603
  58.1226585  60.7592867  78.5510150  58.4149560  61.3197924  77.8322515
  58.6325206  61.0521428  79.3063309  58.7238193  42.6284608  79.4402768
  59.0297070  41.7681972  79.1528683  59.4490798  43.2202228  79.2401762
  52.9959273  52.9238401  79.9478959  53.0507883  51.9712238  79.8721436
  52.1850475  53.0797840  80.4320258  56.5325844  52.0057285  86.5384232
  56.8875232  52.2328759  87.3978698  57.1797976  52.3375662  85.9161487
  62.2623581  55.1275721  77.2433561  62.1241480  55.3177317  76.3154750
  61.9059800  55.8895104  77.7001612  50.4265707  49.1133816  83.3230573
  51.0665087  48.9722576  82.6253536  49.5943238  48.8268330  82.9469175
  62.2892961  57.1952248  82.2544832  62.7229468  57.1027537  83.1027887
  63.0024542  57.1709749  81.6164848  51.2026011  58.4136247  79.4365565
  51.9966610  57.9186567  79.2348140  50.4917704  57.8854110  79.0733271
  56.0220856  60.7954342  83.7877933  56.0757878  61.3645279  84.5555649
  55.1535637  60.9656227  83.4231970  48.9019249  50.4971899  85.2702384
  49.5742303  50.2889261  84.6215033  48.0749036  50.2993985  84.8307617
  63.1508510  57.2375949  84.7877718  63.3444401  58.1421759  85.0336993
  63.0509129  56.7783368  85.6216303  54.8044821  47.1233840  87.2868045
  54.1572736  47.8223789  87.1932522  55.5745837  47.5569983  87.6544293
  58.2123619  57.3882692  90.3618598  58.0609126  57.1593243  89.4448682
  58.2028299  58.3453293  90.3749944  54.9808956  54.9614604  85.3464865
  55.9101016  55.1125764  85.1733832  54.5599986  55.0498625  84.4913511
  53.7797287  58.9865269  83.1163403  53.6408373  58.6184053  83.9889341
  52.9911884  59.5012908  82.9447360  55.3302502  58.3646872  80.5052240
  54.9952335  58.3247642  81.4009890  54.8306448  57.6991587  80.0322651
  49.3046746  53.7714502  86.0304822  49.1666544  53.0394740  86.6316361
  50.2151670  53.6823402  85.7489009  51.9329047  53.4834461  85.5188501
  52.6428666  52.8427653  85.4775120  51.8898355  53.7347356  86.4414682
  59.9215826  60.4201814  88.4395080  59.8628372  59.7361034  87.7725663
  60.3235344  61.1620804  87.9875706  50.6457981  50.4699679  87.3384141
  50.1095338  50.0190417  87.9905737  50.0574690  50.6045588  86.5954605
  48.9406525  67.2363728  81.2328799  49.1803123  67.8682252  81.9107818
  48.0975721  66.8851768  81.5194159  59.9233233  58.3841398  86.6709060
  59.0360012  58.0467320  86.7935459  60.4931784  57.6524429  86.9077825
  46.3797102  49.6055686  84.4237135  46.2955291  48.9981356  83.6887545
  45.5579809  50.0964705  84.4246631  53.4534386  63.0442851  83.6370303
  53.3804558  63.8497822  84.1489608  53.0111780  63.2434816  82.8118325
  56.5520816  48.0909250  79.7907330  57.0489516  47.3379212  79.4708400
  55.7807798  48.1273567  79.2250539  64.4050574  53.7949616  81.4325622
  64.3940450  54.6774331  81.0619555  63.5367953  53.4421166  81.2380159
  55.9133070  62.9429685  85.7928462  56.6261042  63.5777149  85.7204363
  55.4223099  63.0393551  84.9768464  57.6350597  56.8480937  77.3645754
  56.7006876  56.9682400  77.1950458  57.8127265  55.9453404  77.1005763
  50.9644984  60.6924128  86.6134033  51.6654443  61.3260611  86.7663427
  50.4940099  61.0338860  85.8529672  58.9939811  45.0578844  81.9386689
  58.0802891  45.2883070  82.1068896  59.4232912  45.1417288  82.7900721
  58.7646269  53.2468735  84.4386583  58.1117720  53.4944643  83.7839036
  59.1426649  52.4332874  84.1049060  55.7253443  63.2828429  78.5414753
  55.9075838  62.4650085  79.0042506  56.5486429  63.4996121  78.1039643
  56.0595609  62.2096614  75.8029802  56.5883375  61.6989068  75.1899964
  56.3223828  61.8939144  76.6675335  54.8133842  53.9888547  90.9252620
  54.1374480  53.8882676  91.5954995  55.6361476  53.8327760  91.3888617
  46.5612702  60.2260483  83.5465135  47.1466138  59.4804171  83.6793040
  46.3637540  60.5364440  84.4301799  53.5556625  65.2955474  85.1610236
  54.1074933  65.4587095  85.9259321  53.8962819  65.8859912  84.4890261
  48.5321119  47.6430624  85.7632121  48.5962445  48.5045455  85.3509519
  48.4688239  47.0304625  85.0304479  48.0073391  49.7153756  89.4105155
  48.6345430  49.3330834  90.0242679  47.1501310  49.4967958  89.7760848
  58.4067500  60.1216731  91.0158891  58.9507404  60.7346690  90.5213845
  57.8254345  60.6796310  91.5325904  56.6925013  63.2437450  82.1473918
  56.5676152  62.4427189  81.6384864  57.3504104  63.7383643  81.6587888
  58.7559921  61.0446470  83.7753468  57.8090257  60.9251821  83.7031795
  59.1042694  60.1568968  83.8579730  51.1159494  46.9340609  87.5991710
  51.6393896  47.1802905  88.3618020  50.8971828  47.7660643  87.1794848
  55.7606354  60.8399186  79.9757821  55.6131317  59.9115893  80.1565391
  56.5859848  60.8619277  79.4914896  59.3640476  61.6627745  81.0622693
  60.2887024  61.4570606  80.9247145  59.1955780  61.4144146  81.9712035
  52.3212039  47.8754304  85.2841381  51.9808860  47.0762117  85.6862061
  51.6151046  48.1756014  84.7118214  52.9728511  44.9603616  83.7368704
  53.7954581  44.4864094  83.6147594  53.2166575  45.7394100  84.2367390
  50.4967090  51.6522737  81.5460682  50.3511671  51.9663040  82.4384964
  50.0192294  52.2707637  80.9931581  52.3563473  48.6425285  81.5941572
  52.3425042  47.7466378  81.2573870  53.0735901  48.6495948  82.2279858
  54.2089604  49.0762625  83.6394699  53.9507381  49.9979696  83.6379030
  53.6774644  48.6793059  84.3295164  59.1535792  62.1813412  76.4184785
  59.3272670  61.6159834  75.6658637  59.6464684  62.9814307  76.2364275
  44.9712752  54.1928081  84.4848344  44.4266220  54.9687889  84.6168618
  45.8492102  54.5398886  84.3267465  54.6291559  45.2094575  79.9995862
  54.6513256  45.2733908  79.0447842  55.0459618  44.3699084  80.1936368
  65.0075184  54.9449835  78.0375085  65.4506330  54.1957160  77.6394208
  64.1301694  54.9359971  77.6548817  45.7578774  53.3197977  87.3778501
  45.0160510  53.4680613  87.9643131  45.4371518  53.5806243  86.5145250
  53.7022437  62.8613956  87.1758891  54.0109563  62.6163102  88.0481590
  54.4997919  63.0660594  86.6877761  46.2035388  61.2063406  79.4088895
  47.0293408  60.9067178  79.0287539  45.8529440  60.4371029  79.8578684
  51.1716921  60.5589874  81.4786569  50.5496930  59.8960579  81.1788797
  51.8421788  60.5851006  80.7960217  44.4043993  59.1249733  80.3677829
  43.5675901  58.6971907  80.1861830  44.3767638  59.3182176  81.3048620
  51.2441448  49.0371662  91.0719075  51.2929604  49.9133785  90.6896844
  51.7863963  48.4949055  90.4990718  61.7296294  59.5812786  90.3520212
  60.9391838  59.5636924  89.8124711  61.4929649  60.1201079  91.1069248
  61.8494169  56.4305252  87.6652940  61.8992174  56.2655259  88.6068463
  61.7408092  55.5632511  87.2750821  59.1397932  52.4136180  88.9812247
  60.0407794  52.2742645  88.6896245  59.2145906  52.5790635  89.9210425
  53.4740737  49.7903035  87.8265433  52.6044046  50.0836601  87.5548022
  53.7100217  50.3743480  88.5472697  63.3512366  58.8502193  87.9094962
  63.0597174  59.2132174  88.7458423  62.7384497  58.1369202  87.7308294
  64.5508048  56.4155073  80.4297532  65.3854940  56.8544877  80.5935093
  64.6867177  55.9393726  79.6105778  61.5999554  53.9734808  86.3775020
  62.0753676  54.1662454  85.5693871  60.6765120  54.0293994  86.1318404
  48.4883061  55.1358975  75.9606098  48.2429103  54.2321305  76.1586308
  48.6578975  55.1376126  75.0185576  56.1779771  46.0082652  85.3430854
  56.6961715  46.7443679  85.0177342  55.8234903  46.3146645  86.1777613
  56.4292365  42.4282934  80.8631750  56.7094119  41.7606123  81.4892177
  57.2142972  42.6212030  80.3506414  60.3001223  50.8500568  84.6103326
  61.2518646  50.9498666  84.6315550  60.1304674  50.0578837  85.1201410
  58.3215603  47.9356151  84.7962726  57.7265535  48.2161164  84.1009215
  58.0365299  48.4250052  85.5679468  62.7789301  54.0706688  83.7245625
  62.7465621  53.1322689  83.9105309  63.3889925  54.1490725  82.9911450
  62.9283789  50.8617731  83.7703908  62.4122838  50.0776188  83.5833837
  63.8123738  50.5336448  83.9350428  60.5894516  44.6058747  79.7299721
  60.3919338  44.2973835  80.6143053  61.1994222  45.3320386  79.8597651
  68.5965851  55.1322695  82.8651662  69.3269239  54.8707983  83.4259365
  67.9872796  54.3951417  82.9053730  66.6781148  53.2730557  83.4626113
  65.9514312  53.1386522  82.8542605  66.2628435  53.5807386  84.2682831
  54.5011324  56.9920487  91.2273486  55.4214334  57.1699086  91.4213533
  54.4660907  56.0476532  91.0753185  47.4973397  54.9021522  83.8696267
  47.7159407  55.8338629  83.8884301  47.9099171  54.5429496  84.6551071
  52.3701262  50.4754727  93.2599016  52.2697989  51.4249084  93.1911107
  52.1522804  50.1472966  92.3875086  43.5881749  55.8061992  82.1219882
  42.8945221  55.3915945  81.6089837  44.3354740  55.8482529  81.5253301
  52.2332532  53.9051866  92.0764078  51.7499614  54.7052226  92.2827967
  52.3193471  53.9159811  91.1231522  45.5018492  55.7380246  79.9985897
  45.4789180  55.8367933  79.0467780  45.8119128  56.5845397  80.3203063
  48.1605870  57.7956401  84.1132512  49.1149123  57.7640343  84.0462443
  47.9618393  57.3347025  84.9282738  48.7505252  56.3657517  86.6803309
  49.5698141  56.8601596  86.7038147  49.0242060  55.4489485  86.6520877
  64.2958943  49.4942409  80.8159545  64.8903434  49.2538145  80.1052853
  64.3685527  48.7749540  81.4433081  46.5156099  63.3376020  81.1302710
  46.3810566  62.5776421  80.5640708  46.0988161  64.0616920  80.6631498
  66.6030016  52.8008610  79.5902966  66.0429574  52.8701800  80.3634528
  65.9973519  52.6249595  78.8702462  44.0040166  50.6995651  87.3795506
  44.6499030  50.1894605  87.8682732  43.7957317  51.4364332  87.9538932
  56.5293558  57.7676498  92.8787647  57.3984718  57.9417151  92.5174282
  56.0500310  58.5870915  92.7563376  50.6979739  64.8873599  84.5577081
  51.6006985  64.9197210  84.8743576  50.4717109  63.9574050  84.5723416
  56.3395896  41.5578472  77.3865339  55.5728292  41.0036959  77.5322022
  56.7506601  41.6300341  78.2479491  48.3437657  47.8463268  91.4770521
  49.2069119  47.4900073  91.6873845  47.7703068  47.5077163  92.1645925
  68.1886034  69.4765124  82.2832922  68.8264444  69.3571872  81.5796262
  68.0706877  70.4245968  82.3420874  64.9975740  69.4292552  82.2194446
  64.6594252  69.3133617  81.3314981  65.8665509  69.0283717  82.1995452
  65.4795523  70.5827404  88.1780652  65.4684164  70.1880202  87.3061156
  65.6416163  69.8493477  88.7714423  58.4026988  72.7779220  81.0475558
  59.1948280  72.4370045  80.6321857  58.6423638  72.8874195  81.9677711
  66.4362115  74.9498996  73.5205802  65.7850095  75.5353077  73.1339816
  67.2306478  75.4805191  73.5800840  62.2002784  73.3664516  87.1259836
  61.9092650  74.2710147  87.0106502  62.8359769  73.4081044  87.8403905
  63.1258991  70.7441364  83.7161196  63.7222564  70.5197387  83.0018158
  63.1833963  70.0026110  84.3186643  67.7427303  67.2016578  79.3586130
  68.5290392  66.7836001  79.0076547  68.0066007  68.1062670  79.5267778
  67.9137380  72.6389428  74.0574787  67.2783213  72.7124055  74.7695691
  67.5834786  73.2283027  73.3793866  73.1435730  67.1391811  80.2619108
  73.8760902  66.5691028  80.4956938  72.3875085  66.7513412  80.7025614
  70.6661150  60.8513385  84.7213717  70.3344475  61.7208796  84.4974932
  70.0706763  60.5349669  85.4007747  67.1592670  73.0525931  84.1209630
  66.8593393  73.9550970  84.0125437  66.8143729  72.7858115  84.9730782
  70.5589813  65.5708472  81.8007067  69.6506691  65.5023880  81.5065828
  70.5077409  66.0480417  82.6288892  57.9713962  69.1473002  80.9890123
  58.1006343  69.4007481  81.9029535  57.2911413  69.7400710  80.6694778
  64.6330679  66.9898117  89.7441964  63.8564013  67.5492037  89.7344829
  65.2721242  67.4754900  90.2656834  72.4251460  63.7724910  83.5784941
  71.7825840  64.0657443  82.9324735  71.9206388  63.6577830  84.3838137
  70.0791623  67.5188083  74.2670800  70.9909480  67.7515470  74.0918498
  69.5701270  68.1025127  73.7045879  62.8877051  69.7983571  89.3059931
  63.6291736  70.3368615  89.0294755  62.1814037  70.4249859  89.4631483
  68.3632391  71.9412711  87.9032093  68.7715747  71.4995122  87.1586725
  67.6409653  71.3665339  88.1566286  64.7163461  66.8785318  85.2765650
  65.5624656  67.3024731  85.4200299  64.6562099  66.2218942  85.9704213
  68.6861206  72.5013902  81.6584382  68.0570068  72.6659616  80.9560449
  68.2986868  72.9155511  82.4295346  72.5650438  73.4368339  79.0128745
  71.8801476  73.8167241  78.4625779  72.6494287  74.0463666  79.7460693
  67.8662906  64.5389686  86.9346823  67.6223838  65.2931747  86.3981099
  68.1422837  64.9175034  87.7694070  69.8201369  71.0828299  85.6124089
  70.0318264  71.7260058  84.9358470  69.7731117  70.2490615  85.1446019
  67.4227598  63.6946119  82.5160661  66.5612077  63.9927373  82.8077399
  67.4490033  63.9116518  81.5841694  64.2389168  72.2388310  78.9234467
  64.7027513  72.5176013  78.1339089  63.9745966  71.3371754  78.7407557
  61.1313249  71.7859791  81.8614230  61.7014606  72.2147060  81.2231714
  61.7221361  71.5042376  82.5598416  61.6238415  66.9523219  90.1075241
  60.9937076  67.6339500  90.3410638  61.5174503  66.8406300  89.1628379
  70.9347197  73.9600254  83.7846446  71.7564641  73.5580441  83.5029128
  70.9309600  73.8568488  84.7362562  64.7003801  73.5084297  85.9407157
  64.7648233  73.9704704  86.7765328  63.9914725  72.8781662  86.0689466
  55.2021091  66.8725505  83.4656156  55.4529129  67.7572515  83.7313732
  55.7380639  66.6930107  82.6931248  79.0253190  70.3039002  80.1331418
  78.2716899  69.7346400  79.9775422  79.1600731  70.2701667  81.0802052
  64.4151818  75.1752405  75.8086137  64.2797493  76.0203940  76.2370985
  64.9561631  75.3771682  75.0452071  60.9019158  61.2543985  92.4700492
  60.5086103  60.7010183  93.1448136  61.7185298  61.5654563  92.8607010
  63.8187119  62.6701864  90.0620749  64.5596832  63.2709017  89.9825211
  64.0505042  61.9279501  89.5038791  58.9628457  67.8558231  88.3398978
  58.8481972  66.9543488  88.6406077  58.1072975  68.1021928  87.9883795
  66.0420295  75.7975971  89.9386479  65.5984149  75.0112350  89.6207384
  66.7037508  75.9855122  89.2730370  60.8007416  77.3271773  84.4647158
  61.3514841  77.1988836  83.6924152  59.9618892  77.6266662  84.1142050
  68.1401533  76.0778771  87.9667880  68.1220008  76.8987652  87.4748149
  69.0621453  75.9532846  88.1918021  64.5974587  73.5922901  88.8091389
  65.1302924  72.8311189  88.5790697  64.0688668  73.2996552  89.5515543
  67.7644282  58.6982967  84.3385030  67.4208551  59.5884608  84.2624141
  68.1323244  58.5084624  83.4754615  67.7294565  68.6891578  72.8457466
  67.2141188  69.4596182  73.0845853  67.4571873  68.0156714  73.4690527
  65.3141676  63.5341278  77.9042704  64.4583272  63.1448129  77.7248343
  65.7268627  63.6133239  77.0442489  66.8440822  61.0687622  82.3034264
  66.3405618  61.0317757  81.4902069  67.1371429  61.9780364  82.3630920
  63.0883708  61.1526351  81.3100445  63.9536705  60.9569160  80.9506335
  63.1561217  60.9236703  82.2369802  72.7028839  71.4423932  74.7810639
  71.9258281  71.1035092  74.3365801  73.3820320  71.4476556  74.1065604
  67.5180868  66.5618670  74.6717247  67.2131003  66.8764819  75.5227390
  68.4711310  66.6400090  74.7144580  65.9627300  72.7208893  76.3210201
  65.4348661  71.9861653  76.0083438  65.4614802  73.4983569  76.0750169
  70.9420146  70.9157914  81.4377247  70.2843820  71.6057175  81.5257376
  71.7460545  71.3054346  81.7811233  60.6946027  63.3828559  78.6816812
  61.2689779  63.1603741  77.9490005  61.2817010  63.4517254  79.4345414
  69.7525604  69.2702286  79.4881189  70.2657486  69.9032278  79.9902898
  70.4026828  68.6703482  79.1224549  62.9968695  60.2569808  77.4091882
  62.3433107  59.9418825  76.7848496  62.9549169  59.6345549  78.1351705
  67.0147979  79.2486611  72.2441860  66.3409677  79.5518307  72.8526818
  67.4013801  80.0515691  71.8947317  66.2306435  66.7451742  81.7339529
  65.3128997  66.9666689  81.5761217  66.6466579  66.8198052  80.8751237
  67.0141483  68.1443158  76.8642210  67.7613302  68.6564555  76.5549332
  67.2833073  67.8227210  77.7246603  65.2868133  70.6401698  73.8469164
  64.3779352  70.3560731  73.9441634  65.3163217  71.0600777  72.9872471
  70.5187401  74.2508288  77.6160331  70.0649728  73.4099198  77.6725522
  69.8881367  74.8869686  77.9535112  69.4620320  65.1800274  78.8460999
  68.7243077  64.6677660  79.1771241  69.7147094  64.7400655  78.0344276
  68.9620340  76.0884784  78.5510150  69.2543314  76.6489842  77.8322515
  69.4718960  76.3813345  79.3063309  69.5631947  57.9576526  79.4402768
  69.8690824  57.0973889  79.1528683  70.2884552  58.5494146  79.2401762
  63.8353027  68.2530319  79.9478959  63.8901637  67.3004155  79.8721436
  63.0244229  68.4089758  80.4320258  63.9253965  76.8665136  79.6403603
  63.8830144  77.0925982  78.7112135  64.8416664  76.6328510  79.7889404
  67.3719599  67.3349203  86.5384232  67.7268987  67.5620676  87.3978698
  68.0191730  67.6667580  85.9161487  73.1017336  70.4567639  77.2433561
  72.9635234  70.6469235  76.3154750  72.7453555  71.2187022  77.7001612
  61.2659462  64.4425734  83.3230573  61.9058841  64.3014493  82.6253536
  60.4336992  64.1560248  82.9469175  73.1286715  72.5244166  82.2544832
  73.5623222  72.4319455  83.1027887  73.8418296  72.5001666  81.6164848
  62.0419766  73.7428165  79.4365565  62.8360364  73.2478485  79.2348140
  61.3311458  73.2146028  79.0733271  66.8614610  76.1246260  83.7877933
  66.9151633  76.6937196  84.5555649  65.9929392  76.2948145  83.4231970
  58.2688078  64.4126059  78.1003560  58.5294896  65.3271392  77.9912720
  59.0905251  63.9450502  78.2500173  59.7413004  65.8263816  85.2702384
  60.4136057  65.6181178  84.6215033  58.9142790  65.6285902  84.8307617
  73.9902265  72.5667867  84.7877718  74.1838155  73.4713677  85.0336993
  73.8902883  72.1075286  85.6216303  65.6438576  62.4525757  87.2868045
  64.9966491  63.1515707  87.1932522  66.4139591  62.8861901  87.6544293
  69.0517374  72.7174609  90.3618598  68.9002880  72.4885161  89.4448682
  69.0422053  73.6745211  90.3749944  65.8202710  70.2906522  85.3464865
  66.7494770  70.4417682  85.1733832  65.3993740  70.3790543  84.4913511
  64.6191042  74.3157187  83.1163403  64.4802128  73.9475971  83.9889341
  63.8305638  74.8304826  82.9447360  65.2139194  79.4166283  74.4588939
  65.3890949  78.9454326  75.2734562  64.5271982  80.0432049  74.6870200
  66.1696257  73.6938789  80.5052240  65.8346090  73.6539559  81.4009890
  65.6700203  73.0283505  80.0322651  60.1440501  69.1006419  86.0304822
  60.0060299  68.3686658  86.6316361  61.0545424  69.0115319  85.7489009
  62.7722802  68.8126379  85.5188501  63.4822420  68.1719571  85.4775120
  62.7292110  69.0639273  86.4414682  70.7609580  75.7493732  88.4395080
  70.7022126  75.0652952  87.7725663  71.1629099  76.4912722  87.9875706
  61.4851736  65.7991596  87.3384141  60.9489093  65.3482335  87.9905737
  60.8968444  65.9337505  86.5954605  59.7800279  82.5655646  81.2328799
  60.0196877  83.1974170  81.9107818  58.9369476  82.2143686  81.5194159
  70.7626988  73.7133316  86.6709060  69.8753766  73.3759238  86.7935459
  71.3325539  72.9816347  86.9077825  57.2190857  64.9347604  84.4237135
  57.1349046  64.3273274  83.6887545  56.3973563  65.4256622  84.4246631
  64.2928141  78.3734768  83.6370303  64.2198312  79.1789740  84.1489608
  63.8505534  78.5726734  82.8118325  64.0817921  77.6106538  77.1473125
  63.2985442  78.1528218  77.2411349  64.7810666  78.1280518  77.5467366
  67.3914571  63.4201168  79.7907330  67.8883270  62.6671130  79.4708400
  66.6201552  63.4565484  79.2250539  75.2444328  69.1241533  81.4325622
  75.2334204  70.0066249  81.0619555  74.3761708  68.7713084  81.2380159
  66.7526824  78.2721602  85.7928462  67.4654797  78.9069067  85.7204363
  66.2616853  78.3685468  84.9768464  68.4744351  72.1772855  77.3645754
  67.5400630  72.2974317  77.1950458  68.6521020  71.2745322  77.1005763
  63.9749539  65.5618551  79.5179015  63.6047327  65.0089591  80.2059920
  64.4708632  64.9576684  78.9654015  71.8616903  68.0190174  77.8995788
  72.3277355  68.8518166  77.8256090  72.3124403  67.5535156  78.6041046
  61.8038738  76.0216046  86.6134033  62.5048197  76.6552529  86.7663427
  61.3333853  76.3630777  85.8529672  69.9293134  74.3633995  74.8981940
  70.2052978  74.2490590  75.8075814  69.0597633  73.9651480  74.8594113
  69.8333565  60.3870761  81.9386689  68.9196645  60.6174988  82.1068896
  70.2626667  60.4709205  82.7900721  69.6040024  68.5760653  84.4386583
  68.9511474  68.8236561  83.7839036  69.9820404  67.7624791  84.1049060
  66.5647198  78.6120346  78.5414753  66.7469592  77.7942002  79.0042506
  67.3880184  78.8288039  78.1039643  66.8989363  77.5388531  75.8029802
  67.4277130  77.0280986  75.1899964  67.1617583  77.2231062  76.6675335
  65.6527597  69.3180464  90.9252620  64.9768234  69.2174594  91.5954995
  66.4755231  69.1619678  91.3888617  57.4006456  75.5552401  83.5465135
  57.9859893  74.8096089  83.6793040  57.2031295  75.8656357  84.4301799
  64.3950380  80.6247392  85.1610236  64.9468688  80.7879013  85.9259321
  64.7356573  81.2151829  84.4890261  59.3714873  62.9722541  85.7632121
  59.4356200  63.8337372  85.3509519  59.3081993  62.3596543  85.0304479
  58.8467146  65.0445674  89.4105155  59.4739184  64.6622751  90.0242679
  57.9895064  64.8259876  89.7760848  69.2461254  75.4508649  91.0158891
  69.7901158  76.0638607  90.5213845  68.6648099  76.0088228  91.5325904
  67.5318767  78.5729367  82.1473918  67.4069907  77.7719107  81.6384864
  68.1897858  79.0675561  81.6587888  59.1526935  64.9278100  81.3251059
  58.4313521  65.5414067  81.1858532  59.9420191  65.4635865  81.2467704
  69.5953676  76.3738387  83.7753468  68.6484011  76.2543738  83.7031795
  69.9436449  75.4860885  83.8579730  61.9553249  62.2632526  87.5991710
  62.4787651  62.5094823  88.3618020  61.7365582  63.0952561  87.1794848
  66.6000109  76.1691103  79.9757821  66.4525071  75.2407811  80.1565391
  67.4253602  76.1911194  79.4914896  70.2034231  76.9919662  81.0622693
  71.1280778  76.7862524  80.9247145  70.0349534  76.7436063  81.9712035
  63.1605794  63.2046221  85.2841381  62.8202614  62.4054034  85.6862061
  62.4544800  63.5047932  84.7118214  63.8122266  60.2895534  83.7368704
  64.6348335  59.8156012  83.6147594  64.0560329  61.0686017  84.2367390
  66.5961623  64.0228941  74.9689938  66.8125238  64.9053579  74.6678766
  66.1155690  63.6315155  74.2395580  61.3360845  66.9814654  81.5460682
  61.1905425  67.2954957  82.4384964  60.8586048  67.5999555  80.9931581
  63.1957227  63.9717202  81.5941572  63.1818796  63.0758296  81.2573870
  63.9129656  63.9787866  82.2279858  65.0483358  64.4054543  83.6394699
  64.7901136  65.3271613  83.6379030  64.5168398  64.0084977  84.3295164
  69.9929547  77.5105330  76.4184785  70.1666424  76.9451752  75.6658637
  70.4858438  78.3106225  76.2364275  55.8106507  69.5219999  84.4848344
  55.2659975  70.2979807  84.6168618  56.6885857  69.8690803  84.3267465
  62.5994123  62.8531583  76.8629142  62.7210035  61.9248229  77.0620030
  62.3096166  62.8670269  75.9507458  65.4685314  60.5386493  79.9995862
  65.4907011  60.6025826  79.0447842  65.8853373  59.6991002  80.1936368
  75.8468938  70.2741753  78.0375085  76.2900084  69.5249078  77.6394208
  74.9695448  70.2651889  77.6548817  70.9804719  76.8272094  73.5181683
  71.6755624  77.4478787  73.7368998  71.3227870  75.9767445  73.7934061
  56.5972529  68.6489895  87.3778501  55.8554265  68.7972530  87.9643131
  56.2765273  68.9098161  86.5145250  72.8796142  74.2771800  75.0469014
  73.4047467  74.6159072  74.3218334  72.7918495  73.3418815  74.8632149
  64.5416191  78.1905873  87.1758891  64.8503318  77.9455020  88.0481590
  65.3391673  78.3952512  86.6877761  64.5636803  80.3443783  79.4064267
  64.1241794  79.8520162  80.0997124  65.3144920  79.8016751  79.1656342
  62.0110675  75.8881792  81.4786569  61.3890685  75.2252497  81.1788797
  62.6815542  75.9142924  80.7960217  62.0835203  64.3663580  91.0719075
  62.1323358  65.2425703  90.6896844  62.6257717  63.8240973  90.4990718
  72.5690049  74.9104703  90.3520212  71.7785592  74.8928842  89.8124711
  72.3323403  75.4492997  91.1069248  72.6887924  71.7597170  87.6652940
  72.7385929  71.5947177  88.6068463  72.5801847  70.8924429  87.2750821
  69.9791686  67.7428098  88.9812247  70.8801549  67.6034562  88.6896245
  70.0539661  67.9082552  89.9210425  64.3134491  65.1194952  87.8265433
  63.4437801  65.4128518  87.5548022  64.5493972  65.7035397  88.5472697
  74.1906120  74.1794111  87.9094962  73.8990929  74.5424092  88.7458423
  73.5778252  73.4661119  87.7308294  75.3901803  71.7446991  80.4297532
  76.2248694  72.1836795  80.5935093  75.5260932  71.2685644  79.6105778
  72.4393309  69.3026726  86.3775020  72.9147430  69.4954372  85.5693871
  71.5158874  69.3585912  86.1318404  67.0173525  61.3374569  85.3430854
  67.5355469  62.0735596  85.0177342  66.6628658  61.6438563  86.1777613
  67.2686119  57.7574852  80.8631750  67.5487873  57.0898041  81.4892177
  68.0536726  57.9503947  80.3506414  71.1394978  66.1792486  84.6103326
  72.0912401  66.2790584  84.6315550  70.9698428  65.3870754  85.1201410
  69.1609357  63.2648069  84.7962726  68.5659289  63.5453082  84.1009215
  68.8759054  63.7541970  85.5679468  68.2916848  77.2170996  73.5565359
  69.2247521  77.1516558  73.7598234  68.2040060  78.0527263  73.0979892
  73.6183055  69.3998606  83.7245625  73.5859376  68.4614606  83.9105309
  74.2283679  69.4782642  82.9911450  65.4566386  68.2694659  69.7672829
  66.4025491  68.1400867  69.8361247  65.0780631  67.5309320  70.2442257
  73.7677544  66.1909649  83.7703908  73.2516593  65.4068106  83.5833837
  74.6517492  65.8628366  83.9350428  71.4288271  59.9350665  79.7299721
  71.2313092  59.6265753  80.6143053  72.0387976  60.6612303  79.8597651
  79.4359605  70.4614612  82.8651662  80.1662994  70.1999901  83.4259365
  78.8266551  69.7243334  82.9053730  77.5174902  68.6022475  83.4626113
  76.7908066  68.4678440  82.8542605  77.1022189  68.9099304  84.2682831
  65.3405079  72.3212405  91.2273486  66.2608088  72.4991004  91.4213533
  65.3054662  71.3768450  91.0753185  58.3367151  70.2313439  83.8696267
  58.5553161  71.1630547  83.8884301  58.7492925  69.8721414  84.6551071
  67.1861917  59.8159571  77.4796252  67.7392956  60.2355025  78.1386275
  67.4232004  58.8895320  77.5219208  63.2095017  65.8046645  93.2599016
  63.1091744  66.7541002  93.1911107  62.9916559  65.4764884  92.3875086
  70.5640725  61.9260097  76.9874917  69.9839394  62.5844901  76.6052969
  70.2976657  61.1037441  76.5762334  69.0144291  61.3265154  79.1896237
  69.5144069  61.4381689  78.3810556  69.6579899  61.0226207  79.8297045
  63.0726287  69.2343784  92.0764078  62.5893368  70.0344144  92.2827967
  63.1587226  69.2451729  91.1231522  58.9999624  73.1248319  84.1132512
  59.9542878  73.0932261  84.0462443  58.8012148  72.6638942  84.9282738
  59.5899006  71.6949435  86.6803309  60.4091895  72.1893513  86.7038147
  59.8635814  70.7781403  86.6520877  69.3465603  64.0860187  76.0431265
  68.4591458  64.3709838  75.8251460  69.7619592  63.9253950  75.1958542
  72.6980139  64.1106708  79.7585604  73.4740529  64.6003160  80.0310221
  71.9728273  64.5364762  80.2157474  75.1352697  64.8234327  80.8159545
  75.7297188  64.5830063  80.1052853  75.2079281  64.1041458  81.4433081
  57.3549853  78.6667938  81.1302710  57.2204321  77.9068339  80.5640708
  56.9381915  79.3908838  80.6631498  69.3206626  69.6014723  76.2581555
  69.2641828  70.0583274  75.4189187  69.8734969  68.8405407  76.0804398
  73.1311432  65.3904455  77.0831675  72.8748366  64.9901090  77.9139882
  72.5064300  66.1048249  76.9581814  77.4423770  68.1300528  79.5902966
  76.8823328  68.1993717  80.3634528  76.8367273  67.9541513  78.8702462
  60.5118979  79.5637255  81.3421152  60.3951363  80.5082688  81.2399842
  59.6911425  79.2610817  81.7306951  70.0541406  70.7919504  73.5534084
  69.9990209  70.6263776  72.6122528  69.4287461  71.4995537  73.7096274
  54.8433921  66.0287569  87.3795506  55.4892784  65.5186522  87.8682732
  54.6351072  66.7656250  87.9538932  67.3687313  73.0968416  92.8787647
  68.2378472  73.2709068  92.5174282  66.8894064  73.9162833  92.7563376
  61.5373493  80.2165517  84.5577081  62.4400740  80.2489127  84.8743576
  61.3110863  79.2865968  84.5723416  63.2927095  78.9696504  81.2187159
  62.3422726  78.9698365  81.1051532  63.5959581  78.2229238  80.7023194
  67.1789651  56.8870390  77.3865339  66.4122046  56.3328876  77.5322022
  67.5900356  56.9592259  78.2479491  59.1831412  63.1755186  91.4770521
  60.0462873  62.8191990  91.6873845  58.6096822  62.8369080  92.1645925
  79.0279789  84.8057042  82.2832922  79.6658199  84.6863789  81.5796262
  78.9100631  85.7537886  82.3420874  75.8369495  84.7584470  82.2194446
  75.4988006  84.6425535  81.3314981  76.7059263  84.3575635  82.1995452
  71.6956311  86.6119946  78.2091337  71.1321176  86.5209883  77.4407625
  71.5808706  85.7919851  78.6893830  76.3189278  85.9119322  88.1780652
  76.3077919  85.5172120  87.3061156  76.4809917  85.1785394  88.7714423
  69.2420742  88.1071138  81.0475558  70.0342034  87.7661963  80.6321857
  69.4817393  88.2166113  81.9677711  77.2755869  90.2790914  73.5205802
  76.6243849  90.8644995  73.1339816  78.0700232  90.8097109  73.5800840
  71.2011496  87.3680051  73.9192937  71.9742372  86.8209038  73.7805812
  71.5536895  88.2324301  74.1307398  73.0396539  88.6956434  87.1259836
  72.7486405  89.6002064  87.0106502  73.6753523  88.7372961  87.8403905
  73.9652746  86.0733282  83.7161196  74.5616318  85.8489305  83.0018158
  74.0227717  85.3318028  84.3186643  73.5377774  83.5272717  71.5511386
  73.7903295  83.0054239  70.7894849  72.6002333  83.3638863  71.6538070
  78.5821057  82.5308496  79.3586130  79.3684146  82.1127919  79.0076547
  78.8459761  83.4354588  79.5267778  78.7531134  87.9681346  74.0574787
  78.1176967  88.0415973  74.7695691  78.4228541  88.5574945  73.3793866
  83.9829484  82.4683729  80.2619108  84.7154656  81.8982946  80.4956938
  83.2268840  82.0805329  80.7025614  73.2574063  85.4300823  73.7535761
  73.1410321  84.7545727  74.4216846  73.3676323  84.9433197  72.9367914
  75.6005604  84.8910970  77.4582451  75.2363811  84.3641591  78.1695372
  76.4572720  84.5009440  77.2848936  81.5054905  76.1805303  84.7213717
  81.1738229  77.0500714  84.4974932  80.9100518  75.8641587  85.4007747
  75.2411091  79.9200870  72.4543799  75.4085493  80.7881107  72.8214270
  75.0508260  80.0828152  71.5305088  77.9986424  88.3817849  84.1209630
  77.6987147  89.2842888  84.0125437  77.6537484  88.1150032  84.9730782
  71.4498906  84.8331646  80.1546334  70.5249402  84.7007860  80.3624026
  71.6983319  85.6125865  80.6516276  81.3983568  80.9000389  81.8007067
  80.4900445  80.8315798  81.5065828  81.3471164  81.3772334  82.6288892
  75.2200312  82.3758528  73.4390466  75.0999937  82.8215578  74.2775946
  74.5252900  82.7243845  72.8804004  68.8107717  84.4764919  80.9890123
  68.9400098  84.7299398  81.9029535  68.1305168  85.0692627  80.6694778
  72.9807204  95.1462169  77.0880597  72.9031234  96.0969995  77.1669078
  72.3768847  94.8008042  77.7455524  75.4724434  82.3190035  89.7441964
  74.6957768  82.8783955  89.7344829  76.1114997  82.8046818  90.2656834
  83.2645214  79.1016828  83.5784941  82.6219594  79.3949361  82.9324735
  82.7600143  78.9869748  84.3838137  80.9185378  82.8480001  74.2670800
  81.8303234  83.0807388  74.0918498  80.4095025  83.4317045  73.7045879
  73.7270806  85.1275488  89.3059931  74.4685490  85.6660532  89.0294755
  73.0207791  85.7541777  89.4631483  79.2026146  87.2704629  87.9032093
  79.6109502  86.8287039  87.1586725  78.4803407  86.6957256  88.1566286
  75.5557216  82.2077235  85.2765650  76.4018411  82.6316649  85.4200299
  75.4955853  81.5510860  85.9704213  79.5254960  87.8305819  81.6584382
  78.8963823  87.9951533  80.9560449  79.1380622  88.2447429  82.4295346
  83.4044192  88.7660257  79.0128745  82.7195230  89.1459159  78.4625779
  83.4888041  89.3755584  79.7460693  78.7056661  79.8681604  86.9346823
  78.4617593  80.6223664  86.3981099  78.9816591  80.2466951  87.7694070
  80.6595124  86.4120216  85.6124089  80.8712019  87.0551976  84.9358470
  80.6124872  85.5782533  85.1446019  78.2621353  79.0238037  82.5160661
  77.4005832  79.3219290  82.8077399  78.2883787  79.2408436  81.5841694
  75.0782922  87.5680227  78.9234467  75.5421268  87.8467930  78.1339089
  74.8139720  86.6663672  78.7407557  71.9707003  87.1151709  81.8614230
  72.5408360  87.5438977  81.2231714  72.5615115  86.8334294  82.5598416
  74.0151808  83.6903380  75.7324032  74.7175851  84.1424423  76.1997958
  73.6832437  83.0487199  76.3603925  72.4632170  82.2815136  90.1075241
  71.8330830  82.9631417  90.3410638  72.3568258  82.1698218  89.1628379
  67.7577142  81.9486932  81.0341165  66.9676196  82.2044461  80.5581276
  68.2488389  82.7635270  81.1393206  81.7740952  89.2892172  83.7846446
  82.5958395  88.8872359  83.5029128  81.7703355  89.1860406  84.7362562
  69.7091887  82.3131512  77.9924642  68.9123051  82.4250206  78.5108138
  69.4817480  82.6518164  77.1265533  75.5397555  88.8376215  85.9407157
  75.6041988  89.2996622  86.7765328  74.8308479  88.2073580  86.0689466
  66.0414845  82.2017423  83.4656156  66.2922884  83.0864433  83.7313732
  66.5774393  82.0222024  82.6931248  89.8646945  85.6330920  80.1331418
  89.1110653  85.0638318  79.9775422  89.9994486  85.5993585  81.0802052
  75.2545573  90.5044322  75.8086137  75.1191248  91.3495858  76.2370985
  75.7955385  90.7063600  75.0452071  71.7412912  76.5835902  92.4700492
  71.3479858  76.0302101  93.1448136  72.5579053  76.8946481  92.8607010
  68.7074970  88.0219760  76.3814062  69.2199491  88.8163011  76.5319627
  69.3597683  87.3246051  76.3147664  70.5169855  91.1385517  78.4636815
  70.6936483  92.0603481  78.2757799  71.3126688  90.8243936  78.8931195
  74.6580873  77.9993781  90.0620749  75.3990587  78.6000934  89.9825211
  74.8898796  77.2571419  89.5038791  69.8022211  83.1850149  88.3398978
  69.6875727  82.2835406  88.6406077  68.9466729  83.4313845  87.9883795
  76.8814049  91.1267889  89.9386479  76.4377903  90.3404267  89.6207384
  77.5431263  91.3147039  89.2730370  71.6401170  92.6563690  84.4647158
  72.1908595  92.5280754  83.6924152  70.8012646  92.9558580  84.1142050
  78.9795287  91.4070689  87.9667880  78.9613763  92.2279570  87.4748149
  79.9015207  91.2824764  88.1918021  75.4368341  88.9214818  88.8091389
  75.9696678  88.1603107  88.5790697  74.9082422  88.6288470  89.5515543
  78.6038036  74.0274884  84.3385030  78.2602306  74.9176526  84.2624141
  78.9716999  73.8376542  83.4754615  66.6723887  86.3508415  77.1573633
  67.5099109  86.7605423  76.9407340  66.8502155  85.4107857  77.1273826
  78.5688319  84.0183495  72.8457466  78.0534942  84.7888100  73.0845853
  78.2965628  83.3448632  73.4690527  76.1535430  78.8633196  77.9042704
  75.2977026  78.4740047  77.7248343  76.5662382  78.9425157  77.0442489
  77.6834577  76.3979539  82.3034264  77.1799372  76.3609675  81.4902069
  77.9765184  77.3072282  82.3630920  73.9277463  76.4818269  81.3100445
  74.7930459  76.2861078  80.9506335  73.9954972  76.2528621  82.2369802
  83.5422593  86.7715850  74.7810639  82.7652036  86.4327010  74.3365801
  84.2214074  86.7768473  74.1065604  78.3574622  81.8910587  74.6717247
  78.0524758  82.2056737  75.5227390  79.3105064  81.9692007  74.7144580
  76.8021054  88.0500811  76.3210201  76.2742416  87.3153570  76.0083438
  76.3008557  88.8275487  76.0750169  81.7813900  86.2449831  81.4377247
  81.1237575  86.9349093  81.5257376  82.5854299  86.6346263  81.7811233
  71.5339782  78.7120477  78.6816812  72.1083534  78.4895659  77.9490005
  72.1210764  78.7809172  79.4345414  80.5919359  84.5994204  79.4881189
  81.1051241  85.2324196  79.9902898  81.2420583  83.9995399  79.1224549
  71.8609369  80.7424938  72.7012697  71.0246681  81.0799625  73.0221972
  71.7214138  80.6073918  71.7639834  73.8362449  75.5861726  77.4091882
  73.1826862  75.2710743  76.7848496  73.7942924  74.9637466  78.1351705
  74.9473654  85.8681021  69.3245174  74.0400716  85.6370275  69.5236323
  75.4444686  85.0718640  69.5119155  77.8541733  94.5778528  72.2441860
  77.1803432  94.8810225  72.8526818  78.2407555  95.3807609  71.8947317
  77.0700190  82.0743660  81.7339529  76.1522751  82.2958607  81.5761217
  77.4860333  82.1489970  80.8751237  77.8535238  83.4735075  76.8642210
  78.6007056  83.9856472  76.5549332  78.1226827  83.1519128  77.7246603
  76.1261888  85.9693616  73.8469164  75.2173107  85.6852649  73.9441634
  76.1556971  86.3892694  72.9872471  81.3581155  89.5800205  77.6160331
  80.9043482  88.7391115  77.6725522  80.7275122  90.2161604  77.9535112
  80.3014075  80.5092191  78.8460999  79.5636831  79.9969578  79.1771241
  80.5540848  80.0692573  78.0344276  79.8014094  91.4176702  78.5510150
  80.0937069  91.9781759  77.8322515  80.3112715  91.7105263  79.3063309
  80.4025702  73.2868443  79.4402768  80.7084579  72.4265807  79.1528683
  81.1278307  73.8786064  79.2401762  66.6950058  83.6899130  77.8284366
  66.4974458  83.0968491  77.1035433  66.1396722  83.3851340  78.5460305
  74.6746782  83.5822237  79.9478959  74.7295392  82.6296073  79.8721436
  73.8637984  83.7381676  80.4320258  75.8237975  87.5102360  71.1857242
  75.3857405  86.7938219  70.7262880  76.5648416  87.7378474  70.6242334
  72.6139142  82.1999296  77.7069338  71.8007007  82.4993467  78.1134530
  73.1098136  81.8054985  78.4243820  74.7647720  92.1957053  79.6403603
  74.7223898  92.4217900  78.7112135  75.6810418  91.9620428  79.7889404
  78.2113353  82.6641121  86.5384232  78.5662741  82.8912594  87.3978698
  78.8585485  82.9959498  85.9161487  83.9411090  85.7859557  77.2433561
  83.8028989  85.9761153  76.3154750  83.5847309  86.5478939  77.7001612
  72.1053216  79.7717652  83.3230573  72.7452596  79.6306411  82.6253536
  71.2730747  79.4852165  82.9469175  83.9680470  87.8536084  82.2544832
  84.4016977  87.7611373  83.1027887  84.6812051  87.8293584  81.6164848
  72.8813520  89.0720082  79.4365565  73.6754119  88.5770402  79.2348140
  72.1705213  88.5437945  79.0733271  77.7008365  91.4538178  83.7877933
  77.7545387  92.0229114  84.5555649  76.8323146  91.6240063  83.4231970
  69.1896284  83.2163164  75.5125318  68.2593872  83.1547619  75.7295280
  69.2853756  82.6939117  74.7161959  69.1081833  79.7417977  78.1003560
  69.3688650  80.6563310  77.9912720  69.9299005  79.2742419  78.2500173
  70.5806758  81.1555734  85.2702384  71.2529812  80.9473096  84.6215033
  69.7536545  80.9577820  84.8307617  84.8296019  87.8959784  84.7877718
  85.0231910  88.8005595  85.0336993  84.7296638  87.4367203  85.6216303
  76.4832330  77.7817675  87.2868045  75.8360245  78.4807625  87.1932522
  77.2533346  78.2153819  87.6544293  76.6596465  85.6198440  85.3464865
  77.5888525  85.7709599  85.1733832  76.2387495  85.7082461  84.4913511
  75.4584796  89.6449104  83.1163403  75.3195882  89.2767889  83.9889341
  74.6699393  90.1596744  82.9447360  76.0532948  94.7458201  74.4588939
  76.2284704  94.2746244  75.2734562  75.3665736  95.3723967  74.6870200
  77.0090011  89.0230707  80.5052240  76.6739844  88.9831477  81.4009890
  76.5093957  88.3575423  80.0322651  70.9834255  84.4298337  86.0304822
  70.8454053  83.6978576  86.6316361  71.8939179  84.3407237  85.7489009
  79.9449203  86.3686741  70.7789300  79.3278374  85.6433569  70.6822353
  79.4765692  87.1296102  70.4356374  73.6116556  84.1418296  85.5188501
  74.3216175  83.5011488  85.4775120  73.5685864  84.3931191  86.4414682
  72.3245490  81.1283514  87.3384141  71.7882847  80.6774253  87.9905737
  71.7362199  81.2629423  86.5954605  70.6194034  97.8947563  81.2328799
  70.8590632  98.5266088  81.9107818  69.7763230  97.5435603  81.5194159
  71.7347749  80.5872166  69.9010604  70.8577215  80.4660966  69.5372851
  72.2105502  79.7958244  69.6489493  81.6020742  89.0425234  86.6709060
  80.7147521  88.7051155  86.7935459  82.1719293  88.3108265  86.9077825
  63.2549889  85.3749325  79.9952111  63.9420929  85.0611055  79.4073127
  63.0998018  86.2790690  79.7219363  68.0584611  80.2639522  84.4237135
  67.9742800  79.6565191  83.6887545  67.2367318  80.7548540  84.4246631
  75.1321895  93.7026686  83.6370303  75.0592067  94.5081657  84.1489608
  74.6899289  93.9018652  82.8118325  74.9211675  92.9398456  77.1473125
  74.1379197  93.4820136  77.2411349  75.6204420  93.4572436  77.5467366
  78.2308325  78.7493085  79.7907330  78.7277025  77.9963048  79.4708400
  77.4595307  78.7857402  79.2250539  86.0838083  84.4533451  81.4325622
  86.0727959  85.3358166  81.0619555  85.2155462  84.1005002  81.2380159
  77.5920579  93.6013520  85.7928462  78.3048551  94.2360985  85.7204363
  77.1010608  93.6977386  84.9768464  79.3138106  87.5064773  77.3645754
  78.3794385  87.6266235  77.1950458  79.4914774  86.6037239  77.1005763
  74.8143294  80.8910468  79.5179015  74.4441081  80.3381509  80.2059920
  75.3102386  80.2868602  78.9654015  82.7010657  83.3482092  77.8995788
  83.1671109  84.1810083  77.8256090  83.1518158  82.8827073  78.6041046
  72.6432492  91.3507963  86.6134033  73.3441952  91.9844446  86.7663427
  72.1727607  91.6922695  85.8529672  80.7686888  89.6925913  74.8981940
  81.0446732  89.5782508  75.8075814  79.8991387  89.2943398  74.8594113
  80.6727320  75.7162679  81.9386689  79.7590400  75.9466906  82.1068896
  81.1020421  75.8001123  82.7900721  80.4433778  83.9052571  84.4386583
  79.7905229  84.1528478  83.7839036  80.8214158  83.0916709  84.1049060
  77.4040952  93.9412264  78.5414753  77.5863347  93.1233920  79.0042506
  78.2273938  94.1579956  78.1039643  77.7383118  92.8680449  75.8029802
  78.2670884  92.3572904  75.1899964  78.0011337  92.5522979  76.6675335
  76.4921351  84.6472382  90.9252620  75.8161988  84.5466511  91.5954995
  77.3148985  84.4911596  91.3888617  68.2400211  90.8844318  83.5465135
  68.8253647  90.1388006  83.6793040  68.0425049  91.1948275  84.4301799
  71.0938866  93.9195566  78.5627578  70.4249241  94.4041693  78.0791618
  70.9551735  94.1664786  79.4770956  62.8317865  83.4549919  82.2669579
  62.8701965  82.9213509  83.0606697  62.3258158  82.9285124  81.6480556
  75.2344134  95.9539309  85.1610236  75.7862442  96.1170931  85.9259321
  75.5750328  96.5443747  84.4890261  70.2108628  78.3014459  85.7632121
  70.2749954  79.1629290  85.3509519  70.1475748  77.6888461  85.0304479
  69.6860900  80.3737592  89.4105155  70.3132939  79.9914669  90.0242679
  68.8288819  80.1551794  89.7760848  66.4626443  82.1814021  75.3423510
  66.7579884  81.2724699  75.2890564  65.5614479  82.1601760  75.0204512
  78.3712522  93.9021285  82.1473918  78.2463661  93.1011025  81.6384864
  79.0291613  94.3967478  81.6587888  69.9920690  80.2570017  81.3251059
  69.2707276  80.8705985  81.1858532  70.7813946  80.7927782  81.2467704
  80.4347430  91.7030305  83.7753468  79.4877766  91.5835656  83.7031795
  80.7830203  90.8152803  83.8579730  72.7947003  77.5924444  87.5991710
  73.3181405  77.8386740  88.3618020  72.5759337  78.4244479  87.1794848
  68.1914284  79.8628118  75.4662835  67.8626991  78.9825497  75.2837941
  68.5453655  79.8075787  76.3539224  77.4393863  91.4983021  79.9757821
  77.2918826  90.5699729  80.1565391  78.2647357  91.5203112  79.4914896
  71.3056108  80.1501088  75.8338313  71.6452180  80.6787009  75.1116921
  71.7528228  80.4881494  76.6096879  81.0427985  92.3211580  81.0622693
  81.9674533  92.1154441  80.9247145  80.8743289  92.0727981  81.9712035
  73.9999548  78.5338139  85.2841381  73.6596369  77.7345952  85.6862061
  73.2938555  78.8339850  84.7118214  74.6516020  75.6187451  83.7368704
  75.4742090  75.1447930  83.6147594  74.8954084  76.3977935  84.2367390
  73.2924255  78.6475710  74.0331606  74.0132617  79.0256963  73.5295322
  72.6689559  79.3664587  74.1366583  77.4355378  79.3520859  74.9689938
  77.6518992  80.2345497  74.6678766  76.9549445  78.9607072  74.2395580
  72.1754599  82.3106572  81.5460682  72.0299180  82.6246875  82.4384964
  71.6979803  82.9291472  80.9931581  74.0350982  79.3009120  81.5941572
  74.0212551  78.4050213  81.2573870  74.7523410  79.3079784  82.2279858
  75.8877113  79.7346460  83.6394699  75.6294890  80.6563531  83.6379030
  75.3562153  79.3376895  84.3295164  80.8323301  92.8397247  76.4184785
  81.0060179  92.2743670  75.6658637  81.3252193  93.6398142  76.2364275
  66.6500261  84.8511916  84.4848344  66.1053729  85.6271724  84.6168618
  67.5279611  85.1982721  84.3267465  73.4387878  78.1823500  76.8629142
  73.5603789  77.2540146  77.0620030  73.1489920  78.1962186  75.9507458
  76.3079068  75.8678411  79.9995862  76.3300765  75.9317744  79.0447842
  76.7247127  75.0282919  80.1936368  86.6862693  85.6033670  78.0375085
  87.1293839  84.8540995  77.6394208  85.8089203  85.5943807  77.6548817
  81.8198474  92.1564012  73.5181683  82.5149378  92.7770704  73.7368998
  82.1621624  91.3059363  73.7934061  67.4366283  83.9781813  87.3778501
  66.6948019  84.1264448  87.9643131  67.1159027  84.2390078  86.5145250
  83.7189897  89.6063717  75.0469014  84.2441221  89.9450990  74.3218334
  83.6312250  88.6710733  74.8632149  75.3809946  93.5197791  87.1758891
  75.6897072  93.2746938  88.0481590  76.1785428  93.7244429  86.6877761
  75.4030558  95.6735701  79.4064267  74.9635548  95.1812079  80.0997124
  76.1538675  95.1308668  79.1656342  67.8822897  91.8647241  79.4088895
  68.7080917  91.5651013  79.0287539  67.5316949  91.0954864  79.8578684
  72.8504430  91.2173710  81.4786569  72.2284439  90.5544415  81.1788797
  73.5209297  91.2434842  80.7960217  66.0831502  89.7833568  80.3677829
  65.2463410  89.3555742  80.1861830  66.0555147  89.9766011  81.3048620
  72.9228957  79.6955498  91.0719075  72.9717113  80.5717620  90.6896844
  73.4651472  79.1532891  90.4990718  83.5281678  87.0889087  87.6652940
  83.5779683  86.9239095  88.6068463  83.4195601  86.2216346  87.2750821
  72.4117937  89.7677633  74.9545029  72.5606057  90.4513097  74.3011702
  73.2184380  89.7482723  75.4694485  80.8185440  83.0720015  88.9812247
  81.7195303  82.9326480  88.6896245  80.8933415  83.2374470  89.9210425
  75.1528246  80.4486870  87.8265433  74.2831555  80.7420436  87.5548022
  75.3887726  81.0327315  88.5472697  86.2295557  87.0738909  80.4297532
  87.0642449  87.5128713  80.5935093  86.3654686  86.5977562  79.6105778
  83.2787063  84.6318643  86.3775020  83.7541185  84.8246290  85.5693871
  82.3552629  84.6877829  86.1318404  70.1670570  85.7942811  75.9606098
  69.9216612  84.8905141  76.1586308  70.3366484  85.7959961  75.0185576
  77.8567280  76.6666487  85.3430854  78.3749224  77.4027514  85.0177342
  77.5022412  76.9730480  86.1777613  69.4366217  81.5271168  73.4592260
  68.7435462  81.6015523  72.8032296  69.1917969  80.7631512  73.9813777
  78.1079874  73.0866770  80.8631750  78.3881628  72.4189959  81.4892177
  78.8930481  73.2795865  80.3506414  75.9113342  92.2625763  72.4256777
  75.3387309  92.8815951  71.9727249  76.4846136  92.8125125  72.9596699
  81.9788732  81.5084404  84.6103326  82.9306155  81.6082501  84.6315550
  81.8092183  80.7162672  85.1201410  80.0003112  78.5939987  84.7962726
  79.4053044  78.8744999  84.1009215  79.7152808  79.0833888  85.5679468
  79.1310602  92.5462914  73.5565359  80.0641275  92.4808475  73.7598234
  79.0433815  93.3819180  73.0979892  81.7598619  91.8628784  70.5169307
  81.6812250  91.5288648  71.4105064  82.5808286  92.3550552  70.5160779
  84.4576810  84.7290523  83.7245625  84.4253130  83.7906524  83.9105309
  85.0677434  84.8074560  82.9911450  76.2960141  83.5986576  69.7672829
  77.2419246  83.4692784  69.8361247  75.9174386  82.8601238  70.2442257
  84.6071298  81.5201567  83.7703908  84.0910347  80.7360023  83.5833837
  85.4911247  81.1920283  83.9350428  82.2682025  75.2642582  79.7299721
  82.0706846  74.9557670  80.6143053  82.8781731  75.9904221  79.8597651
  90.2753360  85.7906530  82.8651662  91.0056748  85.5291818  83.4259365
  89.6660305  85.0535252  82.9053730  88.3568657  83.9314393  83.4626113
  87.6301821  83.7970358  82.8542605  87.9415944  84.2391221  84.2682831
  76.1798833  87.6504322  91.2273486  77.1001843  87.8282921  91.4213533
  76.1448416  86.7060368  91.0753185  74.4803058  81.5236553  69.7027714
  73.5734513  81.2269665  69.7790428  74.7579039  81.2266371  68.8362001
  65.3980998  82.8442916  80.1526761  65.0783783  81.9908224  79.8601135
  64.8514427  83.0591494  80.9084728  69.1760906  85.5605357  83.8696267
  69.3946916  86.4922465  83.8884301  69.5886680  85.2013331  84.6551071
  76.0965124  76.0673442  75.8571956  75.2865852  75.7220527  76.2327202
  76.7849541  75.7580986  76.4459567  78.0255672  75.1451489  77.4796252
  78.5786711  75.5646943  78.1386275  78.2625758  74.2187237  77.5219208
  74.0488771  81.1338563  93.2599016  73.9485498  82.0832920  93.1911107
  73.8310313  80.8056802  92.3875086  73.2501843  78.3823488  69.8439694
  74.1121007  78.7078386  70.1035511  73.4352187  77.5954984  69.3312759
  65.2669258  86.4645827  82.1219882  64.5732730  86.0499780  81.6089837
  66.0142249  86.5066364  81.5253301  81.4034479  77.2552014  76.9874917
  80.8233148  77.9136818  76.6052969  81.1370412  76.4329359  76.5762334
  79.8538045  76.6557072  79.1896237  80.3537824  76.7673606  78.3810556
  80.4973653  76.3518125  79.8297045  73.9120041  84.5635702  92.0764078
  73.4287123  85.3636062  92.2827967  73.9980980  84.5743646  91.1231522
  67.1806001  86.3964081  79.9985897  67.1576689  86.4951769  79.0467780
  67.4906637  87.2429232  80.3203063  69.8393379  88.4540236  84.1132512
  70.7936632  88.4224179  84.0462443  69.6405902  87.9930860  84.9282738
  70.4292761  87.0241352  86.6803309  71.2485650  87.5185431  86.7038147
  70.7029569  86.1073320  86.6520877  80.1859357  79.4152105  76.0431265
  79.2985212  79.7001755  75.8251460  80.6013346  79.2545868  75.1958542
  83.5373893  79.4398626  79.7585604  84.3134283  79.9295078  80.0310221
  82.8122027  79.8656680  80.2157474  85.9746452  80.1526245  80.8159545
  86.5690943  79.9121981  80.1052853  86.0473036  79.4333375  81.4433081
  68.1943608  93.9959856  81.1302710  68.0598075  93.2360257  80.5640708
  67.7775670  94.7200756  80.6631498  79.3302571  89.1796779  70.1379285
  80.0338421  89.3846782  70.7536940  78.6065219  89.7473541  70.4028368
  80.1600381  84.9306641  76.2581555  80.1035582  85.3875192  75.4189187
  80.7128723  84.1697325  76.0804398  83.9705187  80.7196372  77.0831675
  83.7142121  80.3193008  77.9139882  83.3458055  81.4340166  76.9581814
  88.2817525  83.4592446  79.5902966  87.7217083  83.5285635  80.3634528
  87.6761028  83.2833430  78.8702462  71.3512733  94.8929173  81.3421152
  71.2345118  95.8374605  81.2399842  70.5305180  94.5902734  81.7306951
  81.2389268  89.6179309  72.1877745  82.0734872  89.1860507  72.0055220
  81.0773611  89.4461322  73.1154639  80.8935160  86.1211422  73.5534084
  80.8383964  85.9555693  72.6122528  80.2681215  86.8287455  73.7096274
  65.6827675  81.3579486  87.3795506  66.3286539  80.8478440  87.8682732
  65.4744826  82.0948168  87.9538932  74.2031286  75.6219531  73.1319403
  74.1909955  76.5661371  73.2887673  75.0954707  75.4389676  72.8378864
  72.3767248  95.5457435  84.5577081  73.2794494  95.5781045  84.8743576
  72.1504618  94.6157886  84.5723416  74.1320850  94.2988421  81.2187159
  73.1816481  94.2990283  81.1051532  74.4353336  93.5521156  80.7023194
  78.0183405  72.2162307  77.3865339  77.2515801  71.6620794  77.5322022
  78.4294110  72.2884176  78.2479491  70.0225166  78.5047103  91.4770521
  70.8856628  78.1483908  91.6873845  69.4490577  78.1660998  92.1645925
  82.5350065 101.9411864  78.2091337  81.9714930 101.8501801  77.4407625
  82.4202460 101.1211769  78.6893830  88.1149624 105.6082832  73.5205802
  87.4637603 106.1936912  73.1339816  88.9093987 106.1389027  73.5800840
  82.0405251 102.6971969  73.9192937  82.8136127 102.1500956  73.7805812
  82.3930650 103.5616218  74.1307398  84.3771529  98.8564635  71.5511386
  84.6297049  98.3346156  70.7894849  83.4396088  98.6930781  71.6538070
  89.4214812  97.8600413  79.3586130  90.2077901  97.4419837  79.0076547
  89.6853516  98.7646506  79.5267778  89.5924889 103.2973264  74.0574787
  88.9570722 103.3707890  74.7695691  89.2622295 103.8866863  73.3793866
  84.0967817 100.7592741  73.7535761  83.9804076 100.0837644  74.4216846
  84.2070077 100.2725115  72.9367914  86.4399358 100.2202888  77.4582451
  86.0757566  99.6933509  78.1695372  87.2966474  99.8301357  77.2848936
  86.0804845  95.2492788  72.4543799  86.2479248  96.1173024  72.8214270
  85.8902014  95.4120070  71.5305088  82.2892660 100.1623564  80.1546334
  81.3643156 100.0299778  80.3624026  82.5377073 100.9417783  80.6516276
  86.0594066  97.7050445  73.4390466  85.9393691  98.1507496  74.2775946
  85.3646655  98.0535763  72.8804004  79.6501471  99.8056837  80.9890123
  79.7793852 100.0591316  81.9029535  78.9698922 100.3984545  80.6694778
  91.7579132  98.1771919  74.2670800  92.6696989  98.4099305  74.0918498
  91.2488779  98.7608963  73.7045879  89.1015107  94.3529955  82.5160661
  88.2399586  94.6511208  82.8077399  89.1277542  94.5700353  81.5841694
  85.9176677 102.8972145  78.9234467  86.3815022 103.1759848  78.1339089
  85.6533475 101.9955590  78.7407557  84.8545563  99.0195297  75.7324032
  85.5569606  99.4716341  76.1997958  84.5226191  98.3779116  76.3603925
  78.5970897  97.2778850  81.0341165  77.8069951  97.5336379  80.5581276
  79.0882144  98.0927188  81.1393206  80.5485642  97.6423429  77.9924642
  79.7516805  97.7542124  78.5108138  80.3211234  97.9810082  77.1265533
  76.8808600  97.5309341  83.4656156  77.1316638  98.4156350  83.7313732
  77.4168148  97.3513942  82.6931248  86.0939327 105.8336240  75.8086137
  85.9585002 106.6787776  76.2370985  86.6349140 106.0355518  75.0452071
  79.5468725 103.3511678  76.3814062  80.0593245 104.1454928  76.5319627
  80.1991437 102.6537969  76.3147664  81.3563609 106.4677434  78.4636815
  81.5330238 107.3895399  78.2757799  82.1520443 106.1535854  78.8931195
  89.4431791  89.3566802  84.3385030  89.0996060  90.2468444  84.2624141
  89.8110753  89.1668460  83.4754615  77.5117641 101.6800332  77.1573633
  78.3492863 102.0897341  76.9407340  77.6895909 100.7399775  77.1273826
  89.4082074  99.3475413  72.8457466  88.8928697 100.1180018  73.0845853
  89.1359382  98.6740549  73.4690527  86.9929185  94.1925114  77.9042704
  86.1370781  93.8031964  77.7248343  87.4056136  94.2717075  77.0442489
  88.5228331  91.7271457  82.3034264  88.0193127  91.6901592  81.4902069
  88.8158938  92.6364200  82.3630920  84.7671217  91.8110187  81.3100445
  85.6324214  91.6152996  80.9506335  84.8348726  91.5820539  82.2369802
  89.1968377  97.2202505  74.6717247  88.8918512  97.5348654  75.5227390
  90.1498819  97.2983925  74.7144580  87.6414809 103.3792728  76.3210201
  87.1136170 102.6445488  76.0083438  87.1402311 104.1567405  76.0750169
  82.3733536  94.0412395  78.6816812  82.9477288  93.8187576  77.9490005
  82.9604519  94.1101089  79.4345414  82.7003123  96.0716856  72.7012697
  81.8640436  96.4091542  73.0221972  82.5607893  95.9365836  71.7639834
  84.6756204  90.9153644  77.4091882  84.0220616  90.6002661  76.7848496
  84.6336678  90.2929384  78.1351705  85.7867409 101.1972939  69.3245174
  84.8794470 100.9662192  69.5236323  86.2838441 100.4010558  69.5119155
  87.9093944  97.4035577  81.7339529  86.9916506  97.6250524  81.5761217
  88.3254088  97.4781888  80.8751237  88.6928992  98.8026993  76.8642210
  89.4400811  99.3148390  76.5549332  88.9620582  98.4811046  77.7246603
  86.9655642 101.2985534  73.8469164  86.0566861 101.0144566  73.9441634
  86.9950726 101.7184612  72.9872471  91.1407829  95.8384109  78.8460999
  90.4030586  95.3261495  79.1771241  91.3934603  95.3984491  78.0344276
  91.2419456  88.6160361  79.4402768  91.5478333  87.7557725  79.1528683
  91.9672061  89.2077981  79.2401762  77.5343813  99.0191048  77.8284366
  77.3368212  98.4260408  77.1035433  76.9790477  98.7143258  78.5460305
  85.5140536  98.9114154  79.9478959  85.5689146  97.9587991  79.8721436
  84.7031738  99.0673593  80.4320258  86.6631730 102.8394277  71.1857242
  86.2251160 102.1230136  70.7262880  87.4042171 103.0670392  70.6242334
  83.4532896  97.5291214  77.7069338  82.6400762  97.8285385  78.1134530
  83.9491890  97.1346903  78.4243820  82.9446971  95.1009569  83.3230573
  83.5846350  94.9598329  82.6253536  82.1124501  94.8144083  82.9469175
  83.7207275 104.4012000  79.4365565  84.5147873 103.9062320  79.2348140
  83.0098967 103.8729863  79.0733271  80.0290038  98.5455082  75.5125318
  79.0987626  98.4839537  75.7295280  80.1247510  98.0231034  74.7161959
  79.9475587  95.0709894  78.1003560  80.2082405  95.9855228  77.9912720
  80.7692760  94.6034337  78.2500173  90.7842958 101.6978659  70.7789300
  90.1672128 100.9725487  70.6822353  90.3159446 102.4588019  70.4356374
  82.5741504  95.9164083  69.9010604  81.6970970  95.7952884  69.5372851
  83.0499257  95.1250162  69.6489493  74.0943644 100.7041243  79.9952111
  74.7814683 100.3902973  79.4073127  73.9391772 101.6082608  79.7219363
  78.8978366  95.5931440  84.4237135  78.8136555  94.9857109  83.6887545
  78.0761072  96.0840458  84.4246631  89.0702080  94.0785003  79.7907330
  89.5670779  93.3254965  79.4708400  88.2989061  94.1149320  79.2250539
  90.1531860 102.8356690  77.3645754  89.2188139 102.9558153  77.1950458
  90.3308529 101.9329157  77.1005763  85.6537048  96.2202386  79.5179015
  85.2834836  95.6673426  80.2059920  86.1496141  95.6160520  78.9654015
  93.5404412  98.6774010  77.8995788  94.0064864  99.5102001  77.8256090
  93.9911912  98.2118991  78.6041046  91.5121074  91.0454597  81.9386689
  90.5984154  91.2758823  82.1068896  91.9414176  91.1293041  82.7900721
  73.6711620  98.7841836  82.2669579  73.7095719  98.2505427  83.0606697
  73.1651913  98.2577042  81.6480556  81.0502382  93.6306377  85.7632121
  81.1143709  94.4921208  85.3509519  80.9869502  93.0180378  85.0304479
  77.3020197  97.5105938  75.3423510  77.5973638  96.6016617  75.2890564
  76.4008233  97.4893678  75.0204512  80.8314444  95.5861935  81.3251059
  80.1101030  96.1997903  81.1858532  81.6207700  96.1219700  81.2467704
  79.0308039  95.1920036  75.4662835  78.7020745  94.3117415  75.2837941
  79.3847410  95.1367705  76.3539224  82.1449862  95.4793006  75.8338313
  82.4845935  96.0078927  75.1116921  82.5921983  95.8173412  76.6096879
  85.4909775  90.9479369  83.7368704  86.3135844  90.4739847  83.6147594
  85.7347838  91.7269853  84.2367390  84.1318009  93.9767628  74.0331606
  84.8526372  94.3548880  73.5295322  83.5083313  94.6956504  74.1366583
  88.2749132  94.6812776  74.9689938  88.4912747  95.5637414  74.6678766
  87.7943199  94.2898990  74.2395580  83.0148354  97.6398490  81.5460682
  82.8692934  97.9538793  82.4384964  82.5373557  98.2583390  80.9931581
  84.8744736  94.6301038  81.5941572  84.8606305  93.7342131  81.2573870
  85.5917164  94.6371701  82.2279858  84.2781632  93.5115418  76.8629142
  84.3997544  92.5832064  77.0620030  83.9883675  93.5254104  75.9507458
  87.1472823  91.1970328  79.9995862  87.1694520  91.2609662  79.0447842
  87.5640882  90.3574837  80.1936368  78.7216651 107.1939159  79.4088895
  79.5474671 106.8942931  79.0287539  78.3710703 106.4246782  79.8578684
  76.9225256 105.1125486  80.3677829  76.0857165 104.6847660  80.1861830
  76.8948902 105.3057929  81.3048620  83.2511691 105.0969551  74.9545029
  83.3999812 105.7805015  74.3011702  84.0578135 105.0774641  75.4694485
  81.0064324 101.1234728  75.9606098  80.7610366 100.2197058  76.1586308
  81.1760239 101.1251879  75.0185576  80.2759972  96.8563086  73.4592260
  79.5829217  96.9307441  72.8032296  80.0311724  96.0923430  73.9813777
  88.9473628  88.4158687  80.8631750  89.2275382  87.7481876  81.4892177
  89.7324235  88.6087783  80.3506414  87.1353895  98.9278494  69.7672829
  88.0813000  98.7984702  69.8361247  86.7568140  98.1893156  70.2442257
  93.1075780  90.5934500  79.7299721  92.9100601  90.2849588  80.6143053
  93.7175485  91.3196139  79.8597651  85.3196812  96.8528470  69.7027714
  84.4128268  96.5561583  69.7790428  85.5972793  96.5558288  68.8362001
  76.2374753  98.1734834  80.1526761  75.9177537  97.3200142  79.8601135
  75.6908181  98.3883412  80.9084728  86.9358878  91.3965360  75.8571956
  86.1259606  91.0512445  76.2327202  87.6243295  91.0872904  76.4459567
  88.8649426  90.4743407  77.4796252  89.4180465  90.8938860  78.1386275
  89.1019513  89.5479155  77.5219208  84.0895597  93.7115405  69.8439694
  84.9514761  94.0370304  70.1035511  84.2745941  92.9246901  69.3312759
  76.1063013 101.7937745  82.1219882  75.4126484 101.3791698  81.6089837
  76.8536004 101.8358282  81.5253301  92.2428234  92.5843932  76.9874917
  91.6626903  93.2428736  76.6052969  91.9764166  91.7621277  76.5762334
  90.6931800  91.9848990  79.1896237  91.1931578  92.0965524  78.3810556
  91.3367408  91.6810042  79.8297045  78.0199755 101.7255999  79.9985897
  77.9970443 101.8243686  79.0467780  78.3300392 102.5721150  80.3203063
  91.0253112  94.7444022  76.0431265  90.1378967  95.0293673  75.8251460
  91.4407101  94.5837786  75.1958542  94.3767648  94.7690543  79.7585604
  95.1528038  95.2586996  80.0310221  93.6515782  95.1948597  80.2157474
  90.1696325 104.5088697  70.1379285  90.8732175 104.7138699  70.7536940
  89.4458974 105.0765459  70.4028368  90.9994135 100.2598558  76.2581555
  90.9429337 100.7167110  75.4189187  91.5522478  99.4989243  76.0804398
  94.8098941  96.0488290  77.0831675  94.5535875  95.6484926  77.9139882
  94.1851809  96.7632084  76.9581814  91.7328915 101.4503339  73.5534084
  91.6777718 101.2847611  72.6122528  91.1074970 102.1579372  73.7096274
  85.0425040  90.9511449  73.1319403  85.0303710  91.8953288  73.2887673
  85.9348462  90.7681594  72.8378864  88.8577160  87.5454225  77.3865339
  88.0909555  86.9912712  77.5322022  89.2687865  87.6176094  78.2479491
  35.6704772   0.4951494  69.0078228  36.3083182   0.3758241  68.3041568
  35.5525615   1.4432338  69.0666180  32.4794478   0.4478922  68.9439753
  32.1412990   0.3319987  68.0560288  33.3484246   0.0470087  68.9240759
  28.3381294   2.3014398  64.9336644  27.7746159   2.2104335  64.1652932
  28.2233689   1.4814303  65.4139136  32.9614261   1.6013774  74.9025959
  32.9502902   1.2066572  74.0306462  33.1234901   0.8679846  75.4959730
  25.8845726   3.7965590  67.7720864  26.6767018   3.4556415  67.3567164
  26.1242376   3.9060565  68.6923018  33.9180853   5.9685366  60.2451109
  33.2668832   6.5539446  59.8585123  34.7125215   6.4991561  60.3046146
  27.8436480   3.0574503  60.6438243  28.6167356   2.5103490  60.5051119
  28.1961879   3.9218753  60.8552705  29.6821522   4.3850885  73.8505142
  29.3911388   5.2896516  73.7351809  30.3178507   4.4267413  74.5649212
  30.6077729   1.7627734  70.4406502  31.2041301   1.5383756  69.7263465
  30.6652701   1.0212479  71.0431950  30.1802758  -0.7832831  58.2756693
  30.4328278  -1.3051309  57.5140156  29.2427317  -0.9466685  58.3783377
  35.2246040  -1.7797052  66.0831436  36.0109130  -2.1977629  65.7321853
  35.4884745  -0.8750960  66.2513085  35.3956118   3.6575798  60.7820093
  34.7601951   3.7310425  61.4940998  35.0653524   4.2469397  60.1039172
  40.6254467  -1.8421819  66.9864415  41.3579639  -2.4122602  67.2202244
  39.8693823  -2.2300219  67.4270920  29.8999046   1.1195275  60.4781068
  29.7835304   0.4440179  61.1462152  30.0101306   0.6327649  59.6613221
  32.2430587   0.5805422  64.1827757  31.8788794   0.0536043  64.8940679
  33.0997703   0.1903891  64.0094243  38.1479888  -8.1300245  71.4459023
  37.8163213  -7.2604834  71.2220238  37.5525501  -8.4463961  72.1253054
  31.8836074  -4.3904678  59.1789106  32.0510477  -3.5224442  59.5459577
  31.6933243  -4.2277396  58.2550395  34.6411407   4.0712301  70.8454936
  34.3412130   4.9737340  70.7370743  34.2962467   3.8044484  71.6976089
  28.0923889   0.5226098  66.8791641  27.1674385   0.3902312  67.0869332
  28.3408302   1.3020317  67.3761583  38.0408551  -3.4105159  68.5252374
  37.1325428  -3.4789750  68.2311134  37.9896147  -2.9333214  69.3534199
  31.8625295  -1.9347020  60.1635773  31.7424920  -1.4889970  61.0021253
  31.1677883  -1.5861703  59.6049311  25.4532700   0.1659371  67.7135430
  25.5825081   0.4193850  68.6274841  24.7730151   0.7587079  67.3940085
  29.6232187  10.8356621  63.8125904  29.5456217  11.7864446  63.8914384
  29.0193831  10.4902494  64.4700830  32.1149417  -1.9915513  76.4687271
  31.3382751  -1.4321593  76.4590135  32.7539980  -1.5058730  76.9902141
  39.9070198  -5.2088720  70.3030247  39.2644578  -4.9156187  69.6570042
  39.4025126  -5.3235800  71.1083444  37.5610361  -1.4625547  60.9916107
  38.4728217  -1.2298160  60.8163804  37.0520008  -0.8788503  60.4291185
  30.3695789   0.8169940  76.0305238  31.1110474   1.3554984  75.7540061
  29.6632775   1.4436229  76.1876790  35.8451129   2.9599081  74.6277399
  36.2534485   2.5181491  73.8832032  35.1228390   2.3851708  74.8811592
  32.1982199  -2.1028313  72.0010956  33.0443394  -1.6788899  72.1445605
  32.1380837  -2.7594688  72.6949519  36.1679944   3.5200271  68.3829688
  35.5388806   3.6845985  67.6805756  35.7805606   3.9341881  69.1540652
  40.0469175   4.4554709  65.7374052  39.3620214   4.8353610  65.1871085
  40.1313025   5.0650036  66.4706000  35.3481644  -4.4423944  73.6592130
  35.1042576  -3.6881884  73.1226406  35.6241575  -4.0638597  74.4939377
  37.3020107   2.1014668  72.3369395  37.5137002   2.7446428  71.6603777
  37.2549855   1.2676985  71.8691326  34.9046336  -5.2867511  69.2405968
  34.0430815  -4.9886258  69.5322705  34.9308771  -5.0697112  68.3087000
  31.7207905   3.2574679  65.6479773  32.1846251   3.5362382  64.8584396
  31.4564703   2.3558124  65.4652864  28.6131986   2.8046161  68.5859537
  29.1833344   3.2333429  67.9477021  29.2040098   2.5228746  69.2843722
  30.6576791  -0.6202168  62.4569338  31.3600835  -0.1681125  62.9243265
  30.3257420  -1.2618349  63.0849232  29.1057153  -2.0290412  76.8320548
  28.4755814  -1.3474131  77.0655945  28.9993241  -2.1407330  75.8873686
  38.4165935   4.9786624  70.5091753  39.2383379   4.5766811  70.2274434
  38.4128338   4.8754858  71.4607869  32.1822538   4.5270667  72.6652463
  32.2466971   4.9891074  73.5010635  31.4733462   3.8968032  72.7934773
  46.5071928   1.3225372  66.8576724  45.7535636   0.7532770  66.7020729
  46.6419469   1.2888036  67.8047359  31.8970556   6.1938774  62.5331444
  31.7616231   7.0390310  62.9616291  32.4380369   6.3958052  61.7697377
  25.3499953   3.7114212  63.1059369  25.8624474   4.5057463  63.2564933
  26.0022666   3.0140503  63.0392970  27.1594838   6.8279969  65.1882122
  27.3361466   7.7497933  65.0003106  27.9551672   6.5138388  65.6176502
  26.4447195  -1.1255400  75.0644285  26.3300710  -2.0270142  75.3651384
  25.5891712  -0.8791703  74.7129102  33.5239032   6.8162341  76.6631786
  33.0802887   6.0298719  76.3452690  34.1856246   7.0041491  75.9975676
  28.2826154   8.3458142  71.1892464  28.8333579   8.2175206  70.4169458
  27.4437630   8.6453031  70.8387357  35.6220271   7.0965141  74.6913187
  35.6038746   7.9174022  74.1993456  36.5440191   6.9719216  74.9163328
  32.0793325   4.6109270  75.5336695  32.6121661   3.8497558  75.3036003
  31.5507406   4.3182922  76.2760850  23.3148870   2.0402867  63.8818939
  24.1524092   2.4499875  63.6652647  23.4927138   1.1002309  63.8519133
  35.2113302  -0.2922053  59.5702772  34.6959926   0.4782552  59.8091160
  34.9390611  -0.9656917  60.1935834  32.7960413  -5.4472352  64.6288011
  31.9402010  -5.8365502  64.4493649  33.2087365  -5.3680391  63.7687796
  40.1847576   2.4610302  61.5055946  39.4077019   2.1221461  61.0611108
  40.8639057   2.4662925  60.8310911  34.9999606  -2.4194961  61.3962553
  34.6949741  -2.1048811  62.2472697  35.9530048  -2.3413541  61.4389886
  33.4446037   3.7395263  63.0455507  32.9167399   3.0048022  62.7328745
  32.9433540   4.5169939  62.7995476  38.4238883   1.9344283  68.1622554
  37.7662558   2.6243545  68.2502682  39.2279283   2.3240715  68.5056540
  37.2344342   0.2888656  66.2126495  37.7476224   0.9218648  66.7148205
  37.8845566  -0.3110149  65.8469855  31.5898638   1.5575473  56.0490480
  30.6825699   1.3264726  56.2481629  32.0869670   0.7613092  56.2364462
  34.4966716  10.2672980  58.9687167  33.8228415  10.5704677  59.5772124
  34.8832538  11.0702060  58.6192624  33.7125173  -2.2361889  68.4584836
  32.7947734  -2.0146942  68.3006524  34.1285317  -2.1615578  67.5996543
  34.4960221  -0.8370473  63.5887516  35.2432040  -0.3249076  63.2794638
  34.7651810  -1.1586420  64.4491910  32.7686871   1.6588068  60.5714470
  31.8598090   1.3747101  60.6686940  32.7981955   2.0787146  59.7117777
  38.0006138   5.2694657  64.3405638  37.5468466   4.4285567  64.3970829
  37.3700105   5.9056056  64.6780418  36.9439058  -3.8013357  65.5706305
  36.2061815  -4.3135970  65.9016548  37.1965832  -4.2412975  64.7589582
  36.4439078   7.1071154  65.2755456  36.7362052   7.6676211  64.5567822
  36.9537698   7.3999715  66.0308615  31.3171765  -0.7283312  66.6724266
  31.3720375  -1.6809475  66.5966742  30.5062967  -0.5723872  67.1565564
  32.4662959   3.1996811  57.9102549  32.0282389   2.4832670  57.4508186
  33.2073400   3.4272926  57.3487640  29.2564125  -2.1106252  64.4314645
  28.4431990  -1.8112081  64.8379837  29.7523119  -2.5050563  65.1489127
  31.4072703   7.8851505  66.3648909  31.3648882   8.1112351  65.4357441
  32.3235402   7.6514880  66.5134711  34.8538337  -1.6464427  73.2629539
  35.2087724  -1.4192954  74.1224004  35.5010468  -1.3146051  72.6406794
  40.5836074   1.4754009  63.9678868  40.4453972   1.6655605  63.0400057
  40.2272292   2.2373391  64.4246919  40.6105453   3.5430536  68.9790139
  41.0441960   3.4505825  69.8273193  41.3237034   3.5188036  68.3410155
  29.5238504   4.7614534  66.1610872  30.3179102   4.2664854  65.9593447
  28.8130196   4.2332397  65.7978578  34.3433348   7.1432630  70.5123240
  34.3970370   7.7123566  71.2800956  33.4748129   7.3134515  70.1477277
  41.4721003   3.5854236  71.5123025  41.6656893   4.4900047  71.7582299
  41.3721621   3.1261655  72.3461610  33.1257313  -6.5287873  74.0113352
  32.4785229  -5.8297924  73.9177828  33.8958329  -6.0951729  74.3789600
  36.5336111   3.7360979  77.0863905  36.3821618   3.5071531  76.1693989
  36.5240791   4.6931580  77.0995250  33.3021448   1.3092892  72.0710172
  34.2313508   1.4604051  71.8979139  32.8812478   1.3976912  71.2158818
  32.1009780   5.3343556  69.8408709  31.9620865   4.9662340  70.7134647
  31.3124376   5.8491196  69.6692667  32.6957932  10.4352653  61.1834246
  32.8709687   9.9640696  61.9979868  32.0090720  11.0618419  61.4115506
  33.6514995   4.7125159  67.2297547  33.3164827   4.6725929  68.1255197
  33.1518940   4.0469875  66.7567957  27.6259239   0.1192789  72.7550128
  27.4879037  -0.6126972  73.3561667  28.5364162   0.0301689  72.4734316
  36.5874186   2.0581193  57.5034607  35.9703357   1.3328021  57.4067659
  36.1190675   2.8190553  57.1601681  30.2541539  -0.1687252  72.2433808
  30.9641158  -0.8094060  72.2020426  30.2110848   0.0825643  73.1659989
  38.2428318   6.7680101  75.1640387  38.1840864   6.0839322  74.4970970
  38.6447836   7.5099091  74.7121013  28.9670473  -3.1822034  74.0629447
  28.4307830  -3.6331296  74.7151044  28.3787182  -3.0476125  73.3199912
  27.2619017  13.5842015  67.9574106  27.5015615  14.2160539  68.6353124
  26.4188213  13.2330055  68.2439465  38.2445725   4.7319685  73.3954367
  37.3572504   4.3945607  73.5180766  38.8144276   4.0002717  73.6323132
  31.7746879   9.3921138  70.3615610  31.7017050  10.1976109  70.8734914
  31.3324272   9.5913104  69.5363631  31.5636658   8.6292908  63.8718431
  30.7804180   9.1714588  63.9656656  32.2629404   9.1466887  64.2712673
  34.8733308  -5.5612463  66.5152637  35.3702008  -6.3142500  66.1953707
  34.1020290  -5.5248146  65.9495846  42.7263066   0.1427903  68.1570928
  42.7152942   1.0252618  67.7864861  41.8580445  -0.2100546  67.9625465
  34.2345562   9.2907972  72.5173769  34.9473534   9.9255437  72.4449670
  33.7435591   9.3871838  71.7013770  35.9563089   3.1959224  64.0891060
  35.0219368   3.3160687  63.9195765  36.1339758   2.2931691  63.8251070
  31.4568277  -3.4195080  66.2424321  31.0866065  -3.9724039  66.9305227
  31.9527370  -4.0236946  65.6899321  39.3435641  -0.9623456  64.6241094
  39.8096093  -0.1295465  64.5501397  39.7943141  -1.4278475  65.3286353
  29.2857476   7.0402415  73.3379339  29.9866935   7.6738898  73.4908734
  28.8152591   7.3817147  72.5774979  37.4111872   5.3820365  61.6227246
  37.6871716   5.2676960  62.5321120  36.5416370   4.9837850  61.5839419
  37.3152303  -8.5942869  68.6631996  36.4015383  -8.3638642  68.8314203
  37.7445405  -8.5104425  69.5146028  37.0858762  -0.4052977  71.1631890
  36.4330212  -0.1577070  70.5084342  37.4639142  -1.2188839  70.8294367
  34.0465936   9.6306716  65.2660060  34.2288330   8.8128372  65.7287812
  34.8698922   9.8474408  64.8284950  34.3808101   8.5574901  62.5275108
  34.9095868   8.0467356  61.9145271  34.6436321   8.2417431  63.3920642
  33.1346335   0.3366834  77.6497927  32.4586972   0.2360963  78.3200302
  33.9573969   0.1806048  78.1133924  24.8825194   6.5738770  70.2710442
  25.4678631   5.8282458  70.4038346  24.6850032   6.8842727  71.1547106
  27.7363849   9.6090018  65.2872884  27.0674224  10.0936145  64.8036924
  27.5976719   9.8559238  66.2016263  31.8769118  11.6433761  71.8855543
  32.4287426  11.8065383  72.6504628  32.2175311  12.2338199  71.2135568
  36.7279992   6.4695019  77.7404197  37.2719896   7.0824977  77.2459152
  36.1466837   7.0274597  78.2571210  35.0137505   9.5915737  68.8719225
  34.8888644   8.7905477  68.3630170  35.6716596  10.0861930  68.3833195
  37.0772413   7.3924757  70.4998775  36.1302749   7.2730108  70.4277102
  37.4255186   6.5047255  70.5825036  34.0818847   7.1877473  66.7003127
  33.9343809   6.2594180  66.8810697  34.9072340   7.2097564  66.2160202
  37.6852968   8.0106032  67.7868000  38.6099516   7.8048893  67.6492451
  37.5168272   7.7622433  68.6957342  34.0780361  -4.9584689  61.6935244
  34.2943975  -4.0760051  61.3924073  33.5974428  -5.3498476  60.9640886
  28.8179582  -1.9998976  68.2705989  28.6724163  -1.6858673  69.1630271
  28.3404786  -1.3814076  67.7176888  32.5302096  -4.5759088  70.3640006
  32.2719874  -3.6542017  70.3624337  31.9987136  -4.9728653  71.0540470
  37.4748285   8.5291699  63.1430091  37.6485162   7.9638122  62.3903944
  37.9677176   9.3292594  62.9609581  23.2925244   0.5406368  71.2093650
  22.7478713   1.3166176  71.3413925  24.1704594   0.8877173  71.0512772
  43.3287676   1.2928122  64.7620391  43.7718822   0.5435447  64.3639514
  42.4514186   1.2838259  64.3794123  38.4623457   7.8458464  60.2426990
  39.1574362   8.4665156  60.4614304  38.8046607   6.9953815  60.5179368
  40.3614880   5.2958169  61.7714321  40.8866204   5.6345442  61.0463641
  40.2737233   4.3605184  61.5877455  32.0234929   9.2092243  73.9004197
  32.3322055   8.9641390  74.7726897  32.8210411   9.4138881  73.4123067
  32.0455541  11.3630152  66.1309574  31.6060531  10.8706531  66.8242430
  32.7963658  10.8203120  65.8901649  24.5247880   7.5541693  66.1334202
  25.3505900   7.2545465  65.7532845  24.1741932   6.7849316  66.5823990
  29.4929413   6.9068162  68.2031875  28.8709422   6.2438867  67.9034103
  30.1634280   6.9329293  67.5205523  22.7256485   5.4728020  67.0923135
  21.8888393   5.0450194  66.9107137  22.6980130   5.6660463  68.0293927
  40.0508786   5.9291073  77.0765518  39.2604330   5.9115212  76.5370018
  39.8142141   6.4679367  77.8314555  40.1706661   2.7783539  74.3898247
  40.2204666   2.6133547  75.3313770  40.0620585   1.9110798  73.9996128
  29.0542920   5.4572085  61.6790336  29.2031040   6.1407549  61.0257009
  29.8609364   5.4377175  62.1939792  37.4610424  -1.2385533  75.7057554
  38.3620287  -1.3779068  75.4141552  37.5358398  -1.0731078  76.6455731
  31.7953229  -3.8618678  74.5510740  30.9256539  -3.5685112  74.2793329
  32.0312709  -3.2778233  75.2718004  41.6724858   5.1980481  74.6340269
  41.3809667   5.5610461  75.4703730  41.0596990   4.4847489  74.4553601
  42.8720541   2.7633360  67.1542839  43.7067432   3.2023165  67.3180399
  43.0079669   2.2872014  66.3351085  39.9212046   0.3213095  73.1020327
  40.3966168   0.5140742  72.2939178  38.9977612   0.3772281  72.8563710
  26.8095553   1.4837263  62.6851405  26.5641595   0.5799593  62.8831615
  26.9791468   1.4854413  61.7430883  34.4992263  -7.6439061  72.0676160
  35.0174207  -6.9078034  71.7422649  34.1447396  -7.3375068  72.9022920
  32.5538326   7.9520215  59.1502083  31.9812293   8.5710402  58.6972555
  33.1271119   8.5019577  59.6842005  38.6213715  -2.8021145  71.3348632
  39.5731138  -2.7023047  71.3560856  38.4517166  -3.5942876  71.8446717
  36.6428095  -5.7165561  71.5208033  36.0478027  -5.4360549  70.8254522
  36.3577792  -5.2271660  72.2924774  35.7735585   8.2357365  60.2810666
  36.7066259   8.1702927  60.4843541  35.6858798   9.0713632  59.8225198
  38.4023602   7.5523236  57.2414613  38.3237234   7.2183099  58.1350371
  39.2233269   8.0445004  57.2406086  41.1001793   0.4184975  70.4490932
  41.0678113  -0.5199024  70.6350616  41.7102417   0.4969012  69.7156757
  32.9385124  -0.7118972  56.4918136  33.8844229  -0.8412764  56.5606554
  32.5599369  -1.4504310  56.9687564  41.2496282  -2.7903981  70.4949215
  40.7335330  -3.5745525  70.3079144  42.1336230  -3.1185265  70.6595734
  46.9178343   1.4800982  69.5896969  47.6481732   1.2186270  70.1504672
  46.3085289   0.7429704  69.6299037  44.9993640  -0.3791155  70.1871420
  44.2726804  -0.5135191  69.5787911  44.5840927  -0.0714327  70.9928138
  32.8223817   3.3398774  77.9518793  33.7426826   3.5177373  78.1458839
  32.7873400   2.3954820  77.7998492  31.1228041  -2.7868996  56.4273021
  30.2159497  -3.0835883  56.5035735  31.4004022  -3.0839177  55.5607307
  25.8185889   1.2499809  70.5941574  26.0371899   2.1816917  70.6129608
  26.2311663   0.8907783  71.3796378  21.9094242   2.1540279  68.8465189
  21.2157713   1.7394232  68.3335143  22.6567233   2.1960816  68.2498608
  38.0459462  -7.0553534  63.7120223  37.4658131  -6.3968730  63.3298276
  37.7795395  -7.8776189  63.3007641  36.4963029  -7.6548476  65.9141544
  36.9962807  -7.5431942  65.1055862  37.1398637  -7.9587423  66.5542352
  30.5545025   0.2530153  78.8009385  30.0712106   1.0530514  79.0073274
  30.6405964   0.2638098  77.8476829  23.8230984   2.0858533  66.7231204
  23.8001672   2.1846220  65.7713087  24.1331621   2.9323684  67.0448370
  26.4818362   4.1434688  70.8377818  27.4361616   4.1118631  70.7707750
  26.2830886   3.6825312  71.6528044  27.0717744   2.7135804  73.4048616
  27.8910633   3.2079883  73.4283453  27.3454552   1.7967772  73.3766184
  36.8284340  -4.8953443  62.7676572  35.9410195  -4.6103793  62.5496766
  37.2438329  -5.0559680  61.9203848  40.1798877  -4.8706922  66.4830911
  40.9559267  -4.3810470  66.7555528  39.4547011  -4.4448868  66.9402780
  42.6171435  -4.1579303  67.5404851  43.2115926  -4.3983567  66.8298160
  42.6898019  -4.8772173  68.1678388  24.8368591   9.6854308  67.8548016
  24.7023059   8.9254709  67.2886014  24.4200653  10.4095208  67.3876805
  35.9727554   4.8691231  56.8624591  36.6763404   5.0741234  57.4782247
  35.2490203   5.4367993  57.1273675  36.8025364   0.6201092  62.9826862
  36.7460566   1.0769644  62.1434494  37.3553707  -0.1408223  62.8049704
  40.6130170  -3.5909176  63.8076981  40.3567104  -3.9912540  64.6385189
  39.9883038  -2.8765382  63.6827120  44.9242508  -0.8513102  66.3148273
  44.3642066  -0.7819913  67.0879835  44.3186011  -1.0272118  65.5947769
  27.9937717  10.5823625  68.0666459  27.8770101  11.5269057  67.9645149
  27.1730163  10.2797186  68.4552258  37.8814251   5.3073760  58.9123052
  38.7159855   4.8754959  58.7300526  37.7198594   5.1355774  59.8399946
  37.5360143   1.8105874  60.2779391  37.4808947   1.6450145  59.3367835
  36.9106199   2.5181907  60.4341581  34.8506051   4.1154786  79.6032954
  35.7197210   4.2895438  79.2419589  34.3712802   4.9349202  79.4808683
  29.0192231  11.2351887  71.2822387  29.9219478  11.2675497  71.5988882
  28.7929601  10.3052338  71.2968723  30.7745833   9.9882873  67.9432466
  29.8241464   9.9884735  67.8296838  31.0778319   9.2415608  67.4268501
  46.5098526  15.8243412  69.0078228  47.1476936  15.7050159  68.3041568
  46.3919369  16.7724255  69.0666180  43.3188233  15.7770840  68.9439753
  42.9806744  15.6611904  68.0560288  44.1878001  15.3762005  68.9240759
  39.1775048  17.6306316  64.9336644  38.6139913  17.5396253  64.1652932
  39.0627443  16.8106220  65.4139136  43.8008016  16.9305691  74.9025959
  43.7896656  16.5358490  74.0306462  43.9628655  16.1971764  75.4959730
  36.7239480  19.1257508  67.7720864  37.5160772  18.7848332  67.3567164
  36.9636130  19.2352483  68.6923018  44.7574607  21.2977284  60.2451109
  44.1062587  21.8831364  59.8585123  45.5518970  21.8283479  60.3046146
  38.6830234  18.3866421  60.6438243  39.4561110  17.8395408  60.5051119
  39.0355633  19.2510670  60.8552705  40.5215277  19.7142803  73.8505142
  40.2305143  20.6188434  73.7351809  41.1572261  19.7559331  74.5649212
  41.4471484  17.0919652  70.4406502  42.0435056  16.8675674  69.7263465
  41.5046455  16.3504397  71.0431950  41.0196512  14.5459087  58.2756693
  41.2722033  14.0240608  57.5140156  40.0821071  14.3825232  58.3783377
  46.0639795  13.5494865  66.0831436  46.8502884  13.1314289  65.7321853
  46.3278499  14.4540958  66.2513085  46.2349872  18.9867716  60.7820093
  45.5995705  19.0602342  61.4940998  45.9047279  19.5761315  60.1039172
  51.4648222  13.4870099  66.9864415  52.1973394  12.9169315  67.2202244
  50.7087578  13.0991699  67.4270920  40.7392801  16.4487193  60.4781068
  40.6229059  15.7732096  61.1462152  40.8495061  15.9619567  59.6613221
  43.0824342  15.9097340  64.1827757  42.7182549  15.3827961  64.8940679
  43.9391458  15.5195809  64.0094243  48.9873642   7.1991673  71.4459023
  48.6556967   8.0687084  71.2220238  48.3919256   6.8827957  72.1253054
  42.7229829  10.9387240  59.1789106  42.8904231  11.8067476  59.5459577
  42.5326998  11.1014521  58.2550395  45.4805162  19.4004219  70.8454936
  45.1805885  20.3029257  70.7370743  45.1356221  19.1336402  71.6976089
  38.9317643  15.8518016  66.8791641  38.0068140  15.7194230  67.0869332
  39.1802057  16.6312235  67.3761583  48.8802306  11.9186759  68.5252374
  47.9719183  11.8502167  68.2311134  48.8289901  12.3958704  69.3534199
  42.7019050  13.3944897  60.1635773  42.5818675  13.8401948  61.0021253
  42.0071638  13.7430215  59.6049311  36.2926454  15.4951289  67.7135430
  36.4218836  15.7485768  68.6274841  35.6123906  16.0878997  67.3940085
  40.4625942  26.1648539  63.8125904  40.3849971  27.1156364  63.8914384
  39.8587585  25.8194412  64.4700830  42.9543171  13.3376404  76.4687271
  42.1776505  13.8970325  76.4590135  43.5933734  13.8233187  76.9902141
  50.7463952  10.1203197  70.3030247  50.1038332  10.4135730  69.6570042
  50.2418881  10.0056118  71.1083444  48.4004116  13.8666370  60.9916107
  49.3121972  14.0993757  60.8163804  47.8913763  14.4503415  60.4291185
  41.2089544  16.1461858  76.0305238  41.9504228  16.6846902  75.7540061
  40.5026529  16.7728147  76.1876790  46.6844883  18.2890998  74.6277399
  47.0928239  17.8473409  73.8832032  45.9622145  17.7143626  74.8811592
  43.0375953  13.2263605  72.0010956  43.8837149  13.6503019  72.1445605
  42.9774591  12.5697229  72.6949519  47.0073698  18.8492189  68.3829688
  46.3782560  19.0137903  67.6805756  46.6199360  19.2633798  69.1540652
  50.8862930  19.7846627  65.7374052  50.2013968  20.1645528  65.1871085
  50.9706779  20.3941953  66.4706000  46.1875399  10.8867973  73.6592130
  45.9436331  11.6410034  73.1226406  46.4635329  11.2653321  74.4939377
  48.1413862  17.4306586  72.3369395  48.3530757  18.0738346  71.6603777
  48.0943610  16.5968902  71.8691326  45.7440090  10.0424406  69.2405968
  44.8824570  10.3405660  69.5322705  45.7702525  10.2594805  68.3087000
  42.5601660  18.5866597  65.6479773  43.0240005  18.8654300  64.8584396
  42.2958458  17.6850042  65.4652864  39.4525741  18.1338079  68.5859537
  40.0227098  18.5625347  67.9477021  40.0433853  17.8520663  69.2843722
  41.4970546  14.7089749  62.4569338  42.1994589  15.1610793  62.9243265
  41.1651174  14.0673568  63.0849232  39.9450907  13.3001506  76.8320548
  39.3149568  13.9817787  77.0655945  39.8386995  13.1884588  75.8873686
  35.2395880  12.9673302  67.7586472  34.4494934  13.2230831  67.2826583
  35.7307127  13.7821640  67.8638512  49.2559689  20.3078541  70.5091753
  50.0777133  19.9058728  70.2274434  49.2522092  20.2046775  71.4607869
  37.1910625  13.3317881  64.7169949  36.3941789  13.4436576  65.2353444
  36.9636217  13.6704533  63.8510839  43.0216293  19.8562584  72.6652463
  43.0860725  20.3182992  73.5010635  42.3127217  19.2259949  72.7934773
  33.5233583  13.2203792  70.1901463  33.7741621  14.1050802  70.4559039
  34.0593131  13.0408394  69.4176555  57.3465683  16.6517290  66.8576724
  56.5929391  16.0824688  66.7020729  57.4813224  16.6179954  67.8047359
  42.7364311  21.5230692  62.5331444  42.6009985  22.3682228  62.9616291
  43.2774123  21.7249970  61.7697377  39.2231650   7.6022272  79.1945799
  38.8298596   7.0488470  79.8693443  40.0397791   7.9132850  79.5852316
  36.1893708  19.0406130  63.1059369  36.7018229  19.8349380  63.2564933
  36.8416421  18.3432420  63.0392970  37.9988593  22.1571886  65.1882122
  38.1755221  23.0789851  65.0003106  38.7945426  21.8430305  65.6176502
  42.1399611   9.0180151  76.7866055  42.8809325   9.6187304  76.7070518
  42.3717534   8.2757789  76.2284098  37.2840949  14.2036518  75.0644285
  37.1694464  13.3021775  75.3651384  36.4285467  14.4500215  74.7129102
  44.3632787  22.1454258  76.6631786  43.9196641  21.3590637  76.3452690
  45.0250001  22.3333409  75.9975676  39.1219908  23.6750060  71.1892464
  39.6727333  23.5467123  70.4169458  38.2831384  23.9744949  70.8387357
  46.4614025  22.4257058  74.6913187  46.4432500  23.2465939  74.1993456
  47.3833945  22.3011134  74.9163328  42.9187079  19.9401188  75.5336695
  43.4515416  19.1789476  75.3036003  42.3901160  19.6474840  76.2760850
  46.0856774   5.0461254  71.0630337  45.7421044   5.9362896  70.9869448
  46.4535737   4.8562911  70.1999922  34.1542625  17.3694784  63.8818939
  34.9917847  17.7791793  63.6652647  34.3320892  16.4294226  63.8519133
  46.0507057  15.0369865  59.5702772  45.5353680  15.8074470  59.8091160
  45.7784365  14.3635001  60.1935834  43.6354168   9.8819566  64.6288011
  42.7795764   9.4926416  64.4493649  44.0481120   9.9611527  63.7687796
  45.1653315   7.4165909  69.0279570  44.6618110   7.3796044  68.2147376
  45.4583921   8.3258652  69.0876227  41.4096200   7.5004639  68.0345752
  42.2749197   7.3047447  67.6751642  41.4773709   7.2714990  68.9615109
  51.0241331  17.7902220  61.5055946  50.2470774  17.4513379  61.0611108
  51.7032812  17.7954843  60.8310911  45.8393360  12.9096957  61.3962553
  45.5343496  13.2243106  62.2472697  46.7923802  12.9878377  61.4389886
  44.2839792  19.0687180  63.0455507  43.7561153  18.3339940  62.7328745
  43.7827295  19.8461857  62.7995476  49.2632638  17.2636201  68.1622554
  48.6056312  17.9535462  68.2502682  50.0673037  17.6532633  68.5056540
  39.0158519   9.7306847  65.4062119  39.5902271   9.5082028  64.6735312
  39.6029502   9.7995541  66.1590720  48.0738097  15.6180574  66.2126495
  48.5869978  16.2510565  66.7148205  48.7239321  15.0181769  65.8469855
  39.3428107  11.7611308  59.4258004  38.5065419  12.0985994  59.7467279
  39.2032876  11.6260287  58.4885141  41.3181187   6.6048096  64.1337188
  40.6645600   6.2897113  63.5093803  41.2761661   5.9823836  64.8597011
  42.4292392  16.8867391  56.0490480  41.5219454  16.6556644  56.2481629
  42.9263424  16.0905010  56.2364462  45.3360471  25.5964898  58.9687167
  44.6622170  25.8996595  59.5772124  45.7226293  26.3993978  58.6192624
  44.5518928  13.0930029  68.4584836  43.6341489  13.3144976  68.3006524
  44.9679071  13.1676340  67.5996543  45.3353975  14.4921445  63.5887516
  46.0825794  15.0042842  63.2794638  45.6045565  14.1705498  64.4491910
  43.6080625  16.9879986  60.5714470  42.6991845  16.7039018  60.6686940
  43.6375709  17.4079064  59.7117777  48.8399893  20.5986575  64.3405638
  48.3862220  19.7577485  64.3970829  48.2093860  21.2347973  64.6780418
  47.7832812  11.5278561  65.5706305  47.0455569  11.0155947  65.9016548
  48.0359586  11.0878943  64.7589582  47.2832832  22.4363072  65.2755456
  47.5755807  22.9968129  64.5567822  47.7931453  22.7291633  66.0308615
  47.8844440   4.3054813  66.1648075  48.1903317   3.4452176  65.8773990
  48.6097045   4.8972433  65.9647069  34.1768796  14.7085500  64.5529673
  33.9793196  14.1154860  63.8280739  33.6215460  14.4037710  65.2705611
  42.1565520  14.6008606  66.6724266  42.2114129  13.6482443  66.5966742
  41.3456722  14.7568045  67.1565564  43.3056713  18.5288729  57.9102549
  42.8676143  17.8124588  57.4508186  44.0467154  18.7564844  57.3487640
  40.0957879  13.2185666  64.4314645  39.2825745  13.5179836  64.8379837
  40.5916874  12.8241355  65.1489127  42.2466457  23.2143423  66.3648909
  42.2042636  23.4404269  65.4357441  43.1629156  22.9806797  66.5134711
  45.6932091  13.6827490  73.2629539  46.0481479  13.9098963  74.1224004
  46.3404222  14.0145867  72.6406794  51.4229828  16.8045926  63.9678868
  51.2847727  16.9947522  63.0400057  51.0666047  17.5665309  64.4246919
  39.5871954  10.7904021  70.0475880  40.2271334  10.6492780  69.3498843
  38.7549485  10.5038535  69.6714482  51.4499208  18.8722453  68.9790139
  51.8835714  18.7797742  69.8273193  52.1630788  18.8479954  68.3410155
  40.3632258  20.0906452  66.1610872  41.1572857  19.5956772  65.9593447
  39.6523950  19.5624315  65.7978578  45.1827103  22.4724547  70.5123240
  45.2364125  23.0415484  71.2800956  44.3141884  22.6426432  70.1477277
  36.6715022  14.2349534  62.2370625  35.7412610  14.1733989  62.4540587
  36.7672494  13.7125486  61.4407266  36.5900571  10.7604346  64.8248866
  36.8507388  11.6749680  64.7158027  37.4117743  10.2928789  64.9745479
  38.0625496  12.1742104  71.9947691  38.7348549  11.9659466  71.3460340
  37.2355282  11.9764190  71.5552923  52.3114757  18.9146154  71.5123025
  52.5050647  19.8191964  71.7582299  52.2115375  18.4553573  72.3461610
  43.9651068   8.8004044  74.0113352  43.3178983   9.4993994  73.9177828
  44.7352083   9.2340188  74.3789600  47.3729866  19.0652897  77.0863905
  47.2215372  18.8363448  76.1693989  47.3634545  20.0223498  77.0995250
  44.1415202  16.6384809  72.0710172  45.0707262  16.7895969  71.8979139
  43.7206232  16.7268830  71.2158818  42.9403534  20.6635474  69.8408709
  42.8014620  20.2954258  70.7134647  42.1518130  21.1783113  69.6692667
  43.5351686  25.7644570  61.1834246  43.7103442  25.2932613  61.9979868
  42.8484474  26.3910336  61.4115506  44.4908749  20.0417076  67.2297547
  44.1558582  20.0017846  68.1255197  43.9912695  19.3761792  66.7567957
  38.4652993  15.4484707  72.7550128  38.3272791  14.7164945  73.3561667
  39.3757917  15.3593607  72.4734316  47.4267941  17.3873111  57.5034607
  46.8097112  16.6619939  57.4067659  46.9584429  18.1482471  57.1601681
  41.0935294  15.1604666  72.2433808  41.8034912  14.5197858  72.2020426
  41.0504602  15.4117561  73.1659989  49.0822073  22.0972019  75.1640387
  49.0234619  21.4131239  74.4970970  49.4841591  22.8391009  74.7121013
  39.8064228  12.1469884  74.0629447  39.2701585  11.6960622  74.7151044
  39.2180936  12.2815793  73.3199912  38.1012771  28.9133933  67.9574106
  38.3409370  29.5452457  68.6353124  37.2581968  28.5621973  68.2439465
  39.2166487  11.6058535  56.6255911  38.3395953  11.4847336  56.2618158
  39.6924240  10.8144613  56.3734800  49.0839480  20.0611603  73.3954367
  48.1966259  19.7237525  73.5180766  49.6538031  19.3294634  73.6323132
  30.7368627  16.3935695  66.7197418  31.4239667  16.0797425  66.1318433
  30.5816756  17.2977059  66.4464669  35.5403349  11.2825891  71.1482442
  35.4561538  10.6751561  70.4132852  34.7186055  11.7734910  71.1491938
  42.6140633  24.7213055  70.3615610  42.5410805  25.5268027  70.8734914
  42.1718026  24.9205021  69.5363631  42.4030413  23.9584825  63.8718431
  41.6197935  24.5006506  63.9656656  43.1023158  24.4758805  64.2712673
  45.7127063   9.7679455  66.5152637  46.2095762   9.0149417  66.1953707
  44.9414044   9.8043772  65.9495846  53.5656820  15.4719820  68.1570928
  53.5546697  16.3544536  67.7864861  52.6974200  15.1191371  67.9625465
  45.0739317  24.6199889  72.5173769  45.7867289  25.2547354  72.4449670
  44.5829345  24.7163755  71.7013770  46.7956844  18.5251142  64.0891060
  45.8613122  18.6452605  63.9195765  46.9733512  17.6223609  63.8251070
  42.2962032  11.9096838  66.2424321  41.9259819  11.3567878  66.9305227
  42.7921124  11.3054971  65.6899321  50.1829395  14.3668461  64.6241094
  50.6489847  15.1996453  64.5501397  50.6336895  13.9013443  65.3286353
  40.1251230  22.3694333  73.3379339  40.8260690  23.0030816  73.4908734
  39.6546345  22.7109064  72.5774979  48.2505626  20.7112283  61.6227246
  48.5265470  20.5968877  62.5321120  47.3810125  20.3129768  61.5839419
  48.1546058   6.7349048  68.6631996  47.2409138   6.9653275  68.8314203
  48.5839159   6.8187492  69.5146028  47.9252516  14.9238940  71.1631890
  47.2723966  15.1714848  70.5084342  48.3032896  14.1103079  70.8294367
  44.8859690  24.9598634  65.2660060  45.0682085  24.1420290  65.7287812
  45.7092676  25.1766326  64.8284950  45.2201856  23.8866819  62.5275108
  45.7489622  23.3759273  61.9145271  45.4830075  23.5709349  63.3920642
  43.9740089  15.6658751  77.6497927  43.2980726  15.5652881  78.3200302
  44.7967723  15.5097965  78.1133924  35.7218948  21.9030688  70.2710442
  36.3072385  21.1574376  70.4038346  35.5243787  22.2134645  71.1547106
  38.5757604  24.9381935  65.2872884  37.9067979  25.4228063  64.8036924
  38.4370473  25.1851156  66.2016263  30.3136603  14.4736288  68.9914885
  30.3520703  13.9399879  69.7852003  29.8076896  13.9471494  68.3725862
  42.7162872  26.9725679  71.8855543  43.2681180  27.1357300  72.6504628
  43.0569066  27.5630117  71.2135568  37.6927365   9.3200829  72.4877427
  37.7568692  10.1815660  72.0754825  37.6294486   8.7074830  71.7549786
  37.1679638  11.3923961  76.1350462  37.7951677  11.0101039  76.7487986
  36.3107557  11.1738163  76.5006154  47.5673746  21.7986936  77.7404197
  48.1113650  22.4116895  77.2459152  46.9860591  22.3566515  78.2571210
  33.9445181  13.2000390  62.0668817  34.2398622  12.2911069  62.0135870
  33.0433216  13.1788130  61.7449819  45.8531259  24.9207654  68.8719225
  45.7282399  24.1197394  68.3630170  46.5110351  25.4153848  68.3833195
  37.4739428  11.2756387  68.0496365  36.7526013  11.8892355  67.9103838
  38.2632683  11.8114152  67.9713011  47.9166168  22.7216675  70.4998775
  46.9696503  22.6022026  70.4277102  48.2648941  21.8339173  70.5825036
  40.2765741   8.6110813  74.3237017  40.8000143   8.8573110  75.0863326
  40.0578074   9.4430848  73.9040154  35.6733022  10.8814488  62.1908142
  35.3445728  10.0011867  62.0083248  36.0272393  10.8262157  63.0784531
  44.9212601  22.5169391  66.7003127  44.7737564  21.5886098  66.8810697
  45.7466095  22.5389481  66.2160202  38.7874845  11.1687458  62.5583619
  39.1270918  11.6973379  61.8362228  39.2346966  11.5067864  63.3342186
  48.5246723  23.3397949  67.7868000  49.4493270  23.1340811  67.6492451
  48.3562026  23.0914351  68.6957342  41.4818286   9.5524509  72.0086687
  41.1415107   8.7532322  72.4107367  40.7757292   9.8526219  71.4363521
  42.1334758   6.6373821  70.4614010  42.9560827   6.1634299  70.3392901
  42.3772822   7.4164305  70.9612697  40.7742993   9.6662079  60.7576912
  41.4951355  10.0443332  60.2540629  40.1508297  10.3850956  60.8611890
  44.9174115  10.3707228  61.6935244  45.1337730  11.2531866  61.3924073
  44.4368183   9.9793442  60.9640886  39.6573337  13.3292942  68.2705989
  39.5117918  13.6433245  69.1630271  39.1798540  13.9477842  67.7176888
  41.5169720  10.3195490  68.3186879  41.5031288   9.4236583  67.9819177
  42.2342148  10.3266153  68.9525165  43.3695850  10.7532830  70.3640006
  43.1113628  11.6749900  70.3624337  42.8380891  10.3563264  71.0540470
  48.3142039  23.8583617  63.1430091  48.4878917  23.2930039  62.3903944
  48.8070930  24.6584512  62.9609581  34.1318999  15.8698286  71.2093650
  33.5872467  16.6458094  71.3413925  35.0098349  16.2169090  71.0512772
  40.9206616   9.2009870  63.5874449  41.0422527   8.2726516  63.7865336
  40.6308658   9.2148556  62.6752764  43.7897806   6.8864780  66.7241169
  43.8119503   6.9504113  65.7693148  44.2065865   6.0469289  66.9181675
  54.1681430  16.6220040  64.7620391  54.6112576  15.8727365  64.3639514
  53.2907941  16.6130176  64.3794123  49.3017212  23.1750381  60.2426990
  49.9968116  23.7957074  60.4614304  49.6440362  22.3245733  60.5179368
  34.9185021  14.9968182  74.1023807  34.1766757  15.1450818  74.6888438
  34.5977765  15.2576448  73.2390557  51.2008635  20.6250087  61.7714321
  51.7259959  20.9637360  61.0463641  51.1130987  19.6897102  61.5877455
  42.8628683  24.5384160  73.9004197  43.1715810  24.2933307  74.7726897
  43.6604165  24.7430799  73.4123067  42.8849296  26.6922070  66.1309574
  42.4454286  26.1998449  66.8242430  43.6357412  26.1495038  65.8901649
  35.3641634  22.8833611  66.1334202  36.1899654  22.5837383  65.7532845
  35.0135686  22.1141233  66.5823990  40.3323168  22.2360079  68.2031875
  39.7103177  21.5730784  67.9034103  41.0028035  22.2621211  67.5205523
  33.5650240  20.8019937  67.0923135  32.7282148  20.3742112  66.9107137
  33.5373885  20.9952381  68.0293927  40.4047695  10.7141867  77.7964381
  40.4535851  11.5903990  77.4142151  40.9470209  10.1719260  77.2236025
  50.8902541  21.2582990  77.0765518  50.0998085  21.2407129  76.5370018
  50.6535895  21.7971284  77.8314555  51.0100416  18.1075457  74.3898247
  51.0598421  17.9425464  75.3313770  50.9014339  17.2402716  73.9996128
  39.8936675  20.7864003  61.6790336  40.0424795  21.4699467  61.0257009
  40.7003118  20.7669093  62.1939792  48.3004178  14.0906385  75.7057554
  49.2014041  13.9512850  75.4141552  48.3752153  14.2560840  76.6455731
  42.6346984  11.4673240  74.5510740  41.7650293  11.7606806  74.2793329
  42.8706464  12.0513685  75.2718004  52.5118613  20.5272398  74.6340269
  52.2203421  20.8902379  75.4703730  51.8990744  19.8139407  74.4553601
  53.7114295  18.0925278  67.1542839  54.5461186  18.5315082  67.3180399
  53.8473424  17.6163931  66.3351085  50.7605801  15.6505013  73.1020327
  51.2359923  15.8432659  72.2939178  49.8371366  15.7064199  72.8563710
  37.6489308  16.8129180  62.6851405  37.4035349  15.9091510  62.8831615
  37.8185222  16.8146331  61.7430883  45.3386017   7.6852857  72.0676160
  45.8567961   8.4213883  71.7422649  44.9841150   7.9916850  72.9022920
  36.9184955  12.5457538  60.1837566  36.2254200  12.6201893  59.5277602
  36.6736707  11.7817881  60.7059083  45.5898612   4.1053139  67.5877057
  45.8700365   3.4376328  68.2137484  46.3749219   4.2982235  67.0751721
  43.3932080  23.2812133  59.1502083  42.8206047  23.9002320  58.6972555
  43.9664874  23.8311495  59.6842005  49.4607470  12.5270773  71.3348632
  50.4124893  12.6268871  71.3560856  49.2910920  11.7349042  71.8446717
  47.4821849   9.6126356  71.5208033  46.8871782   9.8931369  70.8254522
  47.1971546  10.1020257  72.2924774  46.6129340  23.5649283  60.2810666
  47.5460013  23.4994845  60.4843541  46.5252553  24.4005550  59.8225198
  49.2417357  22.8815153  57.2414613  49.1630988  22.5475017  58.1350371
  50.0627023  23.3736921  57.2406086  51.9395548  15.7476893  70.4490932
  51.9071868  14.8092894  70.6350616  52.5496171  15.8260929  69.7156757
  43.7778879  14.6172946  56.4918136  44.7237983  14.4879154  56.5606554
  43.3993124  13.8787608  56.9687564  52.0890036  12.5387936  70.4949215
  51.5729085  11.7546393  70.3079144  52.9729985  12.2106653  70.6595734
  49.7500763   6.2828952  66.4545028  49.5525584   5.9744040  67.3388360
  50.3600469   7.0090591  66.5842958  57.7572098  16.8092900  69.5896969
  58.4875486  16.5478188  70.1504672  57.1479043  16.0721622  69.6299037
  55.8387395  14.9500762  70.1871420  55.1120558  14.8156727  69.5787911
  55.4234682  15.2577591  70.9928138  43.6617571  18.6690692  77.9518793
  44.5820581  18.8469291  78.1458839  43.6267154  17.7246737  77.7998492
  41.9621796  12.5422922  56.4273021  41.0553251  12.2456035  56.5035735
  42.2397777  12.2452740  55.5607307  32.8799736  13.8629286  66.8772067
  32.5602520  13.0094594  66.5846441  32.3333164  14.0777864  67.6330035
  36.6579644  16.5791727  70.5941574  36.8765653  17.5108834  70.6129608
  37.0705418  16.2199701  71.3796378  43.5783861   7.0859812  62.5817262
  42.7684590   6.7406897  62.9572508  44.2668278   6.7767356  63.1704874
  45.5074410   6.1637859  64.2041559  46.0605448   6.5833312  64.8631582
  45.7444496   5.2373607  64.2464515  41.5307509  12.1524932  79.9844323
  41.4304236  13.1019289  79.9156414  41.3129051  11.8243171  79.1120393
  40.7320580   9.4009857  56.5685000  41.5939744   9.7264756  56.8280818
  40.9170925   8.6141353  56.0558066  32.7487996  17.4832197  68.8465189
  32.0551468  17.0686150  68.3335143  33.4960987  17.5252734  68.2498608
  48.8853217   8.2738384  63.7120223  48.3051886   8.9323188  63.3298276
  48.6189150   7.4515728  63.3007641  47.3356783   7.6743442  65.9141544
  47.8356562   7.7859976  65.1055862  47.9792391   7.3704494  66.5542352
  41.3938779  15.5822071  78.8009385  40.9105861  16.3822431  79.0073274
  41.4799718  15.5930016  77.8476829  34.6624739  17.4150451  66.7231204
  34.6395427  17.5138138  65.7713087  34.9725375  18.2615602  67.0448370
  37.3212117  19.4726606  70.8377818  38.2755370  19.4410548  70.7707750
  37.1224640  19.0117230  71.6528044  37.9111499  18.0427722  73.4048616
  38.7304388  18.5371801  73.4283453  38.1848306  17.1259690  73.3766184
  47.6678095  10.4338474  62.7676572  46.7803950  10.7188125  62.5496766
  48.0832084  10.2732238  61.9203848  51.0192631  10.4584995  66.4830911
  51.7953021  10.9481448  66.7555528  50.2940765  10.8843049  66.9402780
  53.4565190  11.1712614  67.5404851  54.0509680  10.9308350  66.8298160
  53.5291773  10.4519745  68.1678388  35.6762345  25.0146225  67.8548016
  35.5416813  24.2546626  67.2886014  35.2594408  25.7387125  67.3876805
  46.8121308  20.1983149  56.8624591  47.5157158  20.4033151  57.4782247
  46.0883957  20.7659911  57.1273675  47.6419119  15.9493010  62.9826862
  47.5854320  16.4061562  62.1434494  48.1947461  15.1883695  62.8049704
  51.4523925  11.7382742  63.8076981  51.1960859  11.3379378  64.6385189
  50.8276793  12.4526536  63.6827120  55.7636262  14.4778815  66.3148273
  55.2035820  14.5472005  67.0879835  55.1579766  14.3019800  65.5947769
  38.8331471  25.9115542  68.0666459  38.7163855  26.8560975  67.9645149
  38.0123917  25.6089104  68.4552258  48.7208006  20.6365678  58.9123052
  49.5553610  20.2046877  58.7300526  48.5592349  20.4647692  59.8399946
  48.3753898  17.1397791  60.2779391  48.3202702  16.9742063  59.3367835
  47.7499953  17.8473824  60.4341581  33.1646413  12.3765856  74.1040813
  33.8105277  11.8664810  74.5928038  32.9563564  13.1134537  74.6784238
  45.6899805  19.4446703  79.6032954  46.5590965  19.6187356  79.2419589
  45.2106557  20.2641120  79.4808683  41.6850023   6.6405900  59.8564709
  41.6728693   7.5847740  60.0132980  42.5773445   6.4576046  59.5624170
  39.8585985  26.5643804  71.2822387  40.7613232  26.5967415  71.5988882
  39.6323355  25.6344255  71.2968723  41.6139587  25.3174791  67.9432466
  40.6635218  25.3176652  67.8296838  41.9172073  24.5707525  67.4268501
  45.5002143   3.2348677  64.1110646  44.7334539   2.6807164  64.2567328
  45.9112848   3.3070546  64.9724798  37.5043904   9.5233473  78.2015827
  38.3675365   9.1670278  78.4119152  36.9309315   9.1847368  78.8891232
  57.3492281  31.1535329  69.0078228  57.9870691  31.0342077  68.3041568
  57.2313124  32.1016173  69.0666180  54.1581987  31.1062757  68.9439753
  53.8200499  30.9903822  68.0560288  55.0271755  30.7053922  68.9240759
  50.0168803  32.9598234  64.9336644  49.4533668  32.8688171  64.1652932
  49.9021198  32.1398138  65.4139136  54.6401770  32.2597609  74.9025959
  54.6290411  31.8650407  74.0306462  54.8022410  31.5263682  75.4959730
  47.5633235  34.4549425  67.7720864  48.3554527  34.1140250  67.3567164
  47.8029885  34.5644400  68.6923018  55.5968362  36.6269201  60.2451109
  54.9456341  37.2123282  59.8585123  56.3912724  37.1575396  60.3046146
  49.5223989  33.7158339  60.6438243  50.2954865  33.1687326  60.5051119
  49.8749388  34.5802588  60.8552705  51.3609031  35.0434721  73.8505142
  51.0698897  35.9480352  73.7351809  51.9966016  35.0851248  74.5649212
  52.2865238  32.4211569  70.4406502  52.8828810  32.1967592  69.7263465
  52.3440210  31.6796315  71.0431950  51.8590267  29.8751005  58.2756693
  52.1115787  29.3532526  57.5140156  50.9214826  29.7117150  58.3783377
  56.9033549  28.8786783  66.0831436  57.6896639  28.4606206  65.7321853
  57.1672254  29.7832875  66.2513085  57.0743627  34.3159633  60.7820093
  56.4389460  34.3894260  61.4940998  56.7441033  34.9053232  60.1039172
  62.3041976  28.8162016  66.9864415  63.0367148  28.2461233  67.2202244
  61.5481332  28.4283617  67.4270920  51.5786555  31.7779111  60.4781068
  51.4622813  31.1024014  61.1462152  51.6888815  31.2911485  59.6613221
  53.9218096  31.2389258  64.1827757  53.5576303  30.7119879  64.8940679
  54.7785212  30.8487727  64.0094243  59.8267397  22.5283590  71.4459023
  59.4950722  23.3979001  71.2220238  59.2313010  22.2119874  72.1253054
  53.5623583  26.2679157  59.1789106  53.7297986  27.1359394  59.5459577
  53.3720752  26.4306439  58.2550395  56.3198916  34.7296136  70.8454936
  56.0199639  35.6321175  70.7370743  55.9749976  34.4628320  71.6976089
  49.7711398  31.1809933  66.8791641  48.8461894  31.0486147  67.0869332
  50.0195811  31.9604152  67.3761583  59.7196060  27.2478677  68.5252374
  58.8112937  27.1794085  68.2311134  59.6683656  27.7250621  69.3534199
  53.5412804  28.7236815  60.1635773  53.4212429  29.1693866  61.0021253
  52.8465392  29.0722133  59.6049311  47.1320209  30.8243207  67.7135430
  47.2612590  31.0777686  68.6274841  46.4517660  31.4170915  67.3940085
  53.7936926  28.6668322  76.4687271  53.0170260  29.2262242  76.4590135
  54.4327489  29.1525105  76.9902141  61.5857707  25.4495115  70.3030247
  60.9432087  25.7427648  69.6570042  61.0812635  25.3348035  71.1083444
  59.2397870  29.1958288  60.9916107  60.1515726  29.4285675  60.8163804
  58.7307517  29.7795332  60.4291185  52.0483298  31.4753775  76.0305238
  52.7897983  32.0138819  75.7540061  51.3420284  32.1020064  76.1876790
  57.5238638  33.6182916  74.6277399  57.9321994  33.1765326  73.8832032
  56.8015899  33.0435543  74.8811592  53.8769708  28.5555523  72.0010956
  54.7230903  28.9794936  72.1445605  53.8168346  27.8989147  72.6949519
  57.8467452  34.1784107  68.3829688  57.2176315  34.3429821  67.6805756
  57.4593115  34.5925716  69.1540652  61.7256684  35.1138544  65.7374052
  61.0407723  35.4937446  65.1871085  61.8100534  35.7233871  66.4706000
  57.0269153  26.2159891  73.6592130  56.7830085  26.9701952  73.1226406
  57.3029084  26.5945239  74.4939377  58.9807616  32.7598503  72.3369395
  59.1924511  33.4030263  71.6603777  58.9337364  31.9260820  71.8691326
  56.5833845  25.3716324  69.2405968  55.7218324  25.6697578  69.5322705
  56.6096280  25.5886723  68.3087000  53.3995414  33.9158515  65.6479773
  53.8633760  34.1946218  64.8584396  53.1352212  33.0141959  65.4652864
  50.2919495  33.4629996  68.5859537  50.8620853  33.8917265  67.9477021
  50.8827607  33.1812581  69.2843722  52.3364300  30.0381667  62.4569338
  53.0388344  30.4902711  62.9243265  52.0044929  29.3965486  63.0849232
  50.7844662  28.6293424  76.8320548  50.1543323  29.3109705  77.0655945
  50.6780750  28.5176505  75.8873686  46.0789634  28.2965220  67.7586472
  45.2888688  28.5522748  67.2826583  46.5700882  29.1113558  67.8638512
  60.0953444  35.6370459  70.5091753  60.9170888  35.2350646  70.2274434
  60.0915847  35.5338693  71.4607869  48.0304380  28.6609799  64.7169949
  47.2335543  28.7728493  65.2353444  47.8029972  28.9996451  63.8510839
  53.8610047  35.1854502  72.6652463  53.9254480  35.6474909  73.5010635
  53.1520971  34.5551867  72.7934773  44.3627337  28.5495710  70.1901463
  44.6135376  29.4342720  70.4559039  44.8986886  28.3700312  69.4176555
  68.1859437  31.9809207  66.8576724  67.4323145  31.4116605  66.7020729
  68.3206978  31.9471872  67.8047359  53.5758065  36.8522610  62.5331444
  53.4403740  37.6974145  62.9616291  54.1167878  37.0541887  61.7697377
  50.0625405  22.9314189  79.1945799  49.6692350  22.3780388  79.8693443
  50.8791545  23.2424768  79.5852316  47.0287462  34.3698048  63.1059369
  47.5411983  35.1641298  63.2564933  47.6810175  33.6724338  63.0392970
  48.8382347  37.4863804  65.1882122  49.0148975  38.4081769  65.0003106
  49.6339181  37.1722223  65.6176502  52.9793366  24.3472069  76.7866055
  53.7203079  24.9479222  76.7070518  53.2111288  23.6049706  76.2284098
  48.1234704  29.5328436  75.0644285  48.0088219  28.6313693  75.3651384
  47.2679221  29.7792133  74.7129102  55.2026541  37.4746176  76.6631786
  54.7590396  36.6882555  76.3452690  55.8643755  37.6625327  75.9975676
  49.9613663  39.0041978  71.1892464  50.5121088  38.8759041  70.4169458
  49.1225139  39.3036867  70.8387357  57.3007779  37.7548976  74.6913187
  57.2826255  38.5757857  74.1993456  58.2227700  37.6303051  74.9163328
  53.7580834  35.2693106  75.5336695  54.2909170  34.5081394  75.3036003
  53.2294915  34.9766757  76.2760850  56.9250529  20.3753172  71.0630337
  56.5814798  21.2654813  70.9869448  57.2929491  20.1854829  70.1999922
  44.9936379  32.6986702  63.8818939  45.8311601  33.1083710  63.6652647
  45.1714647  31.7586144  63.8519133  56.8900811  30.3661783  59.5702772
  56.3747435  31.1366387  59.8091160  56.6178120  29.6926919  60.1935834
  54.4747922  25.2111483  64.6288011  53.6189519  24.8218334  64.4493649
  54.8874874  25.2903444  63.7687796  56.0047069  22.7457827  69.0279570
  55.5011865  22.7087962  68.2147376  56.2977676  23.6550569  69.0876227
  52.2489955  22.8296556  68.0345752  53.1142952  22.6339365  67.6751642
  52.3167464  22.6006908  68.9615109  61.8635085  33.1194137  61.5055946
  61.0864528  32.7805297  61.0611108  62.5426566  33.1246760  60.8310911
  56.6787115  28.2388875  61.3962553  56.3737250  28.5535024  62.2472697
  57.6317557  28.3170295  61.4389886  55.1233546  34.3979098  63.0455507
  54.5954908  33.6631858  62.7328745  54.6221049  35.1753774  62.7995476
  60.1026392  32.5928119  68.1622554  59.4450067  33.2827380  68.2502682
  60.9066792  32.9824550  68.5056540  49.8552274  25.0598764  65.4062119
  50.4296026  24.8373946  64.6735312  50.4423256  25.1287459  66.1590720
  58.9131851  30.9472491  66.2126495  59.4263733  31.5802483  66.7148205
  59.5633075  30.3473687  65.8469855  50.1821861  27.0903225  59.4258004
  49.3459173  27.4277912  59.7467279  50.0426631  26.9552205  58.4885141
  52.1574942  21.9340013  64.1337188  51.5039354  21.6189030  63.5093803
  52.1155416  21.3115754  64.8597011  53.2686147  32.2159308  56.0490480
  52.3613208  31.9848562  56.2481629  53.7657179  31.4196928  56.2364462
  55.3912682  28.4221947  68.4584836  54.4735243  28.6436894  68.3006524
  55.8072826  28.4968257  67.5996543  56.1747730  29.8213362  63.5887516
  56.9219549  30.3334760  63.2794638  56.4439319  29.4997415  64.4491910
  54.4474380  32.3171903  60.5714470  53.5385599  32.0330936  60.6686940
  54.4769464  32.7370982  59.7117777  59.6793647  35.9278493  64.3405638
  59.2255974  35.0869403  64.3970829  59.0487614  36.5639891  64.6780418
  58.6226567  26.8570479  65.5706305  57.8849324  26.3447865  65.9016548
  58.8753340  26.4170860  64.7589582  58.1226587  37.7654989  65.2755456
  58.4149561  38.3260046  64.5567822  58.6325207  38.0583550  66.0308615
  58.7238194  19.6346731  66.1648075  59.0297071  18.7744094  65.8773990
  59.4490799  20.2264351  65.9647069  45.0162550  30.0377417  64.5529673
  44.8186950  29.4446778  63.8280739  44.4609214  29.7329627  65.2705611
  52.9959274  29.9300524  66.6724266  53.0507884  28.9774360  66.5966742
  52.1850476  30.0859963  67.1565564  54.1450468  33.8580647  57.9102549
  53.7069898  33.1416506  57.4508186  54.8860909  34.0856762  57.3487640
  50.9351634  28.5477584  64.4314645  50.1219499  28.8471754  64.8379837
  51.4310628  28.1533272  65.1489127  53.0860212  38.5435340  66.3648909
  53.0436391  38.7696187  65.4357441  54.0022911  38.3098715  66.5134711
  56.5325846  29.0119408  73.2629539  56.8875233  29.2390881  74.1224004
  57.1797977  29.3437785  72.6406794  62.2623583  32.1337844  63.9678868
  62.1241481  32.3239440  63.0400057  61.9059801  32.8957227  64.4246919
  50.4265709  26.1195939  70.0475880  51.0665088  25.9784698  69.3498843
  49.5943239  25.8330452  69.6714482  62.2892962  34.2014371  68.9790139
  62.7229469  34.1089660  69.8273193  63.0024543  34.1771871  68.3410155
  51.2026013  35.4198369  66.1610872  51.9966611  34.9248690  65.9593447
  50.4917705  34.8916233  65.7978578  56.0220857  37.8016465  70.5123240
  56.0757879  38.3707401  71.2800956  55.1535638  37.9718350  70.1477277
  47.5108776  29.5641451  62.2370625  46.5806364  29.5025907  62.4540587
  47.6066248  29.0417404  61.4407266  47.4294325  26.0896264  64.8248866
  47.6901142  27.0041597  64.7158027  48.2511497  25.6220707  64.9745479
  48.9019250  27.5034021  71.9947691  49.5742304  27.2951383  71.3460340
  48.0749037  27.3056107  71.5552923  63.1508512  34.2438072  71.5123025
  63.3444402  35.1483882  71.7582299  63.0509130  33.7845491  72.3461610
  54.8044822  24.1295962  74.0113352  54.1572737  24.8285912  73.9177828
  55.5745838  24.5632106  74.3789600  58.2123620  34.3944814  77.0863905
  58.0609127  34.1655366  76.1693989  58.2028300  35.3515416  77.0995250
  54.9808957  31.9676727  72.0710172  55.9101017  32.1187887  71.8979139
  54.5599987  32.0560748  71.2158818  53.7797289  35.9927391  69.8408709
  53.6408374  35.6246176  70.7134647  52.9911885  36.5075031  69.6692667
  55.3302504  35.3708994  67.2297547  54.9952336  35.3309764  68.1255197
  54.8306449  34.7053710  66.7567957  49.3046748  30.7776624  72.7550128
  49.1666546  30.0456863  73.3561667  50.2151671  30.6885524  72.4734316
  58.2661695  32.7165028  57.5034607  57.6490866  31.9911857  57.4067659
  57.7978184  33.4774389  57.1601681  51.9329048  30.4896584  72.2433808
  52.6428667  29.8489776  72.2020426  51.8898357  30.7409478  73.1659989
  59.9215827  37.4263937  75.1640387  59.8628373  36.7423157  74.4970970
  60.3235345  38.1682927  74.7121013  50.6457982  27.4761801  74.0629447
  50.1095339  27.0252540  74.7151044  50.0574691  27.6107710  73.3199912
  50.0560241  26.9350453  56.6255911  49.1789708  26.8139254  56.2618158
  50.5317994  26.1436531  56.3734800  59.9233234  35.3903521  73.3954367
  59.0360013  35.0529443  73.5180766  60.4931785  34.6586552  73.6323132
  41.5762381  31.7227613  66.7197418  42.2633421  31.4089343  66.1318433
  41.4210510  32.6268977  66.4464669  46.3797104  26.6117809  71.1482442
  46.2955292  26.0043479  70.4132852  45.5579810  27.1026827  71.1491938
  53.4534388  40.0504973  70.3615610  53.3804559  40.8559945  70.8734914
  53.0111781  40.2496939  69.5363631  53.2424167  39.2876743  63.8718431
  52.4591689  39.8298423  63.9656656  53.9416913  39.8050723  64.2712673
  56.5520817  25.0971373  66.5152637  57.0489517  24.3441335  66.1953707
  55.7807799  25.1335689  65.9495846  64.4050575  30.8011738  68.1570928
  64.3940451  31.6836454  67.7864861  63.5367954  30.4483289  67.9625465
  55.9133071  39.9491807  72.5173769  56.6261043  40.5839272  72.4449670
  55.4223100  40.0455673  71.7013770  57.6350598  33.8543060  64.0891060
  56.7006877  33.9744522  63.9195765  57.8127267  32.9515527  63.8251070
  53.1355786  27.2388756  66.2424321  52.7653574  26.6859796  66.9305227
  53.6314879  26.6346889  65.6899321  61.0223149  29.6960379  64.6241094
  61.4883602  30.5288371  64.5501397  61.4730650  29.2305361  65.3286353
  50.9644985  37.6986251  73.3379339  51.6654444  38.3322734  73.4908734
  50.4940100  38.0400982  72.5774979  59.0899381  36.0404200  61.6227246
  59.3659224  35.9260795  62.5321120  58.2203879  35.6421685  61.5839419
  58.9939812  22.0640966  68.6631996  58.0802892  22.2945193  68.8314203
  59.4232914  22.1479410  69.5146028  58.7646271  30.2530858  71.1631890
  58.1117721  30.5006766  70.5084342  59.1426651  29.4394996  70.8294367
  55.7253445  40.2890551  65.2660060  55.9075839  39.4712207  65.7287812
  56.5486431  40.5058244  64.8284950  56.0595610  39.2158736  62.5275108
  56.5883377  38.7051191  61.9145271  56.3223830  38.9001267  63.3920642
  54.8133844  30.9950669  77.6497927  54.1374481  30.8944798  78.3200302
  55.6361478  30.8389883  78.1133924  46.5612703  37.2322606  70.2710442
  47.1466140  36.4866294  70.4038346  46.3637541  37.5426562  71.1547106
  41.1530358  29.8028206  68.9914885  41.1914457  29.2691797  69.7852003
  40.6470650  29.2763411  68.3725862  53.5556627  42.3017597  71.8855543
  54.1074935  42.4649218  72.6504628  53.8962820  42.8922034  71.2135568
  48.5321120  24.6492746  72.4877427  48.5962446  25.5107577  72.0754825
  48.4688240  24.0366748  71.7549786  48.0073392  26.7215879  76.1350462
  48.6345431  26.3392956  76.7487986  47.1501311  26.5030081  76.5006154
  58.4067501  37.1278854  77.7404197  58.9507405  37.7408812  77.2459152
  57.8254346  37.6858433  78.2571210  44.7838935  28.5292308  62.0668817
  45.0792376  27.6202986  62.0135870  43.8826971  28.5080047  61.7449819
  56.6925014  40.2499572  68.8719225  56.5676153  39.4489312  68.3630170
  57.3504105  40.7445765  68.3833195  48.3133182  26.6048305  68.0496365
  47.5919768  27.2184272  67.9103838  49.1026438  27.1406069  67.9713011
  58.7559922  38.0508592  70.4998775  57.8090258  37.9313943  70.4277102
  59.1042695  37.1631090  70.5825036  51.1159496  23.9402731  74.3237017
  51.6393897  24.1865028  75.0863326  50.8971829  24.7722766  73.9040154
  46.5126777  26.2106406  62.1908142  46.1839483  25.3303785  62.0083248
  46.8666147  26.1554074  63.0784531  55.7606356  37.8461308  66.7003127
  55.6131318  36.9178016  66.8810697  56.5859849  37.8681399  66.2160202
  49.6268600  26.4979375  62.5583619  49.9664672  27.0265297  61.8362228
  50.0740720  26.8359782  63.3342186  59.3640477  38.6689867  67.7868000
  60.2887025  38.4632728  67.6492451  59.1955781  38.4206268  68.6957342
  52.3212041  24.8816426  72.0086687  51.9808861  24.0824239  72.4107367
  51.6151047  25.1818137  71.4363521  52.9728513  21.9665739  70.4614010
  53.7954582  21.4926217  70.3392901  53.2166576  22.7456222  70.9612697
  51.6136747  24.9953997  60.7576912  52.3345110  25.3735250  60.2540629
  50.9902051  25.7142874  60.8611890  55.7567870  25.6999146  61.6935244
  55.9731484  26.5823784  61.3924073  55.2761937  25.3085359  60.9640886
  50.4967091  28.6584859  68.2705989  50.3511672  28.9725162  69.1630271
  50.0192295  29.2769760  67.7176888  52.3563474  25.6487407  68.3186879
  52.3425043  24.7528501  67.9819177  53.0735902  25.6558071  68.9525165
  54.2089605  26.0824747  70.3640006  53.9507383  27.0041818  70.3624337
  53.6774645  25.6855182  71.0540470  59.1535794  39.1875535  63.1430091
  59.3272671  38.6221957  62.3903944  59.6464685  39.9876429  62.9609581
  44.9712753  31.1990204  71.2093650  44.4266222  31.9750012  71.3413925
  45.8492103  31.5461008  71.0512772  51.7600370  24.5301788  63.5874449
  51.8816281  23.6018434  63.7865336  51.4702412  24.5440474  62.6752764
  54.6291560  22.2156698  66.7241169  54.6513257  22.2796031  65.7693148
  55.0459620  21.3761207  66.9181675  65.0075185  31.9511958  64.7620391
  65.4506331  31.2019283  64.3639514  64.1301695  31.9422094  64.3794123
  60.1410966  38.5042299  60.2426990  60.8361871  39.1248992  60.4614304
  60.4834116  37.6537650  60.5179368  45.7578775  30.3260100  74.1023807
  45.0160511  30.4742735  74.6888438  45.4371520  30.5868366  73.2390557
  53.7022438  39.8676078  73.9004197  54.0109564  39.6225225  74.7726897
  54.4997920  40.0722717  73.4123067  53.7243050  42.0213988  66.1309574
  53.2848040  41.5290366  66.8242430  54.4751167  41.4786955  65.8901649
  51.1716922  37.5651997  68.2031875  50.5496931  36.9022702  67.9034103
  51.8421789  37.5913129  67.5205523  44.4043994  36.1311855  67.0923135
  43.5675902  35.7034029  66.9107137  44.3767639  36.3244298  68.0293927
  51.2441450  26.0433785  77.7964381  51.2929605  26.9195908  77.4142151
  51.7863964  25.5011178  77.2236025  61.7296295  36.5874908  77.0765518
  60.9391839  36.5699047  76.5370018  61.4929650  37.1263202  77.8314555
  61.8494170  33.4367375  74.3898247  61.8992175  33.2717382  75.3313770
  61.7408094  32.5694634  73.9996128  50.7330429  36.1155920  61.6790336
  50.8818549  36.7991385  61.0257009  51.5396873  36.0961010  62.1939792
  59.1397933  29.4198303  75.7057554  60.0407796  29.2804767  75.4141552
  59.2145907  29.5852757  76.6455731  53.4740738  26.7965157  74.5510740
  52.6044047  27.0898723  74.2793329  53.7100218  27.3805602  75.2718004
  63.3512367  35.8564316  74.6340269  63.0597176  36.2194297  75.4703730
  62.7384498  35.1431324  74.4553601  64.5508050  33.4217196  67.1542839
  65.3854941  33.8607000  67.3180399  64.6867178  32.9455849  66.3351085
  61.5999555  30.9796931  73.1020327  62.0753677  31.1724577  72.2939178
  60.6765121  31.0356117  72.8563710  48.4883062  32.1421098  62.6851405
  48.2429104  31.2383428  62.8831615  48.6578977  32.1438248  61.7430883
  56.1779772  23.0144774  72.0676160  56.6961716  23.7505801  71.7422649
  55.8234905  23.3208768  72.9022920  47.7578710  27.8749455  60.1837566
  47.0647955  27.9493810  59.5277602  47.5130461  27.1109799  60.7059083
  56.4292366  19.4345057  67.5877057  56.7094120  18.7668246  68.2137484
  57.2142973  19.6274152  67.0751721  60.3001224  27.8562691  71.3348632
  61.2518647  27.9560788  71.3560856  60.1304675  27.0640959  71.8446717
  58.3215604  24.9418274  71.5208033  57.7265536  25.2223287  70.8254522
  58.0365301  25.4312175  72.2924774  57.4523094  38.8941201  60.2810666
  58.3853768  38.8286762  60.4843541  57.3646307  39.7297468  59.8225198
  60.0811111  38.2107071  57.2414613  60.0024743  37.8766935  58.1350371
  60.9020778  38.7028839  57.2406086  62.7789302  31.0768810  70.4490932
  62.7465622  30.1384811  70.6350616  63.3889926  31.1552847  69.7156757
  54.6172633  29.9464863  56.4918136  55.5631738  29.8171072  56.5606554
  54.2386878  29.2079525  56.9687564  62.9283791  27.8679854  70.4949215
  62.4122839  27.0838311  70.3079144  63.8123739  27.5398571  70.6595734
  60.5894518  21.6120869  66.4545028  60.3919339  21.3035958  67.3388360
  61.1994223  22.3382508  66.5842958  68.5965852  32.1384817  69.5896969
  69.3269241  31.8770105  70.1504672  67.9872798  31.4013539  69.6299037
  66.6781149  30.2792680  70.1871420  65.9514313  30.1448645  69.5787911
  66.2628436  30.5869508  70.9928138  54.5011326  33.9982610  77.9518793
  55.4214335  34.1761209  78.1458839  54.4660909  33.0538655  77.7998492
  52.8015550  27.8714840  56.4273021  51.8947006  27.5747953  56.5035735
  53.0791531  27.5744658  55.5607307  43.7193491  29.1921203  66.8772067
  43.3996275  28.3386511  66.5846441  43.1726919  29.4069781  67.6330035
  47.4973398  31.9083644  70.5941574  47.7159408  32.8400752  70.6129608
  47.9099172  31.5491619  71.3796378  54.4177616  22.4151730  62.5817262
  53.6078344  22.0698815  62.9572508  55.1062033  22.1059273  63.1704874
  56.3468164  21.4929776  64.2041559  56.8999203  21.9125230  64.8631582
  56.5838251  20.5665524  64.2464515  52.3701263  27.4816850  79.9844323
  52.2697990  28.4311207  79.9156414  52.1522806  27.1535089  79.1120393
  51.5714335  24.7301775  56.5685000  52.4333499  25.0556673  56.8280818
  51.7564679  23.9433271  56.0558066  43.5881751  32.8124115  68.8465189
  42.8945222  32.3978068  68.3335143  44.3354742  32.8544651  68.2498608
  59.7246971  23.6030301  63.7120223  59.1445640  24.2615106  63.3298276
  59.4582904  22.7807646  63.3007641  58.1750538  23.0035359  65.9141544
  58.6750316  23.1151894  65.1055862  58.8186146  22.6996412  66.5542352
  52.2332534  30.9113989  78.8009385  51.7499615  31.7114349  79.0073274
  52.3193473  30.9221934  77.8476829  45.5018493  32.7442369  66.7231204
  45.4789181  32.8430056  65.7713087  45.8119130  33.5907519  67.0448370
  48.1605871  34.8018524  70.8377818  49.1149125  34.7702466  70.7707750
  47.9618395  34.3409147  71.6528044  48.7505253  33.3719640  73.4048616
  49.5698142  33.8663718  73.4283453  49.0242061  32.4551608  73.3766184
  58.5071849  25.7630392  62.7676572  57.6197704  26.0480043  62.5496766
  58.9225838  25.6024155  61.9203848  61.8586386  25.7876913  66.4830911
  62.6346776  26.2773365  66.7555528  61.1334520  26.2134967  66.9402780
  64.2958944  26.5004532  67.5404851  64.8903435  26.2600268  66.8298160
  64.3685528  25.7811663  68.1678388  57.6515063  35.5275067  56.8624591
  58.3550913  35.7325069  57.4782247  56.9277712  36.0951828  57.1273675
  58.4812873  31.2784928  62.9826862  58.4248075  31.7353479  62.1434494
  59.0341216  30.5175612  62.8049704  62.2917679  27.0674660  63.8076981
  62.0354613  26.6671295  64.6385189  61.6670547  27.7818454  63.6827120
  66.6030017  29.8070733  66.3148273  66.0429575  29.8763922  67.0879835
  65.9973520  29.6311718  65.5947769  49.6725226  41.2407460  68.0666459
  49.5557610  42.1852893  67.9645149  48.8517672  40.9381022  68.4552258
  59.5601760  35.9657596  58.9123052  60.3947364  35.5338794  58.7300526
  59.3986103  35.7939609  59.8399946  59.2147652  32.4689709  60.2779391
  59.1596456  32.3033980  59.3367835  58.5893708  33.1765742  60.4341581
  44.0040167  27.7057773  74.1040813  44.6499031  27.1956727  74.5928038
  43.7957319  28.4426455  74.6784238  56.5293560  34.7738621  79.6032954
  57.3984719  34.9479273  79.2419589  56.0500311  35.5933038  79.4808683
  52.5243778  21.9697818  59.8564709  52.5122448  22.9139658  60.0132980
  53.4167200  21.7867963  59.5624170  50.6979740  41.8935722  71.2822387
  51.6006987  41.9259332  71.5988882  50.4717110  40.9636173  71.2968723
  52.4533342  40.6466708  67.9432466  51.5028973  40.6468570  67.8296838
  52.7565828  39.8999443  67.4268501  56.3395897  18.5640595  64.1110646
  55.5728293  18.0099081  64.2567328  56.7506602  18.6362463  64.9724798
  48.3437658  24.8525391  78.2015827  49.2069120  24.4962195  78.4119152
  47.7703069  24.5139285  78.8891232  73.1435731  44.1453934  66.9864415
  73.8760903  43.5753151  67.2202244  72.3875087  43.7575534  67.4270920
  70.6661151  37.8575508  71.4459023  70.3344476  38.7270919  71.2220238
  70.0706765  37.5411792  72.1253054  64.6330680  43.9960240  76.4687271
  63.8564014  44.5554160  76.4590135  65.2721243  44.4817023  76.9902141
  72.4251461  40.7787033  70.3030247  71.7825841  41.0719566  69.6570042
  71.9206390  40.6639953  71.1083444  62.8877053  46.8045693  76.0305238
  63.6291737  47.3430737  75.7540061  62.1814038  47.4311982  76.1876790
  67.8662908  41.5451809  73.6592130  67.6223840  42.2993869  73.1226406
  68.1422838  41.9237156  74.4939377  67.4227599  40.7008242  69.2405968
  66.5612078  40.9989495  69.5322705  67.4490034  40.9178641  68.3087000
  61.6238416  43.9585341  76.8320548  60.9937077  44.6401622  77.0655945
  61.5174504  43.8468423  75.8873686  56.9183389  43.6257137  67.7586472
  56.1282443  43.8814666  67.2826583  57.4094636  44.4405475  67.8638512
  55.2021092  43.8787628  70.1901463  55.4529130  44.7634638  70.4559039
  55.7380640  43.6992229  69.4176555  79.0253191  47.3101125  66.8576724
  78.2716900  46.7408523  66.7020729  79.1600733  47.2763790  67.8047359
  60.9019159  38.2606107  79.1945799  60.5086105  37.7072306  79.8693443
  61.7185299  38.5716686  79.5852316  63.8187120  39.6763986  76.7866055
  64.5596834  40.2771139  76.7070518  64.0505043  38.9341624  76.2284098
  67.7644283  35.7045089  71.0630337  67.4208552  36.5946731  70.9869448
  68.1323246  35.5146747  70.1999922  66.8440823  38.0749744  69.0279570
  66.3405619  38.0379880  68.2147376  67.1371430  38.9842487  69.0876227
  63.0883709  38.1588474  68.0345752  63.9536706  37.9631283  67.6751642
  63.1561218  37.9298826  68.9615109  60.6946028  40.3890682  65.4062119
  61.2689780  40.1665863  64.6735312  61.2817011  40.4579377  66.1590720
  69.5631949  34.9638648  66.1648075  69.8690826  34.1036012  65.8773990
  70.2884554  35.5556269  65.9647069  73.1017337  47.4629762  63.9678868
  72.9635236  47.6531358  63.0400057  72.7453556  48.2249144  64.4246919
  61.2659463  41.4487857  70.0475880  61.9058843  41.3076616  69.3498843
  60.4336994  41.1622370  69.6714482  58.2688080  41.4188182  64.8248866
  58.5294897  42.3333515  64.7158027  59.0905252  40.9512624  64.9745479
  59.7413005  42.8325939  71.9947691  60.4136058  42.6243301  71.3460340
  58.9142791  42.6348025  71.5552923  65.6438577  39.4587880  74.0113352
  64.9966492  40.1577829  73.9177828  66.4139592  39.8924024  74.3789600
  69.0517375  49.7236732  77.0863905  68.9002881  49.4947284  76.1693989
  69.0422054  50.6807333  77.0995250  70.7609582  52.7555855  75.1640387
  70.7022128  52.0715075  74.4970970  71.1629100  53.4974845  74.7121013
  61.4851737  42.8053719  74.0629447  60.9489094  42.3544458  74.7151044
  60.8968445  42.9399628  73.3199912  57.2190858  41.9409727  71.1482442
  57.1349047  41.3335396  70.4132852  56.3973564  42.4318745  71.1491938
  69.8333567  37.3932884  68.6631996  68.9196647  37.6237111  68.8314203
  70.2626668  37.4771328  69.5146028  65.6527598  46.3242587  77.6497927
  64.9768235  46.2236716  78.3200302  66.4755232  46.1681801  78.1133924
  59.3714874  39.9784664  72.4877427  59.4356201  40.8399495  72.0754825
  59.3081995  39.3658666  71.7549786  58.8467147  42.0507797  76.1350462
  59.4739186  41.6684874  76.7487986  57.9895066  41.8321999  76.5006154
  69.2461255  52.4570772  77.7404197  69.7901159  53.0700730  77.2459152
  68.6648100  53.0150350  78.2571210  59.1526937  41.9340222  68.0496365
  58.4313522  42.5476190  67.9103838  59.9420192  42.4697987  67.9713011
  61.9553250  39.2694649  74.3237017  62.4787652  39.5156945  75.0863326
  61.7365583  40.1014684  73.9040154  57.3520531  41.5398323  62.1908142
  57.0233237  40.6595702  62.0083248  57.7059902  41.4845992  63.0784531
  60.4662354  41.8271293  62.5583619  60.8058427  42.3557214  61.8362228
  60.9134475  42.1651699  63.3342186  63.1605795  40.2108344  72.0086687
  62.8202616  39.4116157  72.4107367  62.4544801  40.5110055  71.4363521
  63.8122267  37.2957656  70.4614010  64.6348336  36.8218135  70.3392901
  64.0560331  38.0748140  70.9612697  61.3360846  43.9876777  68.2705989
  61.1905426  44.3017080  69.1630271  60.8586049  44.6061677  67.7176888
  63.1957229  40.9779325  68.3186879  63.1818797  40.0820418  67.9819177
  63.9129657  40.9849989  68.9525165  65.0483359  41.4116665  70.3640006
  64.7901137  42.3333736  70.3624337  64.5168400  41.0147100  71.0540470
  65.4685315  37.5448616  66.7241169  65.4907012  37.6087949  65.7693148
  65.8853374  36.7053124  66.9181675  75.8468939  47.2803875  64.7620391
  76.2900085  46.5311200  64.3639514  74.9695450  47.2714012  64.3794123
  62.0835204  41.3725703  77.7964381  62.1323360  42.2487825  77.4142151
  62.6257718  40.8303096  77.2236025  72.5690050  51.9166826  77.0765518
  71.7785594  51.8990965  76.5370018  72.3323404  52.4555120  77.8314555
  69.9791687  44.7490220  75.7057554  70.8801550  44.6096685  75.4141552
  70.0539662  44.9144675  76.6455731  64.3134493  42.1257075  74.5510740
  63.4437802  42.4190641  74.2793329  64.5493973  42.7097520  75.2718004
  74.1906122  51.1856234  74.6340269  73.8990930  51.5486214  75.4703730
  73.5778253  50.4723242  74.4553601  67.0173526  38.3436692  72.0676160
  67.5355470  39.0797719  71.7422649  66.6628659  38.6500685  72.9022920
  67.2686121  34.7636974  67.5877057  67.5487874  34.0960164  68.2137484
  68.0536728  34.9566070  67.0751721  71.1394979  43.1854608  71.3348632
  72.0912402  43.2852706  71.3560856  70.9698429  42.3932877  71.8446717
  69.1609358  40.2710192  71.5208033  68.5659291  40.5515204  70.8254522
  68.8759055  40.7604093  72.2924774  73.7677545  43.1971772  70.4949215
  73.2516594  42.4130228  70.3079144  74.6517494  42.8690488  70.6595734
  71.4288272  36.9412787  66.4545028  71.2313093  36.6327875  67.3388360
  72.0387978  37.6674426  66.5842958  79.4359607  47.4676735  69.5896969
  80.1662995  47.2062023  70.1504672  78.8266552  46.7305457  69.6299037
  77.5174904  45.6084598  70.1871420  76.7908067  45.4740562  69.5787911
  77.1022191  45.9161426  70.9928138  65.3405080  49.3274527  77.9518793
  66.2608090  49.5053126  78.1458839  65.3054663  48.3830573  77.7998492
  54.5587245  44.5213121  66.8772067  54.2390029  43.6678429  66.5846441
  54.0120673  44.7361699  67.6330035  63.2095018  42.8108768  79.9844323
  63.1091745  43.7603125  79.9156414  62.9916560  42.4827007  79.1120393
  63.0726288  46.2405907  78.8009385  62.5893370  47.0406267  79.0073274
  63.1587227  46.2513851  77.8476829  75.1352699  41.8296450  67.5404851
  75.7297189  41.5892186  66.8298160  75.2079282  41.1103580  68.1678388
  77.4423771  45.1362651  66.3148273  76.8823329  45.2055840  67.0879835
  76.8367275  44.9603635  65.5947769  67.3687314  50.1030539  79.6032954
  68.2378474  50.2771191  79.2419589  66.8894066  50.9224955  79.4808683
  67.1789652  33.8932512  64.1110646  66.4122048  33.3390999  64.2567328
  67.5900357  33.9654381  64.9724798  59.1831413  40.1817308  78.2015827
  60.0462874  39.8254113  78.4119152  58.6096824  39.8431203  78.8891232
  79.0279790  61.8119165  69.0078228  79.6658200  61.6925912  68.3041568
  78.9100633  62.7600008  69.0666180  76.3189279  62.9181444  74.9025959
  76.3077920  62.5234243  74.0306462  76.4809919  62.1847517  75.4959730
  77.2755871  67.2853037  60.2451109  76.6243850  67.8707117  59.8585123
  78.0700233  67.8159232  60.3046146  73.0396540  65.7018556  73.8505142
  72.7486406  66.6064187  73.7351809  73.6753525  65.7435084  74.5649212
  73.9652747  63.0795405  70.4406502  74.5616319  62.8551427  69.7263465
  74.0227719  62.3380150  71.0431950  78.7531136  64.9743469  60.7820093
  78.1176969  65.0478095  61.4940998  78.4228542  65.5637068  60.1039172
  83.9829485  59.4745852  66.9864415  84.7154657  58.9045068  67.2202244
  83.2268841  59.0867452  67.4270920  81.5054906  53.1867426  71.4459023
  81.1738231  54.0562837  71.2220238  80.9100519  52.8703710  72.1253054
  77.9986425  65.3879972  70.8454936  77.6987148  66.2905010  70.7370743
  77.6537485  65.1212155  71.6976089  81.3983569  57.9062512  68.5252374
  80.4900446  57.8377920  68.2311134  81.3471165  58.3834457  69.3534199
  75.4724435  59.3252157  76.4687271  74.6957769  59.8846078  76.4590135
  76.1114998  59.8108940  76.9902141  83.2645216  56.1078950  70.3030247
  82.6219596  56.4011483  69.6570042  82.7600144  55.9931871  71.1083444
  80.9185379  59.8542123  60.9916107  81.8303235  60.0869510  60.8163804
  80.4095026  60.4379168  60.4291185  73.7270807  62.1337611  76.0305238
  74.4685492  62.6722655  75.7540061  73.0207793  62.7603900  76.1876790
  79.2026147  64.2766751  74.6277399  79.6109503  63.8349162  73.8832032
  78.4803408  63.7019379  74.8811592  75.5557217  59.2139358  72.0010956
  76.4018412  59.6378772  72.1445605  75.4955855  58.5572982  72.6949519
  79.5254961  64.8367942  68.3829688  78.8963824  65.0013656  67.6805756
  79.1380624  65.2509551  69.1540652  83.4044193  65.7722380  65.7374052
  82.7195232  66.1521281  65.1871085  83.4888043  66.3817706  66.4706000
  78.7056662  56.8743726  73.6592130  78.4617594  57.6285787  73.1226406
  78.9816593  57.2529074  74.4939377  80.6595125  63.4182339  72.3369395
  80.8712020  64.0614099  71.6603777  80.6124873  62.5844655  71.8691326
  78.2621354  56.0300159  69.2405968  77.4005833  56.3281413  69.5322705
  78.2883789  56.2470558  68.3087000  71.9707004  64.1213832  68.5859537
  72.5408361  64.5501100  67.9477021  72.5615116  63.8396416  69.2843722
  72.4632171  59.2877259  76.8320548  71.8330832  59.9693540  77.0655945
  72.3568259  59.1760341  75.8873686  81.7740953  66.2954294  70.5091753
  82.5958397  65.8934481  70.2274434  81.7703356  66.1922528  71.4607869
  75.5397556  65.8438338  72.6652463  75.6041989  66.3058745  73.5010635
  74.8308480  65.2135702  72.7934773  89.8646946  62.6393043  66.8576724
  89.1110654  62.0700441  66.7020729  89.9994487  62.6055707  67.8047359
  71.7412914  53.5898025  79.1945799  71.3479859  53.0364223  79.8693443
  72.5579054  53.9008603  79.5852316  74.6580875  55.0055904  76.7866055
  75.3990588  55.6063057  76.7070518  74.8898797  54.2633542  76.2284098
  69.8022213  60.1912271  75.0644285  69.6875728  59.2897528  75.3651384
  68.9466730  60.4375968  74.7129102  76.8814050  68.1330012  76.6631786
  76.4377905  67.3466390  76.3452690  77.5431264  68.3209162  75.9975676
  78.9795288  68.4132811  74.6913187  78.9613764  69.2341692  74.1993456
  79.9015209  68.2886887  74.9163328  75.4368343  65.9276941  75.5336695
  75.9696679  65.1665229  75.3036003  74.9082424  65.6350593  76.2760850
  78.6038038  51.0337007  71.0630337  78.2602307  51.9238649  70.9869448
  78.9717000  50.8438665  70.1999922  77.6834578  53.4041662  69.0279570
  77.1799374  53.3671797  68.2147376  77.9765185  54.3134405  69.0876227
  83.5422594  63.7777973  61.5055946  82.7652037  63.4389132  61.0611108
  84.2214075  63.7830596  60.8310911  81.7813901  63.2511954  68.1622554
  81.1237576  63.9411215  68.2502682  82.5854301  63.6408386  68.5056540
  80.5919360  61.6056327  66.2126495  81.1051242  62.2386318  66.7148205
  81.2420584  61.0057522  65.8469855  77.8541734  71.5840651  58.9687167
  77.1803433  71.8872348  59.5772124  78.2407556  72.3869731  58.6192624
  76.1261889  62.9755739  60.5714470  75.2173108  62.6914771  60.6686940
  76.1556973  63.3954817  59.7117777  81.3581156  66.5862328  64.3405638
  80.9043483  65.7453238  64.3970829  80.7275123  67.2223726  64.6780418
  80.3014076  57.5154314  65.5706305  79.5636833  57.0031700  65.9016548
  80.5540849  57.0754696  64.7589582  79.8014096  68.4238825  65.2755456
  80.0937070  68.9843882  64.5567822  80.3112716  68.7167386  66.0308615
  80.4025703  50.2930566  66.1648075  80.7084580  49.4327929  65.8773990
  81.1278308  50.8848186  65.9647069  78.2113355  59.6703243  73.2629539
  78.5662742  59.8974716  74.1224004  78.8585486  60.0021620  72.6406794
  83.9411092  62.7921679  63.9678868  83.8028990  62.9823275  63.0400057
  83.5847310  63.5541062  64.4246919  83.9680471  64.8598206  68.9790139
  84.4016978  64.7673495  69.8273193  84.6812052  64.8355707  68.3410155
  77.7008366  68.4600300  70.5123240  77.7545388  69.0291237  71.2800956
  76.8323147  68.6302185  70.1477277  70.5806759  58.1617857  71.9947691
  71.2529813  57.9535219  71.3460340  69.7536546  57.9639943  71.5552923
  84.8296021  64.9021907  71.5123025  85.0231911  65.8067717  71.7582299
  84.7296639  64.4429326  72.3461610  76.4832331  54.7879797  74.0113352
  75.8360246  55.4869747  73.9177828  77.2533347  55.2215941  74.3789600
  79.8911129  65.0528650  77.0863905  79.7396636  64.8239201  76.1693989
  79.8815809  66.0099251  77.0995250  76.6596466  62.6260562  72.0710172
  77.5888526  62.7771722  71.8979139  76.2387496  62.7144583  71.2158818
  75.4584798  66.6511227  69.8408709  75.3195883  66.2830011  70.7134647
  74.6699394  67.1658866  69.6692667  77.0090013  66.0292829  67.2297547
  76.6739845  65.9893599  68.1255197  76.5093958  65.3637545  66.7567957
  70.9834257  61.4360460  72.7550128  70.8454055  60.7040698  73.3561667
  71.8939180  61.3469360  72.4734316  73.6116557  61.1480419  72.2433808
  74.3216176  60.5073611  72.2020426  73.5685866  61.3993314  73.1659989
  81.6003336  68.0847772  75.1640387  81.5415882  67.4006992  74.4970970
  82.0022854  68.8266762  74.7121013  72.3245491  58.1345637  74.0629447
  71.7882848  57.6836375  74.7151044  71.7362200  58.2691546  73.3199912
  81.6020743  66.0487356  73.3954367  80.7147522  65.7113278  73.5180766
  82.1719294  65.3170387  73.6323132  78.2308326  55.7555208  66.5152637
  78.7277026  55.0025170  66.1953707  77.4595308  55.7919525  65.9495846
  86.0838084  61.4595573  68.1570928  86.0727960  62.3420289  67.7864861
  85.2155463  61.1067124  67.9625465  77.5920580  70.6075643  72.5173769
  78.3048552  71.2423107  72.4449670  77.1010609  70.7039509  71.7013770
  79.3138107  64.5126895  64.0891060  78.3794386  64.6328358  63.9195765
  79.4914776  63.6099362  63.8251070  82.7010658  60.3544214  64.6241094
  83.1671111  61.1872206  64.5501397  83.1518159  59.8889196  65.3286353
  72.6432494  68.3570086  73.3379339  73.3441953  68.9906569  73.4908734
  72.1727609  68.6984818  72.5774979  80.7686890  66.6988036  61.6227246
  81.0446733  66.5844630  62.5321120  79.8991388  66.3005521  61.5839419
  80.6727321  52.7224801  68.6631996  79.7590401  52.9529028  68.8314203
  81.1020423  52.8063246  69.5146028  80.4433780  60.9114693  71.1631890
  79.7905230  61.1590601  70.5084342  80.8214160  60.0978832  70.8294367
  77.4040954  70.9474387  65.2660060  77.5863348  70.1296043  65.7287812
  78.2273940  71.1642079  64.8284950  77.7383119  69.8742572  62.5275108
  78.2670886  69.3635026  61.9145271  78.0011339  69.5585102  63.3920642
  76.4921353  61.6534504  77.6497927  75.8161990  61.5528634  78.3200302
  77.3148987  61.4973718  78.1133924  75.2344136  72.9601432  71.8855543
  75.7862444  73.1233053  72.6504628  75.5750329  73.5505870  71.2135568
  69.6860901  57.3799714  76.1350462  70.3132940  56.9976792  76.7487986
  68.8288820  57.1613916  76.5006154  80.0855010  67.7862689  77.7404197
  80.6294914  68.3992648  77.2459152  79.5041855  68.3442268  78.2571210
  78.3712523  70.9083407  68.8719225  78.2463662  70.1073147  68.3630170
  79.0291614  71.4029601  68.3833195  80.4347431  68.7092428  70.4998775
  79.4877767  68.5897779  70.4277102  80.7830204  67.8214926  70.5825036
  72.7947005  54.5986566  74.3237017  73.3181406  54.8448863  75.0863326
  72.5759338  55.4306601  73.9040154  77.4393865  68.5045144  66.7003127
  77.2918827  67.5761851  66.8810697  78.2647358  68.5265234  66.2160202
  81.0427986  69.3273702  67.7868000  81.9674534  69.1216564  67.6492451
  80.8743290  69.0790104  68.6957342  73.9999550  55.5400262  72.0086687
  73.6596370  54.7408075  72.4107367  73.2938556  55.8401972  71.4363521
  75.8877114  56.7408583  70.3640006  75.6294892  57.6625653  70.3624337
  75.3562154  56.3439017  71.0540470  80.8323303  69.8459370  63.1430091
  81.0060180  69.2805792  62.3903944  81.3252194  70.6460265  62.9609581
  86.6862694  62.6095793  64.7620391  87.1293840  61.8603118  64.3639514
  85.8089204  62.6005929  64.3794123  81.8198475  69.1626134  60.2426990
  82.5149380  69.7832827  60.4614304  82.1621625  68.3121486  60.5179368
  83.7189898  66.6125840  61.7714321  84.2441222  66.9513113  61.0463641
  83.6312251  65.6772855  61.5877455  75.3809947  70.5259914  73.9004197
  75.6897073  70.2809060  74.7726897  76.1785429  70.7306552  73.4123067
  72.9228959  56.7017620  77.7964381  72.9717114  57.5779743  77.4142151
  73.4651473  56.1595013  77.2236025  83.4083804  67.2458744  77.0765518
  82.6179348  67.2282882  76.5370018  83.1717159  67.7847037  77.8314555
  83.5281679  64.0951210  74.3898247  83.5779684  63.9301217  75.3313770
  83.4195603  63.2278469  73.9996128  80.8185442  60.0782138  75.7057554
  81.7195304  59.9388603  75.4141552  80.8933416  60.2436593  76.6455731
  75.1528247  57.4548993  74.5510740  74.2831556  57.7482559  74.2793329
  75.3887727  58.0389438  75.2718004  85.0299876  66.5148151  74.6340269
  84.7384684  66.8778132  75.4703730  84.4172007  65.8015160  74.4553601
  86.2295558  64.0801031  67.1542839  87.0642450  64.5190835  67.3180399
  86.3654687  63.6039684  66.3351085  83.2787064  61.6380766  73.1020327
  83.7541186  61.8308412  72.2939178  82.3552630  61.6939952  72.8563710
  77.8567281  53.6728610  72.0676160  78.3749225  54.4089637  71.7422649
  77.5022414  53.9792603  72.9022920  75.9113344  69.2687886  59.1502083
  75.3387311  69.8878073  58.6972555  76.4846137  69.8187248  59.6842005
  81.9788733  58.5146526  71.3348632  82.9306156  58.6144624  71.3560856
  81.8092184  57.7224795  71.8446717  80.0003113  55.6002109  71.5208033
  79.4053045  55.8807122  70.8254522  79.7152810  56.0896010  72.2924774
  79.1310603  69.5525036  60.2810666  80.0641277  69.4870598  60.4843541
  79.0433816  70.3881303  59.8225198  81.7598620  68.8690907  57.2414613
  81.6812252  68.5350770  58.1350371  82.5808287  69.3612674  57.2406086
  84.4576811  61.7352646  70.4490932  84.4253131  60.7968647  70.6350616
  85.0677435  61.8136683  69.7156757  84.6071300  58.5263689  70.4949215
  84.0910348  57.7422146  70.3079144  85.4911248  58.1982406  70.6595734
  82.2682027  52.2704705  66.4545028  82.0706848  51.9619793  67.3388360
  82.8781732  52.9966344  66.5842958  90.2753361  62.7968653  69.5896969
  91.0056750  62.5353941  70.1504672  89.6660307  62.0597375  69.6299037
  88.3568658  60.9376515  70.1871420  87.6301822  60.8032480  69.5787911
  87.9415945  61.2453344  70.9928138  76.1798835  64.6566445  77.9518793
  77.1001844  64.8345044  78.1458839  76.1448418  63.7122490  77.7998492
  74.0488772  58.1400685  79.9844323  73.9485499  59.0895042  79.9156414
  73.8310315  57.8118924  79.1120393  81.4034480  54.2614137  63.7120223
  80.8233149  54.9198941  63.3298276  81.1370413  53.4391481  63.3007641
  79.8538047  53.6619195  65.9141544  80.3537825  53.7735729  65.1055862
  80.4973655  53.3580247  66.5542352  73.9120043  61.5697824  78.8009385
  73.4287124  62.3698184  79.0073274  73.9980982  61.5805769  77.8476829
  69.8393380  65.4602359  70.8377818  70.7936634  65.4286301  70.7707750
  69.6405904  64.9992983  71.6528044  70.4292762  64.0303475  73.4048616
  71.2485651  64.5247554  73.4283453  70.7029570  63.1135443  73.3766184
  80.1859358  56.4214227  62.7676572  79.2985213  56.7063878  62.5496766
  80.6013347  56.2607991  61.9203848  83.5373894  56.4460748  66.4830911
  84.3134285  56.9357201  66.7555528  82.8122029  56.8718802  66.9402780
  85.9746453  57.1588367  67.5404851  86.5690944  56.9184103  66.8298160
  86.0473037  56.4395498  68.1678388  79.3302572  66.1858902  56.8624591
  80.0338422  66.3908904  57.4782247  78.6065221  66.7535664  57.1273675
  80.1600382  61.9368763  62.9826862  80.1035583  62.3937315  62.1434494
  80.7128725  61.1759448  62.8049704  83.9705188  57.7258495  63.8076981
  83.7142122  57.3255131  64.6385189  83.3458056  58.4402289  63.6827120
  88.2817526  60.4654568  66.3148273  87.7217084  60.5347758  67.0879835
  87.6761029  60.2895553  65.5947769  81.2389269  66.6241431  58.9123052
  82.0734873  66.1922630  58.7300526  81.0773612  66.4523445  59.8399946
  80.8935161  63.1273544  60.2779391  80.8383965  62.9617816  59.3367835
  80.2681217  63.8349577  60.4341581  78.2081069  65.4322456  79.6032954
  79.0772228  65.6063109  79.2419589  77.7287820  66.2516873  79.4808683
  70.0225167  55.5109226  78.2015827  70.8856629  55.1546031  78.4119152
  69.4490578  55.1723121  78.8891232  89.8673544  77.1411082  69.0078228
  90.5051954  77.0217830  68.3041568  89.7494387  78.0891926  69.0666180
  86.6763251  77.0938510  68.9439753  86.3381762  76.9779575  68.0560288
  87.5453019  76.6929675  68.9240759  82.5350066  78.9473987  64.9336644
  81.9714931  78.8563924  64.1652932  82.4202461  78.1273891  65.4139136
  87.1583034  78.2473362  74.9025959  87.1471674  77.8526160  74.0306462
  87.3203673  77.5139435  75.4959730  80.0814498  80.4425178  67.7720864
  80.8735790  80.1016003  67.3567164  80.3211148  80.5520153  68.6923018
  88.1149625  82.6144954  60.2451109  87.4637605  83.1999035  59.8585123
  88.9093988  83.1451149  60.3046146  82.0405252  79.7034092  60.6438243
  82.8136128  79.1563079  60.5051119  82.3930651  80.5678341  60.8552705
  83.8790295  81.0310474  73.8505142  83.5880161  81.9356105  73.7351809
  84.5147279  81.0727001  74.5649212  84.8046502  78.4087322  70.4406502
  85.4010074  78.1843345  69.7263465  84.8621473  77.6672068  71.0431950
  84.3771530  75.8626758  58.2756693  84.6297051  75.3408279  57.5140156
  83.4396089  75.6992903  58.3783377  89.4214813  74.8662536  66.0831436
  90.2077902  74.4481959  65.7321853  89.6853517  75.7708628  66.2513085
  89.5924890  80.3035386  60.7820093  88.9570723  80.3770013  61.4940998
  89.2622297  80.8928985  60.1039172  94.8223240  74.8037769  66.9864415
  95.5548412  74.2336986  67.2202244  94.0662596  74.4159370  67.4270920
  84.0967819  77.7654864  60.4781068  83.9804077  77.0899767  61.1462152
  84.2070079  77.2787238  59.6613221  86.4399360  77.2265011  64.1827757
  86.0757567  76.6995632  64.8940679  87.2966476  76.8363480  64.0094243
  92.3448660  68.5159343  71.4459023  92.0131985  69.3854754  71.2220238
  91.7494274  68.1995627  72.1253054  86.0804847  72.2554910  59.1789106
  86.2479249  73.1235147  59.5459577  85.8902016  72.4182192  58.2550395
  88.8380180  80.7171889  70.8454936  88.5380903  81.6196928  70.7370743
  88.4931239  80.4504073  71.6976089  82.2892661  77.1685686  66.8791641
  81.3643158  77.0361900  67.0869332  82.5377074  77.9479905  67.3761583
  92.2377324  73.2354430  68.5252374  91.3294201  73.1669838  68.2311134
  92.1864919  73.7126374  69.3534199  86.0594067  74.7112568  60.1635773
  85.9393693  75.1569619  61.0021253  85.3646656  75.0597886  59.6049311
  79.6501472  76.8118960  67.7135430  79.7793853  77.0653439  68.6274841
  78.9698924  77.4046668  67.3940085  83.8200960  87.4816210  63.8125904
  83.7424989  88.4324035  63.8914384  83.2162603  87.1362082  64.4700830
  86.3118189  74.6544075  76.4687271  85.5351523  75.2137995  76.4590135
  86.9508752  75.1400858  76.9902141  94.1038970  71.4370868  70.3030247
  93.4613350  71.7303401  69.6570042  93.5993899  71.3223788  71.1083444
  91.7579134  75.1834041  60.9916107  92.6696990  75.4161428  60.8163804
  91.2488781  75.7671085  60.4291185  84.5664562  77.4629529  76.0305238
  85.3079246  78.0014572  75.7540061  83.8601547  78.0895817  76.1876790
  90.0419901  79.6058669  74.6277399  90.4503257  79.1641079  73.8832032
  89.3197163  79.0311296  74.8811592  86.3950971  74.5431276  72.0010956
  87.2412167  74.9670689  72.1445605  86.3349609  73.8864900  72.6949519
  90.3648716  80.1659860  68.3829688  89.7357578  80.3305574  67.6805756
  89.9774378  80.5801469  69.1540652  94.2437948  81.1014297  65.7374052
  93.5588986  81.4813199  65.1871085  94.3281797  81.7109624  66.4706000
  89.5450417  72.2035644  73.6592130  89.3011349  72.9577705  73.1226406
  89.8210347  72.5820992  74.4939377  91.4988879  78.7474256  72.3369395
  91.7105775  79.3906016  71.6603777  91.4518628  77.9136573  71.8691326
  89.1015108  71.3592077  69.2405968  88.2399587  71.6573331  69.5322705
  89.1277543  71.5762476  68.3087000  85.9176678  79.9034268  65.6479773
  86.3815023  80.1821971  64.8584396  85.6533476  79.0017712  65.4652864
  82.8100759  79.4505749  68.5859537  83.3802116  79.8793018  67.9477021
  83.4008871  79.1688334  69.2843722  84.8545564  76.0257420  62.4569338
  85.5569607  76.4778464  62.9243265  84.5226192  75.3841239  63.0849232
  83.3025925  74.6169177  76.8320548  82.6724586  75.2985458  77.0655945
  83.1962013  74.5052258  75.8873686  78.5970898  74.2840973  67.7586472
  77.8069952  74.5398501  67.2826583  79.0882145  75.0989311  67.8638512
  92.6134707  81.6246212  70.5091753  93.4352151  81.2226399  70.2274434
  92.6097110  81.5214446  71.4607869  80.5485643  74.6485552  64.7169949
  79.7516807  74.7604246  65.2353444  80.3211235  74.9872204  63.8510839
  86.3791311  81.1730255  72.6652463  86.4435743  81.6350662  73.5010635
  85.6702235  80.5427620  72.7934773  76.8808601  74.5371463  70.1901463
  77.1316639  75.4218473  70.4559039  77.4168149  74.3576065  69.4176555
 100.7040700  77.9684960  66.8576724  99.9504409  77.3992358  66.7020729
 100.8388242  77.9347625  67.8047359  86.0939329  82.8398363  62.5331444
  85.9585003  83.6849898  62.9616291  86.6349141  83.0417640  61.7697377
  82.5806668  68.9189943  79.1945799  82.1873614  68.3656141  79.8693443
  83.3972808  69.2300521  79.5852316  79.5468726  80.3573801  63.1059369
  80.0593246  81.1517051  63.2564933  80.1991439  79.6600091  63.0392970
  81.3563611  83.4739557  65.1882122  81.5330239  84.3957522  65.0003106
  82.1520444  83.1597976  65.6176502  85.4974629  70.3347822  76.7866055
  86.2384343  70.9354975  76.7070518  85.7292552  69.5925459  76.2284098
  80.6415967  75.5204189  75.0644285  80.5269482  74.6189446  75.3651384
  79.7860485  75.7667886  74.7129102  87.7207805  83.4621929  76.6631786
  87.2771659  82.6758308  76.3452690  88.3825018  83.6501080  75.9975676
  82.4794926  84.9917731  71.1892464  83.0302351  84.8634794  70.4169458
  81.6406402  85.2912620  70.8387357  89.8189043  83.7424729  74.6913187
  89.8007518  84.5633610  74.1993456  90.7408963  83.6178804  74.9163328
  86.2762097  81.2568859  75.5336695  86.8090434  80.4957147  75.3036003
  85.7476178  80.9642510  76.2760850  89.4431792  66.3628925  71.0630337
  89.0996061  67.2530566  70.9869448  89.8110755  66.1730582  70.1999922
  77.5117643  78.6862455  63.8818939  78.3492865  79.0959463  63.6652647
  77.6895910  77.7461897  63.8519133  89.4082075  76.3537536  59.5702772
  88.8928698  77.1242140  59.8091160  89.1359383  75.6802672  60.1935834
  86.9929186  71.1987236  64.6288011  86.1370782  70.8094087  64.4493649
  87.4056138  71.2779197  63.7687796  88.5228332  68.7333580  69.0279570
  88.0193128  68.6963715  68.2147376  88.8158939  69.6426322  69.0876227
  84.7671218  68.8172309  68.0345752  85.6324215  68.6215118  67.6751642
  84.8348727  68.5882661  68.9615109  94.3816349  79.1069890  61.5055946
  93.6045792  78.7681050  61.0611108  95.0607830  79.1122513  60.8310911
  89.1968378  74.2264628  61.3962553  88.8918514  74.5410777  62.2472697
  90.1498820  74.3046048  61.4389886  87.6414810  80.3854851  63.0455507
  87.1136171  79.6507611  62.7328745  87.1402313  81.1629527  62.7995476
  92.6207656  78.5803872  68.1622554  91.9631330  79.2703133  68.2502682
  93.4248055  78.9700303  68.5056540  82.3733537  71.0474517  65.4062119
  82.9477289  70.8249699  64.6735312  82.9604520  71.1163212  66.1590720
  91.4313115  76.9348244  66.2126495  91.9444996  77.5678236  66.7148205
  92.0814339  76.3349440  65.8469855  82.7003125  73.0778978  59.4258004
  81.8640437  73.4153665  59.7467279  82.5607894  72.9427958  58.4885141
  84.6756205  67.9215766  64.1337188  84.0220617  67.6064783  63.5093803
  84.6336679  67.2991507  64.8597011  85.7867410  78.2035061  56.0490480
  84.8794472  77.9724315  56.2481629  86.2838442  77.4072681  56.2364462
  88.6935489  86.9132569  58.9687167  88.0197188  87.2164265  59.5772124
  89.0801311  87.7161649  58.6192624  87.9093946  74.4097700  68.4584836
  86.9916507  74.6312647  68.3006524  88.3254089  74.4844010  67.5996543
  88.6928993  75.8089115  63.5887516  89.4400812  76.3210513  63.2794638
  88.9620583  75.4873168  64.4491910  86.9655643  78.3047656  60.5714470
  86.0566863  78.0206689  60.6686940  86.9950727  78.7246735  59.7117777
  92.1974911  81.9154246  64.3405638  91.7437238  81.0745156  64.3970829
  91.5668878  82.5515644  64.6780418  91.1407830  72.8446232  65.5706305
  90.4030587  72.3323618  65.9016548  91.3934604  72.4046613  64.7589582
  90.6407850  83.7530742  65.2755456  90.9330824  84.3135799  64.5567822
  91.1506471  84.0459303  66.0308615  91.2419458  65.6222484  66.1648075
  91.5478335  64.7619847  65.8773990  91.9672063  66.2140104  65.9647069
  77.5343814  76.0253170  64.5529673  77.3368214  75.4322531  63.8280739
  76.9790478  75.7205381  65.2705611  85.5140537  75.9176277  66.6724266
  85.5689147  74.9650113  66.5966742  84.7031740  76.0735716  67.1565564
  86.6631731  79.8456400  57.9102549  86.2251161  79.1292259  57.4508186
  87.4042172  80.0732515  57.3487640  83.4532897  74.5353337  64.4314645
  82.6400763  74.8347507  64.8379837  83.9491892  74.1409025  65.1489127
  85.6041475  84.5311093  66.3648909  85.5617654  84.7571940  65.4357441
  86.5204174  84.2974468  66.5134711  89.0507109  74.9995161  73.2629539
  89.4056497  75.2266634  74.1224004  89.6979240  75.3313538  72.6406794
  94.7804846  78.1213597  63.9678868  94.6422745  78.3115193  63.0400057
  94.4241065  78.8832980  64.4246919  82.9446972  72.1071692  70.0475880
  83.5846351  71.9660451  69.3498843  82.1124503  71.8206205  69.6714482
  94.8074226  80.1890124  68.9790139  95.2410732  80.0965413  69.8273193
  95.5205806  80.1647624  68.3410155  83.7207276  81.4074122  66.1610872
  84.5147875  80.9124443  65.9593447  83.0098968  80.8791986  65.7978578
  88.5402121  83.7892218  70.5123240  88.5939143  84.3583154  71.2800956
  87.6716902  83.9594103  70.1477277  80.0290040  75.5517204  62.2370625
  79.0987628  75.4901660  62.4540587  80.1247512  75.0293157  61.4407266
  79.9475589  72.0772017  64.8248866  80.2082406  72.9917350  64.7158027
  80.7692761  71.6096460  64.9745479  81.4200514  73.4909774  71.9947691
  82.0923567  73.2827136  71.3460340  80.5930300  73.2931860  71.5552923
  95.6689775  80.2313825  71.5123025  95.8625665  81.1359635  71.7582299
  95.5690393  79.7721244  72.3461610  87.3226086  70.1171715  74.0113352
  86.6754001  70.8161665  73.9177828  88.0927101  70.5507859  74.3789600
  90.7304884  80.3820567  77.0863905  90.5790390  80.1531119  76.1693989
  90.7209563  81.3391169  77.0995250  87.4990220  77.9552480  72.0710172
  88.4282280  78.1063640  71.8979139  87.0781250  78.0436501  71.2158818
  86.2978552  81.9803144  69.8408709  86.1589638  81.6121929  70.7134647
  85.5093148  82.4950784  69.6692667  86.8926704  87.0812241  61.1834246
  87.0678460  86.6100284  61.9979868  86.2059492  87.7078007  61.4115506
  87.8483767  81.3584747  67.2297547  87.5133600  81.3185517  68.1255197
  87.3487713  80.6929463  66.7567957  81.8228011  76.7652377  72.7550128
  81.6847809  76.0332616  73.3561667  82.7332935  76.6761277  72.4734316
  90.7842959  78.7040782  57.5034607  90.1672129  77.9787610  57.4067659
  90.3159447  79.4650142  57.1601681  84.4510312  76.4772337  72.2433808
  85.1609930  75.8365529  72.2020426  84.4079620  76.7285231  73.1659989
  92.4397091  83.4139690  75.1640387  92.3809637  82.7298910  74.4970970
  92.8416609  84.1558680  74.7121013  83.1639246  73.4637554  74.0629447
  82.6276603  73.0128293  74.7151044  82.5755954  73.5983463  73.3199912
  81.4587789  90.2301604  67.9574106  81.6984388  90.8620128  68.6353124
  80.6156986  89.8789644  68.2439465  82.5741505  72.9226206  56.6255911
  81.6970971  72.8015007  56.2618158  83.0499258  72.1312284  56.3734800
  92.4414498  81.3779274  73.3954367  91.5541277  81.0405196  73.5180766
  93.0113049  80.6462305  73.6323132  78.8978367  72.5993562  71.1482442
  78.8136556  71.9919232  70.4132852  78.0761073  73.0902580  71.1491938
  85.9715651  86.0380726  70.3615610  85.8985823  86.8435698  70.8734914
  85.5293044  86.2372692  69.5363631  85.7605431  85.2752496  63.8718431
  84.9772953  85.8174176  63.9656656  86.4598176  85.7926476  64.2712673
  89.0702081  71.0847126  66.5152637  89.5670780  70.3317088  66.1953707
  88.2989062  71.1211442  65.9495846  96.9231838  76.7887491  68.1570928
  96.9121715  77.6712207  67.7864861  96.0549218  76.4359042  67.9625465
  88.4314335  85.9367560  72.5173769  89.1442307  86.5715025  72.4449670
  87.9404363  86.0331426  71.7013770  90.1531862  79.8418813  64.0891060
  89.2188140  79.9620275  63.9195765  90.3308530  78.9391280  63.8251070
  85.6537050  73.2264509  66.2424321  85.2834837  72.6735549  66.9305227
  86.1496142  72.6222642  65.6899321  93.5404413  75.6836132  64.6241094
  94.0064865  76.5164124  64.5501397  93.9911913  75.2181114  65.3286353
  83.4826248  83.6862004  73.3379339  84.1835708  84.3198487  73.4908734
  83.0121363  84.0276735  72.5774979  91.6080644  82.0279953  61.6227246
  91.8840488  81.9136548  62.5321120  90.7385143  81.6297438  61.5839419
  91.5121076  68.0516719  68.6631996  90.5984155  68.2820946  68.8314203
  91.9414177  68.1355163  69.5146028  91.2827534  76.2406611  71.1631890
  90.6298984  76.4882519  70.5084342  91.6607914  75.4270749  70.8294367
  88.2434708  86.2766304  65.2660060  88.4257103  85.4587960  65.7287812
  89.0667694  86.4933997  64.8284950  88.5776874  85.2034489  62.5275108
  89.1064640  84.6926944  61.9145271  88.8405093  84.8877020  63.3920642
  87.3315107  76.9826422  77.6497927  86.6555744  76.8820551  78.3200302
  88.1542741  76.8265636  78.1133924  79.0793966  83.2198359  70.2710442
  79.6647403  82.4742047  70.4038346  78.8818805  83.5302315  71.1547106
  81.9332622  86.2549606  65.2872884  81.2642997  86.7395734  64.8036924
  81.7945491  86.5018827  66.2016263  86.0737890  88.2893350  71.8855543
  86.6256198  88.4524971  72.6504628  86.4144084  88.8797787  71.2135568
  81.0502383  70.6368499  72.4877427  81.1143710  71.4983330  72.0754825
  80.9869504  70.0242501  71.7549786  80.5254656  72.7091632  76.1350462
  81.1526695  72.3268709  76.7487986  79.6682575  72.4905834  76.5006154
  90.9248764  83.1154607  77.7404197  91.4688668  83.7284565  77.2459152
  90.3435609  83.6734186  78.2571210  89.2106277  86.2375325  68.8719225
  89.0857417  85.4365065  68.3630170  89.8685368  86.7321519  68.3833195
  80.8314446  72.5924058  68.0496365  80.1101031  73.2060025  67.9103838
  81.6207701  73.1281822  67.9713011  91.2741186  84.0384345  70.4998775
  90.3271521  83.9189696  70.4277102  91.6223959  83.1506843  70.5825036
  83.6340759  69.9278484  74.3237017  84.1575161  70.1740781  75.0863326
  83.4153092  70.7598519  73.9040154  79.0308040  72.1982159  62.1908142
  78.7020746  71.3179538  62.0083248  79.3847411  72.1429827  63.0784531
  88.2787619  83.8337061  66.7003127  88.1312581  82.9053769  66.8810697
  89.1041113  83.8557152  66.2160202  82.1449863  72.4855129  62.5583619
  82.4845936  73.0141050  61.8362228  82.5921984  72.8235535  63.3342186
  91.8821741  84.6565620  67.7868000  92.8068288  84.4508482  67.6492451
  91.7137044  84.4082021  68.6957342  84.8393304  70.8692179  72.0086687
  84.4990125  70.0699992  72.4107367  84.1332310  71.1693890  71.4363521
  85.4909776  67.9541492  70.4614010  86.3135845  67.4801970  70.3392901
  85.7347840  68.7331975  70.9612697  84.1318010  70.9829750  60.7576912
  84.8526373  71.3611003  60.2540629  83.5083315  71.7018627  60.8611890
  88.2749133  71.6874899  61.6935244  88.4912748  72.5699537  61.3924073
  87.7943201  71.2961112  60.9640886  83.0148355  74.6460612  68.2705989
  82.8692935  74.9600915  69.1630271  82.5373558  75.2645513  67.7176888
  84.8744738  71.6363160  68.3186879  84.8606306  70.7404254  67.9819177
  85.5917166  71.6433824  68.9525165  86.7270868  72.0700501  70.3640006
  86.4688646  72.9917571  70.3624337  86.1955909  71.6730935  71.0540470
  91.6717057  85.1751288  63.1430091  91.8453935  84.6097710  62.3903944
  92.1645948  85.9752183  62.9609581  77.4894017  77.1865957  71.2093650
  76.9447485  77.9625765  71.3413925  78.3673367  77.5336761  71.0512772
  84.2781634  70.5177541  63.5874449  84.3997545  69.5894187  63.7865336
  83.9883676  70.5316227  62.6752764  87.1472824  68.2032451  66.7241169
  87.1694521  68.2671784  65.7693148  87.5640883  67.3636960  66.9181675
  97.5256448  77.9387711  64.7620391  97.9687594  77.1895036  64.3639514
  96.6482959  77.9297847  64.3794123  92.6592230  84.4918052  60.2426990
  93.3543134  85.1124745  60.4614304  93.0015380  83.6413403  60.5179368
  78.2760039  76.3135853  74.1023807  77.5341775  76.4618488  74.6888438
  77.9552783  76.5744119  73.2390557  94.5583653  81.9417758  61.7714321
  95.0834977  82.2805030  61.0463641  94.4706005  81.0064773  61.5877455
  86.2203701  85.8551831  73.9004197  86.5290828  85.6100978  74.7726897
  87.0179183  86.0598470  73.4123067  86.2424313  88.0089741  66.1309574
  85.8029304  87.5166120  66.8242430  86.9932430  87.4662708  65.8901649
  78.7216652  84.2001282  66.1334202  79.5474672  83.9005054  65.7532845
  78.3710704  83.4308904  66.5823990  83.6898186  83.5527750  68.2031875
  83.0678195  82.8898455  67.9034103  84.3603053  83.5788882  67.5205523
  76.9225258  82.1187608  67.0923135  76.0857166  81.6909783  66.9107137
  76.8948903  82.3120051  68.0293927  83.7622713  72.0309538  77.7964381
  83.8110869  72.9071661  77.4142151  84.3045227  71.4886931  77.2236025
  94.2477559  82.5750661  77.0765518  93.4573102  82.5574800  76.5370018
  94.0110913  83.1138955  77.8314555  94.3675434  79.4243128  74.3898247
  94.4173439  79.2593135  75.3313770  94.2589357  78.5570387  73.9996128
  83.2511693  82.1031673  61.6790336  83.3999813  82.7867138  61.0257009
  84.0578136  82.0836763  62.1939792  91.6579196  75.4074056  75.7057554
  92.5589059  75.2680520  75.4141552  91.7327171  75.5728510  76.6455731
  85.9922002  72.7840910  74.5510740  85.1225311  73.0774476  74.2793329
  86.2281482  73.3681355  75.2718004  95.8693631  81.8440069  74.6340269
  95.5778439  82.2070050  75.4703730  95.2565762  81.1307077  74.4553601
  97.0689313  79.4092949  67.1542839  97.9036204  79.8482753  67.3180399
  97.2048442  78.9331602  66.3351085  94.1180819  76.9672684  73.1020327
  94.5934941  77.1600330  72.2939178  93.1946384  77.0231870  72.8563710
  81.0064326  78.1296851  62.6851405  80.7610367  77.2259181  62.8831615
  81.1760240  78.1314001  61.7430883  88.6961035  69.0020527  72.0676160
  89.2142979  69.7381554  71.7422649  88.3416168  69.3084521  72.9022920
  80.2759973  73.8625208  60.1837566  79.5829218  73.9369563  59.5277602
  80.0311725  73.0985552  60.7059083  88.9473630  65.4220810  67.5877057
  89.2275383  64.7543999  68.2137484  89.7324236  65.6149905  67.0751721
  86.7507098  84.5979804  59.1502083  86.1781065  85.2169991  58.6972555
  87.3239892  85.1479165  59.6842005  92.8182488  73.8438444  71.3348632
  93.7699911  73.9436541  71.3560856  92.6485938  73.0516712  71.8446717
  90.8396867  70.9294027  71.5208033  90.2446799  71.2099040  70.8254522
  90.5546564  71.4187928  72.2924774  89.9704358  84.8816954  60.2810666
  90.9035031  84.8162516  60.4843541  89.8827571  85.7173221  59.8225198
  92.5992375  84.1982824  57.2414613  92.5206006  83.8642688  58.1350371
  93.4202041  84.6904592  57.2406086  95.2970566  77.0644563  70.4490932
  95.2646886  76.1260564  70.6350616  95.9071189  77.1428600  69.7156757
  87.1353897  75.9340616  56.4918136  88.0813001  75.8046825  56.5606554
  86.7568142  75.1955278  56.9687564  95.4465054  73.8555607  70.4949215
  94.9304103  73.0714064  70.3079144  96.3305003  73.5274324  70.6595734
  93.1075781  67.5996622  66.4545028  92.9100602  67.2911711  67.3388360
  93.7175487  68.3258261  66.5842958 101.1147116  78.1260570  69.5896969
 101.8450504  77.8645858  70.1504672 100.5054061  77.3889292  69.6299037
  99.1962413  76.2668433  70.1871420  98.4695576  76.1324398  69.5787911
  98.7809700  76.5745262  70.9928138  87.0192589  79.9858363  77.9518793
  87.9395599  80.1636962  78.1458839  86.9842172  79.0414408  77.7998492
  85.3196814  73.8590593  56.4273021  84.4128269  73.5623706  56.5035735
  85.5972795  73.5620411  55.5607307  80.0154662  77.8959397  70.5941574
  80.2340671  78.8276505  70.6129608  80.4280435  77.5367372  71.3796378
  86.9358879  68.4027483  62.5817262  86.1259608  68.0574568  62.9572508
  87.6243296  68.0935026  63.1704874  88.8649428  67.4805529  64.2041559
  89.4180466  67.9000983  64.8631582  89.1019514  66.5541277  64.2464515
  84.8882527  73.4692603  79.9844323  84.7879254  74.4186960  79.9156414
  84.6704069  73.1410842  79.1120393  84.0895598  70.7177528  56.5685000
  84.9514762  71.0432426  56.8280818  84.2745942  69.9309024  56.0558066
  76.1063014  78.7999868  68.8465189  75.4126486  78.3853821  68.3335143
  76.8536005  78.8420404  68.2498608  92.2428235  69.5906055  63.7120223
  91.6626904  70.2490859  63.3298276  91.9764167  68.7683399  63.3007641
  90.6931801  68.9911112  65.9141544  91.1931580  69.1027647  65.1055862
  91.3367409  68.6872165  66.5542352  84.7513797  76.8989742  78.8009385
  84.2680879  77.6990102  79.0073274  84.8374736  76.9097687  77.8476829
  78.0199757  78.7318122  66.7231204  77.9970445  78.8305809  65.7713087
  78.3300393  79.5783272  67.0448370  80.6787134  80.7894277  70.8377818
  81.6330388  80.7578219  70.7707750  80.4799658  80.3284900  71.6528044
  81.2686517  79.3595393  73.4048616  82.0879406  79.8539471  73.4283453
  81.5423324  78.4427361  73.3766184  91.0253113  71.7506145  62.7676572
  90.1378968  72.0355796  62.5496766  91.4407102  71.5899908  61.9203848
  94.3767649  71.7752666  66.4830911  95.1528039  72.2649118  66.7555528
  93.6515783  72.2010720  66.9402780  96.8140208  72.4880285  67.5404851
  97.4084698  72.2476021  66.8298160  96.8866791  71.7687416  68.1678388
  79.0337363  86.3313896  67.8548016  78.8991831  85.5714297  67.2886014
  78.6169426  87.0554796  67.3876805  90.1696326  81.5150820  56.8624591
  90.8732176  81.7200822  57.4782247  89.4458975  82.0827581  57.1273675
  90.9994137  77.2660681  62.9826862  90.9429338  77.7229232  62.1434494
  91.5522479  76.5051365  62.8049704  94.8098942  73.0550413  63.8076981
  94.5535877  72.6547048  64.6385189  94.1851811  73.7694207  63.6827120
  99.1211280  75.7946486  66.3148273  98.5610838  75.8639675  67.0879835
  98.5154784  75.6187471  65.5947769  82.1906489  87.2283213  68.0666459
  82.0738873  88.1728646  67.9645149  81.3698935  86.9256775  68.4552258
  92.0783024  81.9533349  58.9123052  92.9128628  81.5214547  58.7300526
  91.9167367  81.7815362  59.8399946  91.7328916  78.4565462  60.2779391
  91.6777720  78.2909734  59.3367835  91.1074971  79.1641495  60.4341581
  76.5221431  73.6933526  74.1040813  77.1680294  73.1832480  74.5928038
  76.3138582  74.4302208  74.6784238  89.0474823  80.7614374  79.6032954
  89.9165983  80.9355026  79.2419589  88.5681575  81.5808791  79.4808683
  85.0425041  67.9573571  59.8564709  85.0303711  68.9015411  60.0132980
  85.9348463  67.7743717  59.5624170  83.2161003  87.8811475  71.2822387
  84.1188250  87.9135085  71.5988882  82.9898373  86.9511926  71.2968723
  84.9714605  86.6342462  67.9432466  84.0210236  86.6344323  67.8296838
  85.2747091  85.8875196  67.4268501  88.8577161  64.5516348  64.1110646
  88.0909557  63.9974834  64.2567328  89.2687866  64.6238217  64.9724798
  80.8618922  70.8401144  78.2015827  81.7250383  70.4837948  78.4119152
  80.2884333  70.5015038  78.8891232 100.7067299  92.4703000  69.0078228
 101.3445709  92.3509747  68.3041568 100.5888142  93.4183844  69.0666180
  97.5157005  92.4230428  68.9439753  97.1775517  92.3071493  68.0560288
  98.3846773  92.0221593  68.9240759  93.3743821  94.2765904  64.9336644
  92.8108686  94.1855841  64.1652932  93.2596216  93.4565809  65.4139136
  97.9976788  93.5765280  74.9025959  97.9865429  93.1818078  74.0306462
  98.1597428  92.8431352  75.4959730  90.9208253  95.7717096  67.7720864
  91.7129545  95.4307921  67.3567164  91.1604903  95.8812071  68.6923018
  98.9543379  97.9436872  60.2451109  98.3031359  98.5290953  59.8585123
  99.7487742  98.4743067  60.3046146  92.8799007  95.0326009  60.6438243
  93.6529883  94.4854996  60.5051119  93.2324406  95.8970259  60.8552705
  94.7184049  96.3602392  73.8505142  94.4273915  97.2648022  73.7351809
  95.3541034  96.4018919  74.5649212  95.6440256  93.7379240  70.4406502
  96.2403828  93.5135262  69.7263465  95.7015228  92.9963986  71.0431950
  95.2165284  91.1918675  58.2756693  95.4690805  90.6700197  57.5140156
  94.2789844  91.0284821  58.3783377 100.2608567  90.1954454  66.0831436
 101.0471657  89.7773877  65.7321853 100.5247272  91.1000546  66.2513085
 100.4318645  95.6327304  60.7820093  99.7964478  95.7061931  61.4940998
 100.1016051  96.2220903  60.1039172 105.6616994  90.1329687  66.9864415
 106.3942166  89.5628904  67.2202244 104.9056350  89.7451287  67.4270920
  94.9361573  93.0946781  60.4781068  94.8197831  92.4191685  61.1462152
  95.0463833  92.6079155  59.6613221  97.2793114  92.5556928  64.1827757
  96.9151321  92.0287549  64.8940679  98.1360230  92.1655397  64.0094243
 103.1842415  83.8451261  71.4459023 102.8525740  84.7146672  71.2220238
 102.5888028  83.5287545  72.1253054  96.9198601  87.5846828  59.1789106
  97.0873003  88.4527065  59.5459577  96.7295770  87.7474110  58.2550395
  99.6773934  96.0463807  70.8454936  99.3774657  96.9488846  70.7370743
  99.3324994  95.7795990  71.6976089  93.1286416  92.4977604  66.8791641
  92.2036912  92.3653818  67.0869332  93.3770829  93.2771823  67.3761583
 103.0771078  88.5646347  68.5252374 102.1687955  88.4961756  68.2311134
 103.0258674  89.0418292  69.3534199  96.8987822  90.0404486  60.1635773
  96.7787447  90.4861536  61.0021253  96.2040410  90.3889803  59.6049311
  90.4895227  92.1410877  67.7135430  90.6187608  92.3945356  68.6274841
  89.8092678  92.7338585  67.3940085  97.1511944  89.9835993  76.4687271
  96.3745278  90.5429913  76.4590135  97.7902507  90.4692776  76.9902141
 104.9432724  86.7662786  70.3030247 104.3007105  87.0595319  69.6570042
 104.4387653  86.6515706  71.1083444 102.5972888  90.5125959  60.9916107
 103.5090744  90.7453346  60.8163804 102.0882535  91.0963003  60.4291185
  95.4058316  92.7921446  76.0305238  96.1473001  93.3306490  75.7540061
  94.6995302  93.4187735  76.1876790 100.8813656  94.9350587  74.6277399
 101.2897012  94.4932997  73.8832032 100.1590917  94.3603214  74.8811592
  97.2344726  89.8723193  72.0010956  98.0805921  90.2962607  72.1445605
  97.1743364  89.2156818  72.6949519 101.2042470  95.4951777  68.3829688
 100.5751333  95.6597491  67.6805756 100.8168133  95.9093387  69.1540652
 100.3844171  87.5327562  73.6592130 100.1405103  88.2869622  73.1226406
 100.6604102  87.9112909  74.4939377 102.3382634  94.0766174  72.3369395
 102.5499529  94.7197934  71.6603777 102.2912382  93.2428491  71.8691326
  99.9408863  86.6883995  69.2405968  99.0793342  86.9865248  69.5322705
  99.9671298  86.9054394  68.3087000  96.7570432  95.2326185  65.6479773
  97.2208778  95.5113888  64.8584396  96.4927230  94.3309630  65.4652864
  93.6494513  94.7797667  68.5859537  94.2195870  95.2084935  67.9477021
  94.2402625  94.4980252  69.2843722  95.6939318  91.3549338  62.4569338
  96.3963362  91.8070381  62.9243265  95.3619947  90.7133157  63.0849232
  94.1419680  89.9461094  76.8320548  93.5118340  90.6277375  77.0655945
  94.0355768  89.8344176  75.8873686  89.4364652  89.6132890  67.7586472
  88.6463706  89.8690419  67.2826583  89.9275900  90.4281228  67.8638512
  91.3879398  89.9777470  64.7169949  90.5910561  90.0896164  65.2353444
  91.1604990  90.3164122  63.8510839  97.2185065  96.5022173  72.6652463
  97.2829498  96.9642580  73.5010635  96.5095989  95.8719538  72.7934773
  87.7202355  89.8663381  70.1901463  87.9710394  90.7510391  70.4559039
  88.2561904  89.6867982  69.4176555  96.9333083  98.1690280  62.5331444
  96.7978758  99.0141816  62.9616291  97.4742896  98.3709558  61.7697377
  93.4200423  84.2481860  79.1945799  93.0267368  83.6948059  79.8693443
  94.2366563  84.5592439  79.5852316  90.3862480  95.6865718  63.1059369
  90.8987001  96.4808969  63.2564933  91.0385193  94.9892009  63.0392970
  92.1957365  98.8031475  65.1882122  92.3723993  99.7249439  65.0003106
  92.9914199  98.4889894  65.6176502  96.3368384  85.6639739  76.7866055
  97.0778097  86.2646892  76.7070518  96.5686306  84.9217377  76.2284098
  91.4809722  90.8496107  75.0644285  91.3663237  89.9481364  75.3651384
  90.6254239  91.0959803  74.7129102  93.3188681 100.3209648  71.1892464
  93.8696106 100.1926712  70.4169458  92.4800156 100.6204537  70.8387357
  97.1155852  96.5860776  75.5336695  97.6484188  95.8249064  75.3036003
  96.5869933  96.2934428  76.2760850 100.2825547  81.6920842  71.0630337
  99.9389816  82.5822484  70.9869448 100.6504509  81.5022500  70.1999922
  88.3511397  94.0154373  63.8818939  89.1886619  94.4251381  63.6652647
  88.5289665  93.0753815  63.8519133 100.2475829  91.6829453  59.5702772
  99.7322453  92.4534058  59.8091160  99.9753138  91.0094589  60.1935834
  97.8322940  86.5279154  64.6288011  96.9764537  86.1386005  64.4493649
  98.2449892  86.6071115  63.7687796  99.3622087  84.0625497  69.0279570
  98.8586883  84.0255633  68.2147376  99.6552694  84.9718240  69.0876227
  95.6064973  84.1464227  68.0345752  96.4717970  83.9507036  67.6751642
  95.6742482  83.9174579  68.9615109 100.0362132  89.5556545  61.3962553
  99.7312268  89.8702695  62.2472697 100.9892575  89.6337965  61.4389886
  98.4808564  95.7146769  63.0455507  97.9529926  94.9799528  62.7328745
  97.9796067  96.4921445  62.7995476 103.4601410  93.9095789  68.1622554
 102.8025085  94.5995051  68.2502682 104.2641810  94.2992221  68.5056540
  93.2127292  86.3766435  65.4062119  93.7871044  86.1541617  64.6735312
  93.7998274  86.4455130  66.1590720 102.2706869  92.2640162  66.2126495
 102.7838751  92.8970154  66.7148205 102.9208093  91.6641357  65.8469855
  93.5396879  88.4070896  59.4258004  92.7034191  88.7445583  59.7467279
  93.4001649  88.2719876  58.4885141  95.5149960  83.2507684  64.1337188
  94.8614372  82.9356701  63.5093803  95.4730434  82.6283424  64.8597011
  96.6261164  93.5326979  56.0490480  95.7188226  93.3016232  56.2481629
  97.1232196  92.7364598  56.2364462  98.7487700  89.7389617  68.4584836
  97.8310261  89.9604564  68.3006524  99.1647844  89.8135928  67.5996543
  99.5322748  91.1381033  63.5887516 100.2794567  91.6502430  63.2794638
  99.8014337  90.8165086  64.4491910  97.8049398  93.6339574  60.5714470
  96.8960617  93.3498607  60.6686940  97.8344482  94.0538652  59.7117777
 101.9801585  88.1738149  65.5706305 101.2424342  87.6615536  65.9016548
 102.2328358  87.7338531  64.7589582 102.0813212  80.9514401  66.1648075
 102.3872089  80.0911765  65.8773990 102.8065817  81.5432022  65.9647069
  88.3737568  91.3545088  64.5529673  88.1761968  90.7614449  63.8280739
  87.8184232  91.0497298  65.2705611  96.3534292  91.2468194  66.6724266
  96.4082902  90.2942031  66.5966742  95.5425494  91.4027634  67.1565564
  97.5025486  95.1748318  57.9102549  97.0644916  94.4584176  57.4508186
  98.2435927  95.4024432  57.3487640  94.2926652  89.8645254  64.4314645
  93.4794517  90.1639425  64.8379837  94.7885646  89.4700943  65.1489127
  96.4435230  99.8603011  66.3648909  96.4011409 100.0863857  65.4357441
  97.3597929  99.6266386  66.5134711  99.8900864  90.3287079  73.2629539
 100.2450251  90.5558552  74.1224004 100.5372995  90.6605455  72.6406794
 105.6198601  93.4505515  63.9678868 105.4816499  93.6407111  63.0400057
 105.2634819  94.2124897  64.4246919  93.7840727  87.4363610  70.0475880
  94.4240106  87.2952369  69.3498843  92.9518257  87.1498123  69.6714482
  94.5601031  96.7366040  66.1610872  95.3541629  96.2416360  65.9593447
  93.8492723  96.2083903  65.7978578  90.8683794  90.8809122  62.2370625
  89.9381382  90.8193577  62.4540587  90.9641266  90.3585075  61.4407266
  90.7869343  87.4063935  64.8248866  91.0476160  88.3209268  64.7158027
  91.6086515  86.9388377  64.9745479  92.2594268  88.8201692  71.9947691
  92.9317322  88.6119054  71.3460340  91.4324055  88.6223778  71.5552923
  98.1619840  85.4463633  74.0113352  97.5147755  86.1453582  73.9177828
  98.9320856  85.8799777  74.3789600  98.3383975  93.2844398  72.0710172
  99.2676035  93.4355557  71.8979139  97.9175005  93.3728419  71.2158818
  97.1372307  97.3095062  69.8408709  96.9983392  96.9413847  70.7134647
  96.3486903  97.8242702  69.6692667  98.6877522  96.6876665  67.2297547
  98.3527354  96.6477435  68.1255197  98.1881467  96.0221381  66.7567957
  92.6621766  92.0944295  72.7550128  92.5241564  91.3624534  73.3561667
  93.5726689  92.0053195  72.4734316 101.6236713  94.0332699  57.5034607
 101.0065884  93.3079527  57.4067659 101.1553202  94.7942059  57.1601681
  95.2904066  91.8064254  72.2433808  96.0003685  91.1657446  72.2020426
  95.2473374  92.0577149  73.1659989  94.0033000  88.7929472  74.0629447
  93.4670357  88.3420211  74.7151044  93.4149709  88.9275381  73.3199912
  93.4135259  88.2518124  56.6255911  92.5364726  88.1306924  56.2618158
  93.8893012  87.4604202  56.3734800  84.9337399  93.0395283  66.7197418
  85.6208439  92.7257013  66.1318433  84.7785528  93.9436648  66.4464669
  89.7372122  87.9285480  71.1482442  89.6530310  87.3211149  70.4132852
  88.9154828  88.4194498  71.1491938  99.9095835  86.4139043  66.5152637
 100.4064535  85.6609006  66.1953707  99.1382817  86.4503360  65.9495846
 100.9925616  95.1710731  64.0891060 100.0581895  95.2912193  63.9195765
 101.1702285  94.2683197  63.8251070  96.4930804  88.5556426  66.2424321
  96.1228592  88.0027467  66.9305227  96.9889897  87.9514560  65.6899321
 104.3798167  91.0128050  64.6241094 104.8458620  91.8456041  64.5501397
 104.8305668  90.5473031  65.3286353  94.3220003  99.0153921  73.3379339
  95.0229462  99.6490404  73.4908734  93.8515118  99.3568653  72.5774979
 102.3514830  83.3808637  68.6631996 101.4377910  83.6112864  68.8314203
 102.7807932  83.4647081  69.5146028 102.1221289  91.5698529  71.1631890
 101.4692739  91.8174436  70.5084342 102.5001669  90.7562667  70.8294367
  98.1708862  92.3118340  77.6497927  97.4949499  92.2112469  78.3200302
  98.9936496  92.1557554  78.1133924  89.9187721  98.5490276  70.2710442
  90.5041158  97.8033964  70.4038346  89.7212559  98.8594233  71.1547106
  92.7726376 101.5841524  65.2872884  92.1036751 102.0687651  64.8036924
  92.6339246 101.8310744  66.2016263  84.5105376  91.1195877  68.9914885
  84.5489475  90.5859467  69.7852003  84.0045668  90.5931082  68.3725862
  91.8896138  85.9660417  72.4877427  91.9537464  86.8275248  72.0754825
  91.8263258  85.3534419  71.7549786  91.3648410  88.0383550  76.1350462
  91.9920449  87.6560627  76.7487986  90.5076329  87.8197752  76.5006154
  88.1413953  89.8459979  62.0668817  88.4367394  88.9370657  62.0135870
  87.2401989  89.8247718  61.7449819  91.6708200  87.9215975  68.0496365
  90.9494786  88.5351943  67.9103838  92.4601456  88.4573740  67.9713011
  94.4734514  85.2570402  74.3237017  94.9968915  85.5032698  75.0863326
  94.2546847  86.0890437  73.9040154  89.8701795  87.5274076  62.1908142
  89.5414501  86.6471455  62.0083248  90.2241165  87.4721745  63.0784531
  92.9843618  87.8147046  62.5583619  93.3239690  88.3432967  61.8362228
  93.4315738  88.1527452  63.3342186  95.6787059  86.1984097  72.0086687
  95.3383879  85.3991910  72.4107367  94.9726065  86.4985808  71.4363521
  96.3303530  83.2833409  70.4614010  97.1529600  82.8093888  70.3392901
  96.5741594  84.0623893  70.9612697  94.9711765  86.3121668  60.7576912
  95.6920127  86.6902921  60.2540629  94.3477069  87.0310545  60.8611890
  99.1142888  87.0166817  61.6935244  99.3306502  87.8991455  61.3924073
  98.6336955  86.6253030  60.9640886  93.8542109  89.9752530  68.2705989
  93.7086690  90.2892833  69.1630271  93.3767313  90.5937430  67.7176888
  95.7138492  86.9655078  68.3186879  95.7000061  86.0696171  67.9819177
  96.4310920  86.9725742  68.9525165  97.5664623  87.3992418  70.3640006
  97.3082401  88.3209489  70.3624337  97.0349663  87.0022853  71.0540470
  88.3287771  92.5157874  71.2093650  87.7841239  93.2917682  71.3413925
  89.2067121  92.8628679  71.0512772  95.1175388  85.8469458  63.5874449
  95.2391299  84.9186104  63.7865336  94.8277430  85.8608144  62.6752764
  97.9866578  83.5324369  66.7241169  98.0088275  83.5963702  65.7693148
  98.4034637  82.6928877  66.9181675  89.1153793  91.6427771  74.1023807
  88.3735529  91.7910406  74.6888438  88.7946538  91.9036036  73.2390557
  89.5610407  99.5293199  66.1334202  90.3868427  99.2296971  65.7532845
  89.2104459  98.7600822  66.5823990  94.5291940  98.8819668  68.2031875
  93.9071949  98.2190373  67.9034103  95.1996807  98.9080799  67.5205523
  87.7619012  97.4479526  67.0923135  86.9250920  97.0201700  66.9107137
  87.7342657  97.6411969  68.0293927  94.6016468  87.3601456  77.7964381
  94.6504623  88.2363578  77.4142151  95.1438982  86.8178849  77.2236025
  94.0905447  97.4323591  61.6790336  94.2393567  98.1159055  61.0257009
  94.8971890  97.4128681  62.1939792 102.4972951  90.7365973  75.7057554
 103.3982813  90.5972438  75.4141552 102.5720925  90.9020428  76.6455731
  96.8315756  88.1132828  74.5510740  95.9619065  88.4066394  74.2793329
  97.0675236  88.6973273  75.2718004 104.9574573  92.2964601  73.1020327
 105.4328695  92.4892248  72.2939178 104.0340139  92.3523787  72.8563710
  91.8458080  93.4588769  62.6851405  91.6004122  92.5551099  62.8831615
  92.0153995  93.4605919  61.7430883  99.5354790  84.3312445  72.0676160
 100.0536734  85.0673472  71.7422649  99.1809923  84.6376438  72.9022920
  91.1153728  89.1917126  60.1837566  90.4222972  89.2661481  59.5277602
  90.8705479  88.4277470  60.7059083  99.7867384  80.7512727  67.5877057
 100.0669138  80.0835917  68.2137484 100.5717991  80.9441823  67.0751721
 103.6576242  89.1730361  71.3348632 104.6093665  89.2728459  71.3560856
 103.4879693  88.3808630  71.8446717 101.6790622  86.2585945  71.5208033
 101.0840554  86.5390957  70.8254522 101.3940319  86.7479846  72.2924774
 106.1364320  92.3936481  70.4490932 106.1040640  91.4552482  70.6350616
 106.7464944  92.4720518  69.7156757  97.9747651  91.2632534  56.4918136
  98.9206756  91.1338742  56.5606554  97.5961896  90.5247196  56.9687564
 106.2858809  89.1847525  70.4949215 105.7697857  88.4005981  70.3079144
 107.1698757  88.8566241  70.6595734 103.9469536  82.9288540  66.4545028
 103.7494357  82.6203628  67.3388360 104.5569241  83.6550179  66.5842958
  97.8586344  95.3150280  77.9518793  98.7789353  95.4928879  78.1458839
  97.8235927  94.3706326  77.7998492  96.1590568  89.1882511  56.4273021
  95.2522024  88.8915623  56.5035735  96.4366549  88.8912329  55.5607307
  87.0768509  90.5088874  66.8772067  86.7571293  89.6554182  66.5846441
  86.5301937  90.7237452  67.6330035  90.8548416  93.2251315  70.5941574
  91.0734426  94.1568423  70.6129608  91.2674190  92.8659289  71.3796378
  97.7752634  83.7319400  62.5817262  96.9653362  83.3866485  62.9572508
  98.4637051  83.4226944  63.1704874  99.7043182  82.8097447  64.2041559
 100.2574221  83.2292900  64.8631582  99.9413269  81.8833195  64.2464515
  95.7276281  88.7984521  79.9844323  95.6273008  89.7478878  79.9156414
  95.5097823  88.4702760  79.1120393  94.9289353  86.0469446  56.5685000
  95.7908517  86.3724344  56.8280818  95.1139697  85.2600942  56.0558066
  86.9456769  94.1291785  68.8465189  86.2520240  93.7145738  68.3335143
  87.6929760  94.1712322  68.2498608 103.0821989  84.9197972  63.7120223
 102.5020658  85.5782776  63.3298276 102.8157922  84.0975317  63.3007641
 101.5325556  84.3203030  65.9141544 102.0325334  84.4319564  65.1055862
 102.1761164  84.0164083  66.5542352  95.5907552  92.2281660  78.8009385
  95.1074633  93.0282020  79.0073274  95.6768491  92.2389604  77.8476829
  88.8593511  94.0610039  66.7231204  88.8364199  94.1597726  65.7713087
  89.1694148  94.9075190  67.0448370  91.5180889  96.1186194  70.8377818
  92.4724143  96.0870137  70.7707750  91.3193413  95.6576818  71.6528044
  92.1080271  94.6887310  73.4048616  92.9273160  95.1831389  73.4283453
  92.3817079  93.7719278  73.3766184 101.8646867  87.0798063  62.7676572
 100.9772722  87.3647713  62.5496766 102.2800856  86.9191826  61.9203848
 105.2161403  87.1044584  66.4830911 105.9921794  87.5941036  66.7555528
 104.4909538  87.5302638  66.9402780 107.6533962  87.8172203  67.5404851
 108.2478453  87.5767939  66.8298160 107.7260546  87.0979333  68.1678388
  89.8731118 101.6605814  67.8548016  89.7385586 100.9006215  67.2886014
  89.4563180 102.3846714  67.3876805 101.0090081  96.8442737  56.8624591
 101.7125931  97.0492740  57.4782247 100.2852730  97.4119499  57.1273675
 101.8387891  92.5952599  62.9826862 101.7823092  93.0521150  62.1434494
 102.3916234  91.8343283  62.8049704 105.6492697  88.3842330  63.8076981
 105.3929631  87.9838966  64.6385189 105.0245565  89.0986124  63.6827120
 102.5722670  93.7857380  60.2779391 102.5171474  93.6201651  59.3367835
 101.9468726  94.4933413  60.4341581  87.3615185  89.0225444  74.1040813
  88.0074049  88.5124398  74.5928038  87.1532336  89.7594126  74.6784238
  95.8818796  83.2865489  59.8564709  95.8697466  84.2307329  60.0132980
  96.7742218  83.1035634  59.5624170  99.6970915  79.8808265  64.1110646
  98.9303311  79.3266752  64.2567328 100.1081620  79.9530134  64.9724798
  91.7012676  86.1693061  78.2015827  92.5644138  85.8129866  78.4119152
  91.1278087  85.8306956  78.8891232  39.1775050  -5.3631561  51.6581951
  38.6139915  -5.4541624  50.8898238  39.0627445  -6.1831657  52.1384443
  36.7239482  -3.8680370  54.4966171  37.5160773  -4.2089545  54.0812470
  36.9636132  -3.7585395  55.4168324  44.7574608  -1.6960594  46.9696415
  44.1062588  -1.1106513  46.5830429  45.5518971  -1.1654399  47.0291453
  38.6830235  -4.6071457  47.3683550  39.4561111  -5.1542469  47.2296426
  39.0355634  -3.7427207  47.5798011  40.5215278  -3.2795074  60.5750449
  40.2305144  -2.3749443  60.4597115  41.1572262  -3.2378547  61.2894519
  41.4471485  -5.9018226  57.1651809  42.0435057  -6.1262203  56.4508772
  41.5046456  -6.6433480  57.7677257  46.2349873  -4.0070162  47.5065400
  45.5995706  -3.9335535  48.2186304  45.9047280  -3.4176563  46.8284479
  40.7392802  -6.5450684  47.2026375  40.6229060  -7.2205781  47.8707459
  40.8495062  -7.0318311  46.3858528  45.4805163  -3.5933659  57.5700243
  45.1805886  -2.6908620  57.4616050  45.1356223  -3.8601476  58.4221396
  38.9317645  -7.1419862  53.6036947  38.0068141  -7.2743648  53.8114639
  39.1802058  -6.3625643  54.1006890  36.2926456  -7.4986588  54.4380736
  36.4218837  -7.2452109  55.3520148  35.6123907  -6.9058880  54.1185391
  40.4625943   3.1710662  50.5371211  40.3849973   4.1218487  50.6159691
  39.8587586   2.8256534  51.1946137  41.2089545  -6.8476020  62.7550544
  41.9504229  -6.3090976  62.4785368  40.5026530  -6.2209731  62.9122096
  46.6844885  -4.7046879  61.3522706  47.0928241  -5.1464469  60.6077338
  45.9622146  -5.2794252  61.6056899  47.0073699  -4.1445689  55.1074995
  46.3782562  -3.9799974  54.4051063  46.6199361  -3.7304079  55.8785959
  50.8862931  -3.2091251  52.4619359  50.2013969  -2.8292349  51.9116392
  50.9706780  -2.5995924  53.1951306  42.5601661  -4.4071280  52.3725080
  43.0240007  -4.1283577  51.5829702  42.2958459  -5.3087836  52.1898171
  39.4525742  -4.8599799  55.3104843  40.0227099  -4.4312531  54.6722328
  40.0433854  -5.1417214  56.0089029  49.2559691  -2.6859336  57.2337059
  50.0777134  -3.0879149  56.9519741  49.2522094  -2.7891102  58.1853175
  43.0216294  -3.1375293  59.3897770  43.0860727  -2.6754886  60.2255942
  42.3127218  -3.7677928  59.5180080  42.7364312  -1.4707185  49.2576750
  42.6009987  -0.6255650  49.6861598  43.2774124  -1.2687908  48.4942684
  36.1893709  -3.9531747  49.8304675  36.7018230  -3.1588497  49.9810240
  36.8416422  -4.6505457  49.7638277  37.9988594  -0.8365991  51.9127429
  38.1755222   0.0851974  51.7248412  38.7945427  -1.1507572  52.3421808
  44.3632788  -0.8483619  63.3877092  43.9196642  -1.6347240  63.0697997
  45.0250002  -0.6604468  62.7220983  39.1219909   0.6812183  57.9137771
  39.6727334   0.5529246  57.1414765  38.2831385   0.9807072  57.5632664
  46.4614026  -0.5680819  61.4158494  46.4432502   0.2528062  60.9238763
  47.3833946  -0.6926744  61.6408635  42.9187080  -3.0536690  62.2582002
  43.4515417  -3.8148401  62.0281310  42.3901162  -3.3463038  63.0006156
  34.1542626  -5.6243093  50.6064246  34.9917848  -5.2146085  50.3897954
  34.3320894  -6.5643651  50.5764440  44.2839793  -3.9250697  49.7700814
  43.7561155  -4.6597937  49.4574051  43.7827296  -3.1476021  49.5240782
  42.4292393  -6.1070487  42.7735787  41.5219455  -6.3381233  42.9726936
  42.9263425  -6.9032868  42.9609769  45.3360472   2.6027020  45.6932473
  44.6622171   2.9058717  46.3017431  45.7226294   3.4056101  45.3437930
  43.6080627  -6.0057892  47.2959777  42.6991846  -6.2898859  47.3932247
  43.6375711  -5.5858813  46.4363084  48.8399894  -2.3951302  51.0650945
  48.3862221  -3.2360393  51.1216135  48.2093861  -1.7589904  51.4025725
  47.2832833  -0.5574806  52.0000763  47.5755808   0.0030251  51.2813128
  47.7931454  -0.2646245  52.7553922  43.3056715  -4.4649148  44.6347856
  42.8676144  -5.1813289  44.1753493  44.0467155  -4.2373033  44.0732947
  42.2466459   0.2205545  53.0894216  42.2042637   0.4466392  52.1602748
  43.1629157  -0.0131080  53.2380017  40.3632259  -2.9031426  52.8856179
  41.1572858  -3.3981105  52.6838754  39.6523952  -3.4313562  52.5223884
  45.1827104  -0.5213330  57.2368546  45.2364126   0.0477606  58.0046262
  44.3141885  -0.3511445  56.8722583  47.3729867  -3.9284981  63.8109212
  47.2215374  -4.1574429  62.8939295  47.3634547  -2.9714379  63.8240557
  44.1415204  -6.3553068  58.7955478  45.0707264  -6.2041908  58.6224446
  43.7206234  -6.2669047  57.9404125  42.9403535  -2.3302404  56.5654016
  42.8014621  -2.6983619  57.4379954  42.1518132  -1.8154764  56.3937974
  43.5351687   2.7706693  47.9079552  43.7103443   2.2994736  48.7225175
  42.8484475   3.3972459  48.1360813  44.4908751  -2.9520801  53.9542854
  44.1558583  -2.9920031  54.8500504  43.9912696  -3.6176085  53.4813264
  38.4652994  -7.5453171  59.4795435  38.3272792  -8.2772932  60.0806974
  39.3757918  -7.6344271  59.1979623  49.0822074  -0.8965858  61.8885694
  49.0234620  -1.5806638  61.2216277  49.4841592  -0.1546868  61.4366320
  38.1012773   5.9196056  54.6819413  38.3409371   6.5514580  55.3598431
  37.2581969   5.5684096  54.9684772  49.0839481  -2.9326274  60.1199673
  48.1966260  -3.2700353  60.2426072  49.6538032  -3.6643243  60.3568439
  42.6140634   1.7275178  57.0860917  42.5410806   2.5330150  57.5980221
  42.1718028   1.9267144  56.2608938  42.4030414   0.9646948  50.5963738
  41.6197936   1.5068628  50.6901963  43.1023159   1.4820928  50.9957979
  45.0739318   1.6262012  59.2419075  45.7867290   2.2609477  59.1694977
  44.5829347   1.7225878  58.4259077  46.7956845  -4.4686735  50.8136367
  45.8613124  -4.3485273  50.6441071  46.9733513  -5.3714268  50.5496377
  40.1251232  -0.6243544  60.0624646  40.8260691   0.0092939  60.2154040
  39.6546347  -0.2828813  59.3020285  48.2505627  -2.2825595  48.3472553
  48.5265471  -2.3969000  49.2566427  47.3810126  -2.6808110  48.3084726
  44.8859691   1.9660756  51.9905367  45.0682086   1.1482412  52.4533119
  45.7092677   2.1828448  51.5530257  45.2201857   0.8928941  49.2520415
  45.7489623   0.3821396  48.6390577  45.4830076   0.5771472  50.1165948
  35.7218950  -1.0907189  56.9955749  36.3072386  -1.8363502  57.1283653
  35.5243788  -0.7803233  57.8792413  38.5757605   1.9444058  52.0118191
  37.9067980   2.4290186  51.5282231  38.4370475   2.1913278  52.9261570
  42.7162873   3.9787802  58.6100849  43.2681181   4.1419423  59.3749935
  43.0569067   4.5692239  57.9380874  47.5673748  -1.1950941  64.4649504
  48.1113652  -0.5820983  63.9704459  46.9860593  -0.6371363  64.9816517
  45.8531261   1.9269777  55.5964532  45.7282400   1.1259517  55.0875477
  46.5110352   2.4215970  55.1078502  47.9166169  -0.2721203  57.2244082
  46.9696505  -0.3915852  57.1522408  48.2648942  -1.1598705  57.3070343
  44.9212602  -0.4768487  53.4248434  44.7737565  -1.4051779  53.6056004
  45.7466096  -0.4548396  52.9405509  48.5246724   0.3460072  54.5113307
  49.4493272   0.1402933  54.3737758  48.3562028   0.0976473  55.4202648
  48.3142040   0.8645740  49.8675398  48.4878918   0.2992162  49.1149251
  48.8070932   1.6646634  49.6854888  34.1319000  -7.1239591  57.9338957
  33.5872468  -6.3479783  58.0659231  35.0098350  -6.7768787  57.7758078
  49.3017213   0.1812504  46.9672296  49.9968118   0.8019197  47.1859611
  49.6440363  -0.6692145  47.2424674  51.2008636  -2.3687791  48.4959627
  51.7259960  -2.0300518  47.7708947  51.1130989  -3.3040775  48.3122762
  42.8628685   1.5446283  60.6249504  43.1715811   1.2995430  61.4972203
  43.6604167   1.7492922  60.1368374  42.8849297   3.6984193  52.8554880
  42.4454287   3.2060571  53.5487737  43.6357414   3.1557160  52.6146956
  35.3641636  -0.1104266  52.8579508  36.1899656  -0.4100495  52.4778152
  35.0135688  -0.8796644  53.3069297  40.3323169  -0.7577798  54.9277182
  39.7103178  -1.4207093  54.6279410  41.0028036  -0.7316666  54.2450830
  33.5650241  -2.1917940  53.8168442  32.7282149  -2.6195766  53.6352443
  33.5373886  -1.9985497  54.7539233  50.8902542  -1.7354887  63.8010825
  50.0998086  -1.7530748  63.2615325  50.6535897  -1.1966593  64.5559862
  39.8936676  -2.2073875  48.4035643  40.0424796  -1.5238410  47.7502315
  40.7003119  -2.2268785  48.9185098  52.5118614  -2.4665479  61.3585575
  52.2203422  -2.1035498  62.1949036  51.8990745  -3.1798471  61.1798907
  37.6489309  -6.1808697  49.4096711  37.4035351  -7.0846367  49.6076922
  37.8185223  -6.1791547  48.4676189  43.3932081   0.2874256  45.8747390
  42.8206048   0.9064443  45.4217862  43.9664875   0.8373617  46.4087312
  46.6129341   0.5711406  47.0055972  47.5460014   0.5056967  47.2088848
  46.5252554   1.4067673  46.5470505  49.2417358  -0.1122724  43.9659920
  49.1630989  -0.4462860  44.8595678  50.0627025   0.3799044  43.9651392
  43.6617572  -4.3247186  64.6764099  44.5820582  -4.1468587  64.8704146
  43.6267155  -5.2691140  64.5243799  36.6579645  -6.4146151  57.3186881
  36.8765655  -5.4829043  57.3374914  37.0705419  -6.7738176  58.1041684
  32.7487997  -5.5105680  55.5710496  32.0551469  -5.9251728  55.0580450
  33.4960988  -5.4685144  54.9743915  41.3938780  -7.4115806  65.5254691
  40.9105862  -6.6115446  65.7318580  41.4799719  -7.4007861  64.5722135
  34.6624740  -5.5787427  53.4476511  34.6395428  -5.4799739  52.4958394
  34.9725376  -4.7322276  53.7693677  37.3212118  -3.5211272  57.5623125
  38.2755371  -3.5527329  57.4953057  37.1224641  -3.9820648  58.3773351
  37.9111500  -4.9510156  60.1293923  38.7304389  -4.4566077  60.1528760
  38.1848308  -5.8678187  60.1011490  35.6762347   2.0208348  54.5793323
  35.5416815   1.2608749  54.0131321  35.2594409   2.7449248  54.1122112
  46.8121310  -2.7954729  43.5869898  47.5157160  -2.5904726  44.2027554
  46.0883958  -2.2277967  43.8518982  38.8331472   2.9177665  54.7911766
  38.7163857   3.8623097  54.6890456  38.0123919   2.6151227  55.1797565
  48.7208007  -2.3572199  45.6368358  49.5553611  -2.7891001  45.4545833
  48.5592350  -2.5290186  46.5645253  45.6899806  -3.5491174  66.3278260
  46.5590966  -3.3750522  65.9664895  45.2106558  -2.7296757  66.2053990
  39.8585987   3.5705927  58.0067694  40.7613233   3.6029537  58.3234189
  39.6323357   2.6406378  58.0214030  41.6139589   2.3236913  54.6677773
  40.6635220   2.3238775  54.5542145  41.9172075   1.5769648  54.1513807
  57.3492282   8.1597452  55.7323535  57.9870692   8.0404199  55.0286875
  57.2313125   9.1078296  55.7911487  54.1581988   8.1124880  55.6685060
  53.8200500   7.9965945  54.7805595  55.0271757   7.7116045  55.6486066
  50.0168804   9.9660356  51.6581951  49.4533669   9.8750293  50.8898238
  49.9021199   9.1460261  52.1384443  54.6401771   9.2659732  61.6271265
  54.6290412   8.8712530  60.7551769  54.8022411   8.5325804  62.2205037
  47.5633236  11.4611548  54.4966171  48.3554528  11.1202373  54.0812470
  47.8029886  11.5706523  55.4168324  55.5968363  13.6331324  46.9696415
  54.9456343  14.2185404  46.5830429  56.3912726  14.1637519  47.0291453
  49.5223990  10.7220461  47.3683550  50.2954866  10.1749448  47.2296426
  49.8749389  11.5864710  47.5798011  51.3609033  12.0496843  60.5750449
  51.0698898  12.9542474  60.4597115  51.9966017  12.0913371  61.2894519
  52.2865239   9.4273692  57.1651809  52.8828812   9.2029714  56.4508772
  52.3440211   8.6858437  57.7677257  51.8590268   6.8813127  45.0002000
  52.1115788   6.3594649  44.2385463  50.9214827   6.7179273  45.1028683
  56.9033551   5.8848906  52.8076743  57.6896640   5.4668329  52.4567160
  57.1672255   6.7894998  52.9758391  57.0743628  11.3221756  47.5065400
  56.4389461  11.3956382  48.2186304  56.7441034  11.9115355  46.8284479
  62.3041978   5.8224139  53.7109722  63.0367150   5.2523356  53.9447551
  61.5481333   5.4345739  54.1516227  51.5786557   8.7841233  47.2026375
  51.4622815   8.1086137  47.8707459  51.6888816   8.2973607  46.3858528
  53.9218097   8.2451380  50.9073064  53.5576305   7.7182001  51.6185985
  54.7785213   7.8549849  50.7339549  59.8267398  -0.4654287  58.1704330
  59.4950723   0.4041124  57.9465545  59.2313011  -0.7818003  58.8498360
  53.5623584   3.2741280  45.9034412  53.7297987   4.1421516  46.2704884
  53.3720753   3.4368562  44.9795702  56.3198918  11.7358259  57.5700243
  56.0199641  12.6383298  57.4616050  55.9749977  11.4690442  58.4221396
  49.7711399   8.1872056  53.6036947  48.8461896   8.0548270  53.8114639
  50.0195812   8.9666275  54.1006890  59.7196061   4.2540799  55.2497680
  58.8112939   4.1856208  54.9556441  59.6683657   4.7312744  56.0779506
  53.5412805   5.7298938  46.8881079  53.4212430   6.1755988  47.7266560
  52.8465394   6.0784255  46.3294617  47.1320210   7.8305329  54.4380736
  47.2612591   8.0839808  55.3520148  46.4517661   8.4233037  54.1185391
  51.3019697  18.5002579  50.5371211  51.2243727  19.4510404  50.6159691
  50.6981341  18.1548452  51.1946137  53.7936927   5.6730445  63.1932577
  53.0170261   6.2324365  63.1835442  54.4327490   6.1587228  63.7147448
  61.5857708   2.4557238  57.0275554  60.9432088   2.7489771  56.3815349
  61.0812636   2.3410158  57.8328751  59.2397871   6.2020411  47.7161413
  60.1515728   6.4347797  47.5409111  58.7307519   6.7857455  47.1536492
  52.0483299   8.4815898  62.7550544  52.7897984   9.0200942  62.4785368
  51.3420285   9.1082187  62.9122096  57.5238639  10.6245039  61.3522706
  57.9321995  10.1827449  60.6077338  56.8015901  10.0497666  61.6056899
  53.8769709   5.5617645  58.7256263  54.7230904   5.9857059  58.8690912
  53.8168347   4.9051270  59.4194826  57.8467454  11.1846229  55.1074995
  57.2176316  11.3491943  54.4051063  57.4593116  11.5987839  55.8785959
  61.7256686  12.1200667  52.4619359  61.0407724  12.4999568  51.9116392
  61.8100535  12.7295994  53.1951306  57.0269154   3.2222014  60.3837437
  56.7830086   3.9764074  59.8471712  57.3029085   3.6007361  61.2184684
  58.9807617   9.7660626  59.0614702  59.1924512  10.4092386  58.3849083
  58.9337366   8.9322943  58.5936632  56.5833846   2.3778447  55.9651274
  55.7218325   2.6759700  56.2568012  56.6096281   2.5948846  55.0332307
  53.3995416  10.9220637  52.3725080  53.8633761  11.2008340  51.5829702
  53.1352214  10.0204082  52.1898171  50.2919497  10.4692119  55.3104843
  50.8620854  10.8979387  54.6722328  50.8827609  10.1874703  56.0089029
  52.3364302   7.0443790  49.1814645  53.0388345   7.4964833  49.6488571
  52.0044930   6.4027608  49.8094538  50.7844663   5.6355546  63.5565854
  50.1543324   6.3171827  63.7901251  50.6780751   5.5238628  62.6118993
  46.0789636   5.3027342  54.4831779  45.2888690   5.5584871  54.0071889
  46.5700883   6.1175680  54.5883819  60.0953445  12.6432581  57.2337059
  60.9170889  12.2412769  56.9519741  60.0915848  12.5400816  58.1853175
  48.0304381   5.6671922  51.4415255  47.2335544   5.7790616  51.9598751
  47.8029973   6.0058574  50.5756146  53.8610049  12.1916625  59.3897770
  53.9254481  12.6537032  60.2255942  53.1520973  11.5613990  59.5180080
  44.3627339   5.5557833  56.9146769  44.6135377   6.4404843  57.1804345
  44.8986887   5.3762434  56.1421861  68.1859438   8.9871330  53.5822031
  67.4323147   8.4178728  53.4266035  68.3206979   8.9533994  54.5292666
  53.5758066  13.8584732  49.2576750  53.4403741  14.7036268  49.6861598
  54.1167879  14.0604010  48.4942684  50.0625406  -0.0623688  65.9191105
  49.6692352  -0.6157489  66.5938750  50.8791546   0.2486891  66.3097623
  47.0287464  11.3760170  49.8304675  47.5411984  12.1703421  49.9810240
  47.6810177  10.6786461  49.7638277  48.8382348  14.4925927  51.9127429
  49.0148977  15.4143891  51.7248412  49.6339182  14.1784346  52.3421808
  52.9793367   1.3534191  63.5111362  53.7203080   1.9541344  63.4315825
  53.2111290   0.6111829  62.9529405  48.1234705   6.5390558  61.7889592
  48.0088220   5.6375816  62.0896691  47.2679223   6.7854255  61.4374408
  55.2026543  14.4808299  63.3877092  54.7590397  13.6944677  63.0697997
  55.8643756  14.6687449  62.7220983  49.9613664  16.0104100  57.9137771
  50.5121089  15.8821164  57.1414765  49.1225140  16.3098989  57.5632664
  57.3007781  14.7611099  61.4158494  57.2826256  15.5819980  60.9238763
  58.2227701  14.6365174  61.6408635  53.7580835  12.2755228  62.2582002
  54.2909172  11.5143516  62.0281310  53.2294916  11.9828880  63.0006156
  44.9936380   9.7048825  50.6064246  45.8311602  10.1145833  50.3897954
  45.1714648   8.7648267  50.5764440  56.8900813   7.3723905  46.2948079
  56.3747436   8.1428510  46.5336466  56.6178121   6.6989041  46.9181140
  54.4747924   2.2173606  51.3533317  53.6189520   1.8280456  51.1738956
  54.8874875   2.2965567  50.4933103  56.0047070  -0.2480051  55.7524877
  55.5011866  -0.2849916  54.9392682  56.2977677   0.6612692  55.8121534
  52.2489956  -0.1641321  54.7591059  53.1142953  -0.3598512  54.3996948
  52.3167465  -0.3930969  55.6860415  61.8635087  10.1256260  48.2301252
  61.0864529   9.7867419  47.7856414  62.5426568  10.1308883  47.5556217
  56.6787116   5.2450997  48.1207860  56.3737251   5.5597147  48.9718003
  57.6317558   5.3232417  48.1635193  55.1233548  11.4041221  49.7700814
  54.5954909  10.6693980  49.4574051  54.6221050  12.1815897  49.5240782
  60.1026394   9.5990241  54.8867860  59.4450068  10.2889503  54.9747989
  60.9066793   9.9886673  55.2301847  49.8552275   2.0660887  52.1307426
  50.4296027   1.8436068  51.3980618  50.4423258   2.1349581  52.8836027
  58.9131852   7.9534614  52.9371802  59.4263734   8.5864606  53.4393512
  59.5633076   7.3535809  52.5715162  50.1821862   4.0965348  46.1503311
  49.3459175   4.4340034  46.4712586  50.0426632   3.9614328  45.2130448
  52.1574943  -1.0597864  50.8582495  51.5039355  -1.3748847  50.2339110
  52.1155417  -1.6822124  51.5842318  53.2686148   9.2221431  42.7735787
  52.3613210   8.9910684  42.9726936  53.7657180   8.4259050  42.9609769
  56.1754227  17.9318938  45.6932473  55.5015925  18.2350635  46.3017431
  56.5620049  18.7348018  45.3437930  55.3912683   5.4284069  55.1830143
  54.4735245   5.6499016  55.0251831  55.8072827   5.5030380  54.3241850
  56.1747731   6.8275485  50.3132823  56.9219550   7.3396882  50.0039945
  56.4439321   6.5059538  51.1737216  54.4474381   9.3234026  47.2959777
  53.5385600   9.0393059  47.3932247  54.4769465   9.7433104  46.4363084
  59.6793649  12.9340615  51.0650945  59.2255976  12.0931525  51.1216135
  59.0487615  13.5702014  51.4025725  58.6226568   3.8632601  52.2951612
  57.8849325   3.3509988  52.6261855  58.8753342   3.4232983  51.4834889
  58.1226588  14.7717112  52.0000763  58.4149562  15.3322169  51.2813128
  58.6325208  15.0645673  52.7553922  45.0162552   7.0439540  51.2774979
  44.8186951   6.4508901  50.5526046  44.4609216   6.7391750  51.9950918
  52.9959275   6.9362646  53.3969572  53.0507885   5.9836483  53.3212049
  52.1850477   7.0922085  53.8810871  54.1450469  10.8642769  44.6347856
  53.7069899  10.1478628  44.1753493  54.8860910  11.0918884  44.0732947
  50.9351635   5.5539706  51.1559951  50.1219501   5.8533877  51.5625143
  51.4310629   5.1595395  51.8734434  53.0860213  15.5497463  53.0894216
  53.0436392  15.7758309  52.1602748  54.0022912  15.3160838  53.2380017
  56.5325847   6.0181531  59.9874845  56.8875235   6.2453004  60.8469311
  57.1797978   6.3499907  59.3652101  62.2623584   9.1399966  50.6924174
  62.1241482   9.3301562  49.7645363  61.9059803   9.9019349  51.1492225
  50.4265710   3.1258062  56.7721186  51.0665089   2.9846821  56.0744150
  49.5943241   2.8392575  56.3959788  62.2892963  11.2076493  55.7035446
  62.7229470  11.1151783  56.5518500  63.0024544  11.1833994  55.0655462
  51.2026014  12.4260492  52.8856179  51.9966612  11.9310812  52.6838754
  50.4917706  11.8978355  52.5223884  56.0220858  14.8078588  57.2368546
  56.0757881  15.3769524  58.0046262  55.1535640  14.9780473  56.8722583
  47.5108777   6.5703574  48.9615931  46.5806365   6.5088029  49.1785894
  47.6066249   6.0479527  48.1652573  47.4294326   3.0958387  51.5494173
  47.6901144   4.0103720  51.4403334  48.2511499   2.6282829  51.6990786
  48.9019252   4.5096144  58.7192998  49.5742305   4.3013506  58.0705647
  48.0749038   4.3118230  58.2798230  63.1508513  11.2500194  58.2368331
  63.3444403  12.1546005  58.4827606  63.0509131  10.7907613  59.0706916
  54.8044824   1.1358085  60.7358658  54.1572739   1.8348034  60.6423135
  55.5745839   1.5694229  61.1034907  58.2123622  11.4006937  63.8109212
  58.0609128  11.1717489  62.8939295  58.2028301  12.3577538  63.8240557
  54.9808958   8.9738850  58.7955478  55.9101018   9.1250009  58.6224446
  54.5599988   9.0622870  57.9404125  53.7797290  12.9989514  56.5654016
  53.6408376  12.6308298  57.4379954  52.9911886  13.5137153  56.3937974
  54.3745442  18.0998611  47.9079552  54.5497198  17.6286654  48.7225175
  53.6878230  18.7264377  48.1360813  55.3302505  12.3771117  53.9542854
  54.9952338  12.3371887  54.8500504  54.8306451  11.7115833  53.4813264
  49.3046749   7.7838747  59.4795435  49.1666547   7.0518986  60.0806974
  50.2151672   7.6947647  59.1979623  58.2661697   9.7227151  44.2279913
  57.6490867   8.9973979  44.1312966  57.7978185  10.4836511  43.8846988
  51.9329050   7.4958706  58.9679114  52.6428668   6.8551898  58.9265733
  51.8898358   7.7471601  59.8905295  59.9215828  14.4326059  61.8885694
  59.8628374  13.7485280  61.2216277  60.3235347  15.1745049  61.4366320
  50.6457984   4.4823924  60.7874754  50.1095341   4.0314662  61.4396350
  50.0574692   4.6169833  60.0445218  48.9406527  21.2487973  54.6819413
  49.1803125  21.8806497  55.3598431  48.0975724  20.8976013  54.9684772
  50.0560243   3.9412575  43.3501218  49.1789709   3.8201376  42.9863464
  50.5317996   3.1498654  43.0980106  59.9233236  12.3965643  60.1199673
  59.0360014  12.0591565  60.2426072  60.4931787  11.6648675  60.3568439
  41.5762383   8.7289735  53.4442725  42.2633423   8.4151465  52.8563740
  41.4210511   9.6331100  53.1709976  46.3797105   3.6179932  57.8727748
  46.2955294   3.0105601  57.1378158  45.5579811   4.1088950  57.8737245
  53.4534389  17.0567096  57.0860917  53.3804560  17.8622067  57.5980221
  53.0111782  17.2559062  56.2608938  53.2424169  16.2938866  50.5963738
  52.4591690  16.8360546  50.6901963  53.9416914  16.8112845  50.9957979
  56.5520819   2.1033495  53.2397943  57.0489518   1.3503458  52.9199014
  55.7807800   2.1397812  52.6741153  64.4050576   7.8073861  54.8816235
  64.3940452   8.6898576  54.5110168  63.5367956   7.4545412  54.6870772
  55.9133072  16.9553930  59.2419075  56.6261045  17.5901395  59.1694977
  55.4223101  17.0517796  58.4259077  57.6350599  10.8605182  50.8136367
  56.7006878  10.9806645  50.6441071  57.8127268   9.9577649  50.5496377
  53.1355787   4.2450878  52.9669628  52.7653575   3.6921919  53.6550534
  53.6314880   3.6409012  52.4144628  61.0223151   6.7022502  51.3486401
  61.4883603   7.5350493  51.2746704  61.4730651   6.2367483  52.0531659
  50.9644986  14.7048373  60.0624646  51.6654446  15.3384856  60.2154040
  50.4940101  15.0463105  59.3020285  59.0899382  13.0466323  48.3472553
  59.3659226  12.9322918  49.2566427  58.2203881  12.6483808  48.3084726
  58.9939813  -0.9296911  55.3877302  58.0802893  -0.6992684  55.5559509
  59.4232915  -0.8458467  56.2391335  58.7646272   7.2592981  57.8877196
  58.1117722   7.5068888  57.2329649  59.1426652   6.4457119  57.5539674
  55.7253446  17.2952674  51.9905367  55.9075840  16.4774330  52.4533119
  56.5486432  17.5120366  51.5530257  56.0595611  16.2220859  49.2520415
  56.5883378  15.7113314  48.6390577  56.3223831  15.9063389  50.1165948
  54.8133845   8.0012792  64.3743233  54.1374482   7.9006921  65.0445609
  55.6361479   7.8452005  64.8379231  46.5612704  14.2384728  56.9955749
  47.1466141  13.4928416  57.1283653  46.3637543  14.5488685  57.8792413
  49.4151359  17.2735976  52.0118191  48.7461735  17.7582103  51.5282231
  49.2764229  17.5205196  52.9261570  41.1530359   6.8090328  55.7160192
  41.1914458   6.2753919  56.5097310  40.6470652   6.2825534  55.0971169
  53.5556628  19.3079719  58.6100849  54.1074936  19.4711341  59.3749935
  53.8962821  19.8984157  57.9380874  48.5321121   1.6554869  59.2122734
  48.5962448   2.5169700  58.8000132  48.4688241   1.0428871  58.4795093
  48.0073394   3.7278002  62.8595768  48.6345432   3.3455079  63.4733293
  47.1501313   3.5092203  63.2251461  58.4067502  14.1340977  64.4649504
  58.9507406  14.7470935  63.9704459  57.8254347  14.6920555  64.9816517
  44.7838936   5.5354431  48.7914123  45.0792377   4.6265109  48.7381177
  43.8826972   5.5142170  48.4695126  56.6925015  17.2561695  55.5964532
  56.5676155  16.4551435  55.0875477  57.3504106  17.7507888  55.1078502
  48.3133183   3.6110427  54.7741672  47.5919769   4.2246395  54.6349145
  49.1026439   4.1468192  54.6958318  58.7559924  15.0570715  57.2244082
  57.8090259  14.9376066  57.1522408  59.1042697  14.1693213  57.3070343
  51.1159497   0.9464854  61.0482324  51.6393899   1.1927150  61.8108633
  50.8971830   1.7784889  60.6285461  46.5126778   3.2168528  48.9153448
  46.1839484   2.3365907  48.7328554  46.8666149   3.1616197  49.8029838
  55.7606357  14.8523431  53.4248434  55.6131319  13.9240138  53.6056004
  56.5859850  14.8743522  52.9405509  49.6268601   3.5041498  49.2828926
  49.9664674   4.0327419  48.5607534  50.0740722   3.8421904  50.0587493
  59.3640479  15.6751990  54.5113307  60.2887026  15.4694851  54.3737758
  59.1955782  15.4268391  55.4202648  52.3212042   1.8878549  58.7331994
  51.9808862   1.0886362  59.1352674  51.6151048   2.1880260  58.1608827
  52.9728514  -1.0272139  57.1859317  53.7954583  -1.5011661  57.0638207
  53.2166577  -0.2481655  57.6858003  51.6136748   2.0016120  47.4822219
  52.3345111   2.3797372  46.9785936  50.9902052   2.7204996  47.5857197
  55.7567871   2.7061269  48.4180551  55.9731486   3.5885907  48.1169379
  55.2761938   2.3147482  47.6886193  50.4967093   5.6646982  54.9951296
  50.3511673   5.9787285  55.8875577  50.0192296   6.2831882  54.4422194
  52.3563475   2.6549530  55.0432185  52.3425044   1.7590623  54.7064483
  53.0735904   2.6620194  55.6770471  54.2089606   3.0886870  57.0885313
  53.9507384   4.0103941  57.0869643  53.6774647   2.6917305  57.7785777
  59.1535795  16.1937657  49.8675398  59.3272672  15.6284080  49.1149251
  59.6464686  16.9938552  49.6854888  44.9712755   8.2052326  57.9338957
  44.4266223   8.9812134  58.0659231  45.8492105   8.5523131  57.7758078
  51.7600371   1.5363910  50.3119755  51.8816283   0.6080556  50.5110643
  51.4702414   1.5502596  49.3998071  54.6291562  -0.7781179  53.4486475
  54.6513259  -0.7141846  52.4938455  55.0459621  -1.6176671  53.6426981
  65.0075186   8.9574080  51.4865698  65.4506332   8.2081405  51.0884821
  64.1301696   8.9484216  51.1039430  60.1410967  15.5104422  46.9672296
  60.8361872  16.1311114  47.1859611  60.4834118  14.6599773  47.2424674
  45.7578777   7.3322223  60.8269114  45.0160513   7.4804858  61.4133744
  45.4371521   7.5930488  59.9635863  62.0402391  12.9604127  48.4959627
  62.5653715  13.2991400  47.7708947  61.9524743  12.0251142  48.3122762
  53.7022439  16.8738201  60.6249504  54.0109566  16.6287348  61.4972203
  54.4997921  17.0784839  60.1368374  53.7243051  19.0276110  52.8554880
  53.2848042  18.5352489  53.5487737  54.4751168  18.4849078  52.6146956
  46.2035390  15.2187651  52.8579508  47.0293410  14.9191423  52.4778152
  45.8529442  14.4495274  53.3069297  51.1716923  14.5714119  54.9277182
  50.5496933  13.9084825  54.6279410  51.8421790  14.5975251  54.2450830
  44.4043995  13.1373978  53.8168442  43.5675904  12.7096152  53.6352443
  44.3767641  13.3306421  54.7539233  51.2441451   3.0495908  64.5209688
  51.2929606   3.9258030  64.1387458  51.7863965   2.5073301  63.9481331
  61.7296297  13.5937031  63.8010825  60.9391840  13.5761170  63.2615325
  61.4929651  14.1325324  64.5559862  61.8494172  10.4429497  61.1143554
  61.8992177  10.2779505  62.0559076  61.7408095   9.5756756  60.7241434
  50.7330430  13.1218043  48.4035643  50.8818551  13.8053507  47.7502315
  51.5396874  13.1023133  48.9185098  59.1397934   6.4260425  62.4302860
  60.0407797   6.2866890  62.1386858  59.2145909   6.5914880  63.3701038
  53.4740739   3.8027280  61.2756047  52.6044049   4.0960846  61.0038635
  53.7100220   4.3867725  61.9963310  63.3512368  12.8626439  61.3585575
  63.0597177  13.2256419  62.1949036  62.7384500  12.1493447  61.1798907
  64.5508051  10.4279318  53.8788145  65.3854942  10.8669122  54.0425706
  64.6867180   9.9517972  53.0596391  61.5999557   7.9859053  59.8265633
  62.0753678   8.1786700  59.0184485  60.6765122   8.0418239  59.5809017
  48.4883063   9.1483220  49.4096711  48.2429105   8.2445550  49.6076922
  48.6578978   9.1500371  48.4676189  56.1779773   0.0206897  58.7921467
  56.6961717   0.7567924  58.4667956  55.8234906   0.3270890  59.6268226
  47.7578711   4.8811578  46.9082873  47.0647956   4.9555933  46.2522909
  47.5130463   4.1171922  47.4304390  54.2325836  15.6166173  45.8747390
  53.6599803  16.2356360  45.4217862  54.8058630  16.1665535  46.4087312
  60.3001226   4.8624813  58.0593939  61.2518649   4.9622911  58.0806163
  60.1304676   4.0703082  58.5692023  58.3215605   1.9480397  58.2453340
  57.7265537   2.2285409  57.5499828  58.0365302   2.4374298  59.0170081
  57.4523096  15.9003323  47.0055972  58.3853769  15.8348885  47.2088848
  57.3646308  16.7359590  46.5470505  60.0811112  15.2169194  43.9659920
  60.0024744  14.8829057  44.8595678  60.9020779  15.7090962  43.9651392
  62.7789303   8.0830933  57.1736238  62.7465624   7.1446934  57.3595922
  63.3889927   8.1614970  56.4402063  54.6172634   6.9526986  43.2163442
  55.5631739   6.8233194  43.2851861  54.2386879   6.2141648  43.6932871
  62.9283792   4.8741976  57.2194522  62.4122841   4.0900433  57.0324450
  63.8123740   4.5460693  57.3841041  68.5965853   9.1446940  56.3142275
  69.3269242   8.8832228  56.8749979  67.9872799   8.4075662  56.3544343
  66.6781150   7.2854802  56.9116726  65.9514314   7.1510767  56.3033218
  66.2628437   7.5931631  57.7173444  54.5011327  11.0044732  64.6764099
  55.4214336  11.1823331  64.8704146  54.4660910  10.0600778  64.5243799
  52.8015552   4.8776962  43.1518328  51.8947007   4.5810075  43.2281041
  53.0791533   4.5806781  42.2852614  43.7193492   6.1983326  53.6017374
  43.3996276   5.3448634  53.3091748  43.1726920   6.4131904  54.3575341
  47.4973399   8.9145767  57.3186881  47.7159409   9.8462875  57.3374914
  47.9099173   8.5553741  58.1041684  54.4177617  -0.5786148  49.3062569
  53.6078346  -0.9239063  49.6817815  55.1062034  -0.8878604  49.8950181
  52.3701265   4.4878973  66.7089630  52.2697992   5.4373330  66.6401721
  52.1522807   4.1597211  65.8365700  51.5714336   1.7363898  43.2930307
  52.4333500   2.0618796  43.5526124  51.7564680   0.9495394  42.7803373
  43.5881752   9.8186237  55.5710496  42.8945223   9.4040190  55.0580450
  44.3354743   9.8606774  54.9743915  59.7246973   0.6092424  50.4365530
  59.1445642   1.2677228  50.0543582  59.4582905  -0.2130231  50.0252947
  58.1750539   0.0097482  52.6386850  58.6750317   0.1214016  51.8301169
  58.8186147  -0.2941465  53.2787659  52.2332535   7.9176111  65.5254691
  51.7499617   8.7176472  65.7318580  52.3193474   7.9284056  64.5722135
  45.5018494   9.7504491  53.4476511  45.4789183   9.8492178  52.4958394
  45.8119131  10.5969642  53.7693677  48.1605872  11.8080646  57.5623125
  49.1149126  11.7764588  57.4953057  47.9618396  11.3471270  58.3773351
  48.7505254  10.3781762  60.1293923  49.5698143  10.8725841  60.1528760
  49.0242062   9.4613730  60.1011490  58.5071851   2.7692514  49.4921878
  57.6197706   3.0542165  49.2742073  58.9225840   2.6086278  48.6449155
  61.8586387   2.7939035  53.2076217  62.6346777   3.2835488  53.4800834
  61.1334521   3.2197090  53.6648087  64.2958945   3.5066655  54.2650158
  64.8903436   3.2662391  53.5543466  64.3685529   2.7873785  54.8923694
  46.5156101  17.3500266  54.5793323  46.3810569  16.5900667  54.0131321
  46.0988163  18.0741165  54.1122112  57.6515064  12.5337189  43.5869898
  58.3550914  12.7387192  44.2027554  56.9277713  13.1013951  43.8518982
  58.4812874   8.2847050  49.7072168  58.4248076   8.7415602  48.8679801
  59.0341217   7.5237735  49.5295011  62.2917680   4.0736782  50.5322288
  62.0354615   3.6733418  51.3630496  61.6670548   4.7880576  50.4072427
  66.6030018   6.8132856  53.0393579  66.0429576   6.8826045  53.8125141
  65.9973521   6.6373840  52.3193075  49.6725227  18.2469583  54.7911766
  49.5557611  19.1915015  54.6890456  48.8517673  17.9443144  55.1797565
  59.5601761  12.9719718  45.6368358  60.3947365  12.5400917  45.4545833
  59.3986104  12.8001732  46.5645253  59.2147654   9.4751832  47.0024698
  59.1596457   9.3096103  46.0613142  58.5893709  10.1827865  47.1586887
  44.0040169   4.7119896  60.8286120  44.6499032   4.2018850  61.3173345
  43.7957320   5.4488578  61.4029545  56.5293561  11.7800744  66.3278260
  57.3984720  11.9541396  65.9664895  56.0500312  12.5995160  66.2053990
  52.5243779  -1.0240059  46.5810016  52.5122449  -0.0798219  46.7378287
  53.4167201  -1.2069914  46.2869477  50.6979741  18.8997845  58.0067694
  51.6006988  18.9321455  58.3234189  50.4717111  17.9698295  58.0214030
  52.4533343  17.6528831  54.6677773  51.5028974  17.6530693  54.5542145
  52.7565829  16.9061566  54.1513807  48.3437660   1.8587513  64.9261134
  49.2069121   1.5024318  65.1364459  47.7703070   1.5201408  65.6136538
  68.1886037  23.4889369  55.7323535  68.8264447  23.3696117  55.0286875
  68.0706879  24.4370213  55.7911487  64.9975743  23.4416798  55.6685060
  64.6594254  23.3257862  54.7805595  65.8665511  23.0407963  55.6486066
  65.4795526  24.5951649  61.6271265  65.4684167  24.2004448  60.7551769
  65.6416165  23.8617722  62.2205037  58.4026990  26.7903466  54.4966171
  59.1948282  26.4494290  54.0812470  58.6423641  26.8998441  55.4168324
  62.2002787  27.3788761  60.5750449  61.9092653  28.2834392  60.4597115
  62.8359771  27.4205289  61.2894519  63.1258994  24.7565610  57.1651809
  63.7222566  24.5321632  56.4508772  63.1833965  24.0150355  57.7677257
  62.6984022  22.2105045  45.0002000  62.9509543  21.6886566  44.2385463
  61.7608581  22.0471190  45.1028683  67.7427305  21.2140823  52.8076743
  68.5290394  20.7960246  52.4567160  68.0066009  22.1186915  52.9758391
  73.1435732  21.1516057  53.7109722  73.8760904  20.5815273  53.9447551
  72.3875088  20.7637657  54.1516227  64.7611852  23.5743298  50.9073064
  64.3970059  23.0473919  51.6185985  65.6178968  23.1841767  50.7339549
  70.6661153  14.8637631  58.1704330  70.3344477  15.7333042  57.9465545
  70.0706766  14.5473915  58.8498360  64.4017339  18.6033198  45.9034412
  64.5691741  19.4713434  46.2704884  64.2114508  18.7660479  44.9795702
  60.6105154  23.5163973  53.6036947  59.6855650  23.3840188  53.8114639
  60.8589567  24.2958193  54.1006890  70.5589816  19.5832717  55.2497680
  69.6506693  19.5148125  54.9556441  70.5077412  20.0604662  56.0779506
  64.3806560  21.0590855  46.8881079  64.2606185  21.5047906  47.7266560
  63.6859148  21.4076173  46.3294617  57.9713965  23.1597247  54.4380736
  58.1006346  23.4131726  55.3520148  57.2911416  23.7524955  54.1185391
  64.6330682  21.0022362  63.1932577  63.8564016  21.5616283  63.1835442
  65.2721245  21.4879145  63.7147448  72.4251462  17.7849155  57.0275554
  71.7825843  18.0781688  56.3815349  71.9206391  17.6702076  57.8328751
  70.0791626  21.5312328  47.7161413  70.9909482  21.7639715  47.5409111
  69.5701273  22.1149373  47.1536492  62.8877054  23.8107816  62.7550544
  63.6291738  24.3492860  62.4785368  62.1814039  24.4374104  62.9122096
  68.3632394  25.9536956  61.3522706  68.7715750  25.5119367  60.6077338
  67.6409655  25.3789584  61.6056899  64.7163464  20.8909563  58.7256263
  65.5624659  21.3148977  58.8690912  64.6562101  20.2343187  59.4194826
  67.8662909  18.5513931  60.3837437  67.6223841  19.3055992  59.8471712
  68.1422839  18.9299279  61.2184684  69.8201372  25.0952544  59.0614702
  70.0318267  25.7384304  58.3849083  69.7731120  24.2614860  58.5936632
  67.4227601  17.7070364  55.9651274  66.5612080  18.0051618  56.2568012
  67.4490035  17.9240763  55.0332307  61.1313251  25.7984036  55.3104843
  61.7014608  26.2271305  54.6722328  61.7221363  25.5166621  56.0089029
  63.1758056  22.3735707  49.1814645  63.8782100  22.8256751  49.6488571
  62.8438685  21.7319526  49.8094538  61.6238418  20.9647464  63.5565854
  60.9937078  21.6463745  63.7901251  61.5174506  20.8530546  62.6118993
  56.9183390  20.6319260  54.4831779  56.1282444  20.8876788  54.0071889
  57.4094638  21.4467598  54.5883819  70.9347200  27.9724499  57.2337059
  71.7564643  27.5704686  56.9519741  70.9309603  27.8692733  58.1853175
  58.8698136  20.9963839  51.4415255  58.0729299  21.1082533  51.9598751
  58.6423728  21.3350491  50.5756146  64.7003803  27.5208542  59.3897770
  64.7648236  27.9828950  60.2255942  63.9914727  26.8905907  59.5180080
  55.2021093  20.8849750  56.9146769  55.4529132  21.7696760  57.1804345
  55.7380642  20.7054352  56.1421861  79.0253193  24.3163248  53.5822031
  78.2716901  23.7470646  53.4266035  79.1600734  24.2825912  54.5292666
  60.9019160  15.2668230  65.9191105  60.5086106  14.7134428  66.5938750
  61.7185301  15.5778808  66.3097623  57.8681218  26.7052088  49.8304675
  58.3805739  27.4995338  49.9810240  58.5203931  26.0078378  49.7638277
  59.6776103  29.8217844  51.9127429  59.8542731  30.7435809  51.7248412
  60.4732936  29.5076263  52.3421808  63.8187121  16.6826109  63.5111362
  64.5596835  17.2833262  63.4315825  64.0505044  15.9403747  62.9529405
  58.9628459  21.8682476  61.7889592  58.8481975  20.9667733  62.0896691
  58.1072977  22.1146173  61.4374408  66.0420297  29.8100216  63.3877092
  65.5984151  29.0236595  63.0697997  66.7037511  29.9979367  62.7220983
  60.8007418  31.3396018  57.9137771  61.3514843  31.2113081  57.1414765
  59.9618894  31.6390907  57.5632664  68.1401535  30.0903016  61.4158494
  68.1220011  30.9111897  60.9238763  69.0621455  29.9657092  61.6408635
  64.5974589  27.6047146  62.2582002  65.1302926  26.8435434  62.0281310
  64.0688670  27.3120798  63.0006156  67.7644284  12.7107212  57.7875644
  67.4208554  13.6008853  57.7114754  68.1323247  12.5208869  56.9245229
  55.8330135  25.0340742  50.6064246  56.6705357  25.4437751  50.3897954
  56.0108403  24.0940184  50.5764440  67.7294567  22.7015823  46.2948079
  67.2141191  23.4720428  46.5336466  67.4571876  22.0280959  46.9181140
  65.3141678  17.5465524  51.3533317  64.4583274  17.1572374  51.1738956
  65.7268630  17.6257484  50.4933103  66.8440825  15.0811867  55.7524877
  66.3405620  15.0442002  54.9392682  67.1371432  15.9904610  55.8121534
  63.0883711  15.1650597  54.7591059  63.9536707  14.9693405  54.3996948
  63.1561220  14.9360948  55.6860415  72.7028841  25.4548178  48.2301252
  71.9258284  25.1159337  47.7856414  73.3820322  25.4600801  47.5556217
  67.5180870  20.5742915  48.1207860  67.2131006  20.8889064  48.9718003
  68.4711312  20.6524335  48.1635193  70.9420148  24.9282159  54.8867860
  70.2843823  25.6181420  54.9747989  71.7460547  25.3178591  55.2301847
  60.6946030  17.3952805  52.1307426  61.2689782  17.1727986  51.3980618
  61.2817012  17.4641499  52.8836027  69.7525607  23.2826531  52.9371802
  70.2657489  23.9156523  53.4393512  70.4026831  22.6827727  52.5715162
  61.0215617  19.4257266  46.1503311  60.1852929  19.7631952  46.4712586
  60.8820386  19.2906245  45.2130448  62.9968697  14.2694053  50.8582495
  62.3433110  13.9543071  50.2339110  62.9549172  13.6469794  51.5842318
  64.1079902  24.5513349  42.7735787  63.2006964  24.3202602  42.9726936
  64.6050934  23.7550968  42.9609769  66.2306438  20.7575987  55.1830143
  65.3128999  20.9790934  55.0251831  66.6466581  20.8322298  54.3241850
  67.0141486  22.1567403  50.3132823  67.7613304  22.6688800  50.0039945
  67.2833075  21.8351455  51.1737216  69.4620323  19.1924519  52.2951612
  68.7243079  18.6801905  52.6261855  69.7147096  18.7524901  51.4834889
  69.5631950  11.9700771  52.8893381  69.8690827  11.1098134  52.6019296
  70.2884555  12.5618391  52.6892375  55.8556306  22.3731458  51.2774979
  55.6580706  21.7800818  50.5526046  55.3002970  22.0683668  51.9950918
  63.8353030  22.2654564  53.3969572  63.8901640  21.3128400  53.3212049
  63.0244232  22.4214003  53.8810871  61.7745390  20.8831624  51.1559951
  60.9613255  21.1825794  51.5625143  62.2704384  20.4887313  51.8734434
  67.3719601  21.3473448  59.9874845  67.7268989  21.5744921  60.8469311
  68.0191733  21.6791825  59.3652101  73.1017338  24.4691884  50.6924174
  72.9635237  24.6593480  49.7645363  72.7453557  25.2311267  51.1492225
  61.2659464  18.4549979  56.7721186  61.9058844  18.3138738  56.0744150
  60.4336995  18.1684493  56.3959788  73.1286718  26.5368411  55.7035446
  73.5623225  26.4443700  56.5518500  73.8418299  26.5125912  55.0655462
  62.0419768  27.7552410  52.8856179  62.8360367  27.2602730  52.6838754
  61.3311461  27.2270273  52.5223884  58.3502532  21.8995491  48.9615931
  57.4200120  21.8379947  49.1785894  58.4460004  21.3771444  48.1652573
  58.2688081  18.4250304  51.5494173  58.5294898  19.3395638  51.4403334
  59.0905253  17.9574747  51.6990786  59.7413006  19.8388061  58.7192998
  60.4136060  19.6305424  58.0705647  58.9142793  19.6410147  58.2798230
  73.9902267  26.5792112  58.2368331  74.1838158  27.4837922  58.4827606
  73.8902886  26.1199531  59.0706916  65.6438578  16.4650002  60.7358658
  64.9966493  17.1639952  60.6423135  66.4139594  16.8986146  61.1034907
  69.0517376  26.7298855  63.8109212  68.9002883  26.5009406  62.8939295
  69.0422056  27.6869456  63.8240557  65.8202713  24.3030767  58.7955478
  66.7494773  24.4541927  58.6224446  65.3993743  24.3914788  57.9404125
  60.1440503  23.1130664  59.4795435  60.0060301  22.3810903  60.0806974
  61.0545427  23.0239565  59.1979623  69.1055451  25.0519069  44.2279913
  68.4884622  24.3265897  44.1312966  68.6371940  25.8128429  43.8846988
  62.7722804  22.8250624  58.9679114  63.4822423  22.1843816  58.9265733
  62.7292112  23.0763519  59.8905295  70.7609583  29.7617977  61.8885694
  70.7022129  29.0777197  61.2216277  71.1629101  30.5036967  61.4366320
  61.4851738  19.8115842  60.7874754  60.9489095  19.3606580  61.4396350
  60.8968447  19.9461750  60.0445218  60.8953997  19.2704493  43.3501218
  60.0183463  19.1493294  42.9863464  61.3711750  18.4790571  43.0980106
  70.7626990  27.7257561  60.1199673  69.8753769  27.3883483  60.2426072
  71.3325541  26.9940592  60.3568439  52.4156137  24.0581653  53.4442725
  53.1027177  23.7443383  52.8563740  52.2604266  24.9623017  53.1709976
  57.2190859  18.9471849  57.8727748  57.1349048  18.3397519  57.1378158
  56.3973566  19.4380868  57.8737245  67.3914573  17.4325413  53.2397943
  67.8883273  16.6795375  52.9199014  66.6201555  17.4689730  52.6741153
  75.2444331  23.1365778  54.8816235  75.2334207  24.0190494  54.5110168
  74.3761710  22.7837329  54.6870772  66.7526827  32.2845847  59.2419075
  67.4654799  32.9193312  59.1694977  66.2616856  32.3809713  58.4259077
  63.9749542  19.5742796  52.9669628  63.6047329  19.0213836  53.6550534
  64.4708634  18.9700929  52.4144628  71.8616905  22.0314419  51.3486401
  72.3277357  22.8642411  51.2746704  72.3124406  21.5659401  52.0531659
  61.8038741  30.0340291  60.0624646  62.5048200  30.6676774  60.2154040
  61.3333856  30.3755022  59.3020285  69.8333568  14.3995006  55.3877302
  68.9196648  14.6299233  55.5559509  70.2626669  14.4833450  56.2391335
  69.6040026  22.5884898  57.8877196  68.9511477  22.8360806  57.2329649
  69.9820406  21.7749037  57.5539674  65.6527600  23.3304709  64.3743233
  64.9768237  23.2298839  65.0445609  66.4755233  23.1743923  64.8379231
  57.4006459  29.5676646  56.9955749  57.9859895  28.8220334  57.1283653
  57.2031297  29.8780603  57.8792413  51.9924113  22.1382246  55.7160192
  52.0308213  21.6045837  56.5097310  51.4864406  21.6117452  55.0971169
  59.3714876  16.9846787  59.2122734  59.4356202  17.8461618  58.8000132
  59.3081996  16.3720788  58.4795093  58.8467148  19.0569919  62.8595768
  59.4739187  18.6746997  63.4733293  57.9895067  18.8384121  63.2251461
  69.2461257  29.4632894  64.4649504  69.7901161  30.0762853  63.9704459
  68.6648102  30.0212473  64.9816517  55.6232691  20.8646348  48.7914123
  55.9186132  19.9557027  48.7381177  54.7220727  20.8434088  48.4695126
  59.1526938  18.9402345  54.7741672  58.4313524  19.5538313  54.6349145
  59.9420194  19.4760110  54.6958318  61.9553251  16.2756771  61.0482324
  62.4787653  16.5219068  61.8108633  61.7365585  17.1076806  60.6285461
  57.3520532  18.5460446  48.9153448  57.0233239  17.6657825  48.7328554
  57.7059903  18.4908115  49.8029838  60.4662356  18.8333416  49.2828926
  60.8058428  19.3619337  48.5607534  60.9134476  19.1713822  50.0587493
  63.1605796  17.2170466  58.7331994  62.8202617  16.4178280  59.1352674
  62.4544803  17.5172177  58.1608827  63.8122268  14.3019779  57.1859317
  64.6348338  13.8280257  57.0638207  64.0560332  15.0810263  57.6858003
  62.4530503  17.3308037  47.4822219  63.1738865  17.7089290  46.9785936
  61.8295807  18.0496914  47.5857197  66.5961626  18.0353186  48.4180551
  66.8125240  18.9177824  48.1169379  66.1155693  17.6439400  47.6886193
  61.3360847  20.9938900  54.9951296  61.1905428  21.3079203  55.8875577
  60.8586051  21.6123800  54.4422194  63.1957230  17.9841448  55.0432185
  63.1818799  17.0882541  54.7064483  63.9129658  17.9912111  55.6770471
  65.0483361  18.4178788  57.0885313  64.7901138  19.3395858  57.0869643
  64.5168401  18.0209222  57.7785777  55.8106509  23.5344244  57.9338957
  55.2659977  24.3104052  58.0659231  56.6885859  23.8815048  57.7758078
  62.5994126  16.8655828  50.3119755  62.7210037  15.9372474  50.5110643
  62.3096168  16.8794514  49.3998071  65.4685316  14.5510738  53.4486475
  65.4907013  14.6150071  52.4938455  65.8853375  13.7115247  53.6426981
  75.8468941  24.2865998  51.4865698  76.2900087  23.5373323  51.0884821
  74.9695451  24.2776134  51.1039430  56.5972531  22.6614140  60.8269114
  55.8554267  22.8096776  61.4133744  56.2765275  22.9222406  59.9635863
  64.5416194  32.2030118  60.6249504  64.8503320  31.9579265  61.4972203
  65.3391676  32.4076757  60.1368374  57.0429145  30.5479569  52.8579508
  57.8687165  30.2483341  52.4778152  56.6923197  29.7787191  53.3069297
  55.2437750  28.4665895  53.8168442  54.4069658  28.0388070  53.6352443
  55.2161395  28.6598339  54.7539233  62.0835205  18.3787825  64.5209688
  62.1323361  19.2549948  64.1387458  62.6257720  17.8365218  63.9481331
  72.5690051  28.9228948  63.8010825  71.7785595  28.9053087  63.2615325
  72.3323406  29.4617242  64.5559862  72.6887926  25.7721415  61.1143554
  72.7385931  25.6071422  62.0559076  72.5801849  24.9048674  60.7241434
  69.9791689  21.7552343  62.4302860  70.8801551  21.6158808  62.1386858
  70.0539663  21.9206798  63.3701038  64.3134494  19.1319198  61.2756047
  63.4437803  19.4252764  61.0038635  64.5493974  19.7159643  61.9963310
  74.1906123  28.1918356  61.3585575  73.8990931  28.5548337  62.1949036
  73.5778254  27.4785365  61.1798907  75.3901805  25.7571236  53.8788145
  76.2248697  26.1961040  54.0425706  75.5260934  25.2809889  53.0596391
  72.4393311  23.3150971  59.8265633  72.9147433  23.5078617  59.0184485
  71.5158877  23.3710157  59.5809017  59.3276818  24.4775138  49.4096711
  59.0822860  23.5737468  49.6076922  59.4972732  24.4792289  48.4676189
  67.0173528  15.3498815  58.7921467  67.5355472  16.0859841  58.4667956
  66.6628660  15.6562808  59.6268226  58.5972465  20.2103496  46.9082873
  57.9041710  20.2847851  46.2522909  58.3524217  19.4463839  47.4304390
  67.2686122  11.7699097  54.3122364  67.5487876  11.1022286  54.9382790
  68.0536729  11.9628193  53.7997028  71.1394980  20.1916731  58.0593939
  72.0912403  20.2914829  58.0806163  70.9698431  19.3995000  58.5692023
  69.1609360  17.2772314  58.2453340  68.5659292  17.5577327  57.5499828
  68.8759056  17.7666215  59.0170081  73.6183058  23.4122851  57.1736238
  73.5859378  22.4738851  57.3595922  74.2283682  23.4906887  56.4402063
  65.4566389  22.2818904  43.2163442  66.4025494  22.1525112  43.2851861
  65.0780634  21.5433566  43.6932871  73.7677546  20.2033894  57.2194522
  73.2516595  19.4192351  57.0324450  74.6517495  19.8752611  57.3841041
  71.4288273  13.9474910  53.1790334  71.2313095  13.6389998  54.0633666
  72.0387979  14.6736549  53.3088264  79.4359608  24.4738858  56.3142275
  80.1662996  24.2124146  56.8749979  78.8266553  23.7367580  56.3544343
  77.5174905  22.6146720  56.9116726  76.7908069  22.4802685  56.3033218
  77.1022192  22.9223549  57.7173444  65.3405081  26.3336650  64.6764099
  66.2608091  26.5115249  64.8704146  65.3054664  25.3892695  64.5243799
  63.6409306  20.2068880  43.1518328  62.7340761  19.9101993  43.2281041
  63.9185287  19.9098698  42.2852614  54.5587246  21.5275244  53.6017374
  54.2390031  20.6740552  53.3091748  54.0120675  21.7423822  54.3575341
  58.3367154  24.2437685  57.3186881  58.5553164  25.1754792  57.3374914
  58.7492928  23.8845659  58.1041684  65.2571372  14.7505770  49.3062569
  64.4472100  14.4052855  49.6817815  65.9455789  14.4413314  49.8950181
  67.1861920  13.8283817  50.9286866  67.7392959  14.2479270  51.5876889
  67.4232006  12.9019565  50.9709822  63.2095019  19.8170890  66.7089630
  63.1091746  20.7665247  66.6401721  62.9916561  19.4889129  65.8365700
  62.4108091  17.0655815  43.2930307  63.2727255  17.3910714  43.5526124
  62.5958435  16.2787311  42.7803373  54.4275506  25.1478155  55.5710496
  53.7338978  24.7332108  55.0580450  55.1748497  25.1898692  54.9743915
  70.5640727  15.9384342  50.4365530  69.9839396  16.5969146  50.0543582
  70.2976660  15.1161686  50.0252947  69.0144293  15.3389399  52.6386850
  69.5144072  15.4505934  51.8301169  69.6579901  15.0350452  53.2787659
  63.0726289  23.2468029  65.5254691  62.5893371  24.0468389  65.7318580
  63.1587228  23.2575974  64.5722135  56.3412249  25.0796409  53.4476511
  56.3182937  25.1784096  52.4958394  56.6512885  25.9261560  53.7693677
  58.9999627  27.1372564  57.5623125  59.9542880  27.1056506  57.4953057
  58.8012150  26.6763188  58.3773351  59.5899009  25.7073680  60.1293923
  60.4091898  26.2017759  60.1528760  59.8635817  24.7905648  60.1011490
  69.3465605  18.0984432  49.4921878  68.4591460  18.3834083  49.2742073
  69.7619594  17.9378196  48.6449155  72.6980141  18.1230953  53.2076217
  73.4740531  18.6127406  53.4800834  71.9728275  18.5489007  53.6648087
  75.1352700  18.8358572  54.2650158  75.7297191  18.5954308  53.5543466
  75.2079284  18.1165703  54.8923694  57.3549856  32.6792183  54.5793323
  57.2204323  31.9192584  54.0131321  56.9381918  33.4033083  54.1122112
  69.3206629  23.6138968  49.7072168  69.2641830  24.0707520  48.8679801
  69.8734971  22.8529653  49.5295011  73.1311435  19.4028700  50.5322288
  72.8748369  19.0025336  51.3630496  72.5064303  20.1172494  50.4072427
  77.4423773  22.1424773  53.0393579  76.8823331  22.2117963  53.8125141
  76.8367276  21.9665758  52.3193075  70.0541408  24.8043749  47.0024698
  69.9990212  24.6388021  46.0613142  69.4287463  25.5119782  47.1586887
  54.8433923  20.0411814  60.8286120  55.4892787  19.5310768  61.3173345
  54.6351074  20.7780495  61.4029545  67.3687315  27.1092661  66.3278260
  68.2378475  27.2833313  65.9664895  66.8894067  27.9287078  66.2053990
  63.3637534  14.3051858  46.5810016  63.3516203  15.2493698  46.7378287
  64.2560955  14.1222004  46.2869477  61.5373496  34.2289762  58.0067694
  62.4400742  34.2613372  58.3234189  61.3110866  33.2990213  58.0214030
  67.1789653  10.8994635  50.8355953  66.4122049  10.3453122  50.9812635
  67.5900358  10.9716504  51.6970104  59.1831414  17.1879431  64.9261134
  60.0462876  16.8316236  65.1364459  58.6096825  16.8493326  65.6136538
  79.0279791  38.8181287  55.7323535  79.6658201  38.6988034  55.0286875
  78.9100634  39.7662131  55.7911487  75.8369497  38.7708715  55.6685060
  75.4988009  38.6549780  54.7805595  76.7059266  38.3699880  55.6486066
  76.3189280  39.9243567  61.6271265  76.3077921  39.5296365  60.7551769
  76.4809920  39.1909640  62.2205037  73.0396541  42.7080679  60.5750449
  72.7486407  43.6126310  60.4597115  73.6753526  42.7497206  61.2894519
  73.9652748  40.0857527  57.1651809  74.5616321  39.8613550  56.4508772
  74.0227720  39.3442273  57.7677257  78.5821060  36.5432741  52.8076743
  79.3684149  36.1252164  52.4567160  78.8459764  37.4478833  52.9758391
  83.9829487  36.4807974  53.7109722  84.7154659  35.9107191  53.9447551
  83.2268842  36.0929575  54.1516227  81.5054907  30.1929548  58.1704330
  81.1738232  31.0624959  57.9465545  80.9100520  29.8765832  58.8498360
  77.9986427  42.3942094  57.5700243  77.6987150  43.2967133  57.4616050
  77.6537486  42.1274278  58.4221396  81.3983570  34.9124634  55.2497680
  80.4900448  34.8440043  54.9556441  81.3471166  35.3896579  56.0779506
  75.4724436  36.3314280  63.1932577  74.6957770  36.8908200  63.1835442
  76.1114999  36.8171063  63.7147448  83.2645217  33.1141073  57.0275554
  82.6219597  33.4073606  56.3815349  82.7600145  32.9993993  57.8328751
  79.2026148  41.2828874  61.3522706  79.6109504  40.8411284  60.6077338
  78.4803410  40.7081501  61.6056899  75.5557218  36.2201481  58.7256263
  76.4018413  36.6440894  58.8690912  75.4955856  35.5635105  59.4194826
  79.5254963  41.8430065  55.1074995  78.8963825  42.0075779  54.4051063
  79.1380625  42.2571674  55.8785959  83.4044195  42.7784502  52.4619359
  82.7195233  43.1583404  51.9116392  83.4888044  43.3879829  53.1951306
  78.7056663  33.8805849  60.3837437  78.4617595  34.6347910  59.8471712
  78.9816594  34.2591197  61.2184684  80.6595126  40.4244461  59.0614702
  80.8712021  41.0676221  58.3849083  80.6124874  39.5906778  58.5936632
  78.2621355  33.0362282  55.9651274  77.4005834  33.3343536  56.2568012
  78.2883790  33.2532681  55.0332307  71.9707006  41.1275954  55.3104843
  72.5408363  41.5563223  54.6722328  72.5615118  40.8458539  56.0089029
  72.4632172  36.2939382  63.5565854  71.8330833  36.9755662  63.7901251
  72.3568260  36.1822463  62.6118993  81.7740954  43.3016417  57.2337059
  82.5958398  42.8996604  56.9519741  81.7703357  43.1984651  58.1853175
  75.5397558  42.8500460  59.3897770  75.6041990  43.3120867  60.2255942
  74.8308482  42.2197825  59.5180080  89.8646947  39.6455165  53.5822031
  89.1110656  39.0762563  53.4266035  89.9994488  39.6117830  54.5292666
  71.7412915  30.5960147  65.9191105  71.3479860  30.0426346  66.5938750
  72.5579055  30.9070726  66.3097623  74.6580876  32.0118027  63.5111362
  75.3990589  32.6125180  63.4315825  74.8898799  31.2695664  62.9529405
  76.8814052  45.1392134  63.3877092  76.4377906  44.3528513  63.0697997
  77.5431265  45.3271285  62.7220983  78.9795290  45.4194934  61.4158494
  78.9613765  46.2403815  60.9238763  79.9015210  45.2949009  61.6408635
  75.4368344  42.9339064  62.2582002  75.9696681  42.1727352  62.0281310
  74.9082425  42.6412715  63.0006156  78.6038039  28.0399129  57.7875644
  78.2602308  28.9300771  57.7114754  78.9717001  27.8500787  56.9245229
  77.6834579  30.4103785  55.7524877  77.1799375  30.3733920  54.9392682
  77.9765186  31.3196527  55.8121534  81.7813903  40.2574076  54.8867860
  81.1237577  40.9473338  54.9747989  82.5854302  40.6470508  55.2301847
  80.5919361  38.6118449  52.9371802  81.1051243  39.2448441  53.4393512
  81.2420585  38.0119645  52.5715162  77.0700192  36.0867905  55.1830143
  76.1522754  36.3082852  55.0251831  77.4860336  36.1614215  54.3241850
  80.3014077  34.5216437  52.2951612  79.5636834  34.0093823  52.6261855
  80.5540851  34.0816818  51.4834889  80.4025705  27.2992689  52.8893381
  80.7084581  26.4390052  52.6019296  81.1278309  27.8910309  52.6892375
  74.6746784  37.5946482  53.3969572  74.7295394  36.6420318  53.3212049
  73.8637986  37.7505921  53.8810871  78.2113356  36.6765366  59.9874845
  78.5662744  36.9036839  60.8469311  78.8585487  37.0083743  59.3652101
  83.9411093  39.7983802  50.6924174  83.8028991  39.9885398  49.7645363
  83.5847312  40.5603185  51.1492225  83.9680472  41.8660329  55.7035446
  84.4016979  41.7735618  56.5518500  84.6812053  41.8417829  55.0655462
  70.5806761  35.1679979  58.7192998  71.2529814  34.9597341  58.0705647
  69.7536547  34.9702065  58.2798230  84.8296022  41.9084029  58.2368331
  85.0231912  42.8129840  58.4827606  84.7296640  41.4491449  59.0706916
  76.4832333  31.7941920  60.7358658  75.8360248  32.4931870  60.6423135
  77.2533348  32.2278064  61.1034907  79.8911131  42.0590772  63.8109212
  79.7396637  41.8301324  62.8939295  79.8815810  43.0161374  63.8240557
  76.6596467  39.6322685  58.7955478  77.5888527  39.7833845  58.6224446
  76.2387497  39.7206706  57.9404125  75.4584799  43.6573349  56.5654016
  75.3195885  43.2892134  57.4379954  74.6699395  44.1720989  56.3937974
  77.0090014  43.0354952  53.9542854  76.6739847  42.9955722  54.8500504
  76.5093960  42.3699668  53.4813264  70.9834258  38.4422582  59.4795435
  70.8454056  37.7102821  60.0806974  71.8939181  38.3531482  59.1979623
  73.6116559  38.1542541  58.9679114  74.3216177  37.5135734  58.9265733
  73.5685867  38.4055436  59.8905295  81.6003337  45.0909895  61.8885694
  81.5415883  44.4069115  61.2216277  82.0022856  45.8328885  61.4366320
  72.3245493  35.1407759  60.7874754  71.7882850  34.6898498  61.4396350
  71.7362201  35.2753668  60.0445218  81.6020745  43.0549479  60.1199673
  80.7147523  42.7175401  60.2426072  82.1719296  42.3232510  60.3568439
  78.2308328  32.7617331  53.2397943  78.7277027  32.0087293  52.9199014
  77.4595309  32.7981647  52.6741153  86.0838085  38.4657696  54.8816235
  86.0727961  39.3482412  54.5110168  85.2155465  38.1129247  54.6870772
  82.7010660  37.3606337  51.3486401  83.1671112  38.1934329  51.2746704
  83.1518160  36.8951319  52.0531659  80.6727322  29.7286924  55.3877302
  79.7590402  29.9591151  55.5559509  81.1020424  29.8125368  56.2391335
  80.4433781  37.9176816  57.8877196  79.7905231  38.1652723  57.2329649
  80.8214161  37.1040954  57.5539674  76.4921354  38.6596627  64.3743233
  75.8161991  38.5590756  65.0445609  77.3148988  38.5035841  64.8379231
  70.2108630  32.3138704  59.2122734  70.2749957  33.1753535  58.8000132
  70.1475750  31.7012706  58.4795093  69.6860903  34.3861837  62.8595768
  70.3132941  34.0038914  63.4733293  68.8288821  34.1676039  63.2251461
  80.0855011  44.7924812  64.4649504  80.6294915  45.4054770  63.9704459
  79.5041856  45.3504390  64.9816517  80.4347433  45.7154550  57.2244082
  79.4877768  45.5959901  57.1522408  80.7830206  44.8277048  57.3070343
  72.7947006  31.6048689  61.0482324  73.3181408  31.8510986  61.8108633
  72.5759339  32.4368724  60.6285461  81.0427988  46.3335825  54.5113307
  81.9674535  46.1278686  54.3737758  80.8743291  46.0852226  55.4202648
  73.9999551  32.5462384  58.7331994  73.6596371  31.7470197  59.1352674
  73.2938557  32.8464095  58.1608827  74.6516023  29.6311697  57.1859317
  75.4742092  29.1572175  57.0638207  74.8954086  30.4102180  57.6858003
  75.8877115  33.7470705  57.0885313  75.6294893  34.6687776  57.0869643
  75.3562156  33.3501140  57.7785777  76.3079071  29.8802656  53.4486475
  76.3300768  29.9441989  52.4938455  76.7247130  29.0407165  53.6426981
  86.6862695  39.6157915  51.4865698  87.1293841  38.8665241  51.0884821
  85.8089205  39.6068052  51.1039430  83.7189899  43.6187962  48.4959627
  84.2441224  43.9575235  47.7708947  83.6312252  42.6834978  48.3122762
  72.9228960  33.7079743  64.5209688  72.9717115  34.5841866  64.1387458
  73.4651474  33.1657136  63.9481331  83.4083806  44.2520866  63.8010825
  82.6179349  44.2345005  63.2615325  83.1717160  44.7909160  64.5559862
  83.5281681  41.1013332  61.1143554  83.5779686  40.9363340  62.0559076
  83.4195604  40.2340592  60.7241434  80.8185443  37.0844261  62.4302860
  81.7195306  36.9450725  62.1386858  80.8933418  37.2498715  63.3701038
  75.1528248  34.4611115  61.2756047  74.2831558  34.7544681  61.0038635
  75.3887729  35.0451560  61.9963310  85.0299877  43.5210274  61.3585575
  84.7384686  43.8840255  62.1949036  84.4172009  42.8077282  61.1798907
  86.2295560  41.0863154  53.8788145  87.0642451  41.5252958  54.0425706
  86.3654689  40.6101807  53.0596391  83.2787066  38.6442889  59.8265633
  83.7541187  38.8370535  59.0184485  82.3552631  38.7002074  59.5809017
  77.8567282  30.6790732  58.7921467  78.3749226  31.4151759  58.4667956
  77.5022415  30.9854725  59.6268226  78.1079876  27.0991015  54.3122364
  78.3881630  26.4314204  54.9382790  78.8930483  27.2920110  53.7997028
  81.9788735  35.5208649  58.0593939  82.9306158  35.6206746  58.0806163
  81.8092185  34.7286917  58.5692023  80.0003114  32.6064232  58.2453340
  79.4053046  32.8869245  57.5499828  79.7152811  33.0958133  59.0170081
  84.4576812  38.7414768  57.1736238  84.4253133  37.8030769  57.3595922
  85.0677436  38.8198805  56.4402063  84.6071301  35.5325812  57.2194522
  84.0910350  34.7484268  57.0324450  85.4911249  35.2044528  57.3841041
  82.2682028  29.2766827  53.1790334  82.0706849  28.9681916  54.0633666
  82.8781733  30.0028466  53.3088264  90.2753362  39.8030775  56.3142275
  91.0056751  39.5416063  56.8749979  89.6660308  39.0659497  56.3544343
  88.3568659  37.9438638  56.9116726  87.6301823  37.8094603  56.3033218
  87.9415946  38.2515466  57.7173444  76.1798836  41.6628568  64.6764099
  77.1001845  41.8407167  64.8704146  76.1448419  40.7184613  64.5243799
  78.0255674  29.1575734  50.9286866  78.5786713  29.5771188  51.5876889
  78.2625761  28.2311482  50.9709822  74.0488774  35.1462808  66.7089630
  73.9485501  36.0957165  66.6401721  73.8310316  34.8181047  65.8365700
  81.4034482  31.2676259  50.4365530  80.8233151  31.9261063  50.0543582
  81.1370414  30.4453604  50.0252947  79.8538048  30.6681317  52.6386850
  80.3537826  30.7797852  51.8301169  80.4973656  30.3642370  53.2787659
  73.9120044  38.5759947  65.5254691  73.4287125  39.3760307  65.7318580
  73.9980983  38.5867892  64.5722135  80.1859360  33.4276350  49.4921878
  79.2985215  33.7126000  49.2742073  80.6013349  33.2670113  48.6449155
  83.5373896  33.4522871  53.2076217  84.3134286  33.9419323  53.4800834
  82.8122030  33.8780925  53.6648087  85.9746454  34.1650490  54.2650158
  86.5690945  33.9246226  53.5543466  86.0473038  33.4457621  54.8923694
  83.9705189  34.7320618  50.5322288  83.7142123  34.3317253  51.3630496
  83.3458057  35.4464412  50.4072427  88.2817527  37.4716691  53.0393579
  87.7217085  37.5409880  53.8125141  87.6761030  37.2957676  52.3193075
  78.2081070  42.4384579  66.3278260  79.0772229  42.6125231  65.9664895
  77.7287821  43.2578996  66.2053990  78.0183408  26.2286553  50.8355953
  77.2515803  25.6745039  50.9812635  78.4294113  26.3008421  51.6970104
  70.0225169  32.5171348  64.9261134  70.8856630  32.1608153  65.1364459
  69.4490579  32.1785243  65.6136538  89.8673546  54.1473205  55.7323535
  90.5051956  54.0279952  55.0286875  89.7494388  55.0954049  55.7911487
  86.6763252  54.1000633  55.6685060  86.3381763  53.9841698  54.7805595
  87.5453020  53.6991798  55.6486066  82.5350068  55.9536109  51.6581951
  81.9714933  55.8626046  50.8898238  82.4202463  55.1336014  52.1384443
  87.1583035  55.2535485  61.6271265  87.1471676  54.8588283  60.7551769
  87.3203674  54.5201557  62.2205037  88.1149626  59.6207077  46.9696415
  87.4637606  60.2061157  46.5830429  88.9093989  60.1513272  47.0291453
  83.8790296  58.0372596  60.5750449  83.5880162  58.9418227  60.4597115
  84.5147280  58.0789124  61.2894519  84.8046503  55.4149445  57.1651809
  85.4010075  55.1905467  56.4508772  84.8621474  54.6734190  57.7677257
  89.4214814  51.8724659  52.8076743  90.2077903  51.4544082  52.4567160
  89.6853518  52.7770751  52.9758391  89.5924891  57.3097509  47.5065400
  88.9570724  57.3832135  48.2186304  89.2622298  57.8991108  46.8284479
  94.8223241  51.8099892  53.7109722  95.5548413  51.2399109  53.9447551
  94.0662597  51.4221492  54.1516227  86.4399361  54.2327133  50.9073064
  86.0757568  53.7057754  51.6185985  87.2966477  53.8425602  50.7339549
  92.3448662  45.5221466  58.1704330  92.0131986  46.3916877  57.9465545
  91.7494275  45.2057750  58.8498360  86.0804848  49.2617033  45.9034412
  86.2479250  50.1297269  46.2704884  85.8902017  49.4244315  44.9795702
  88.8380181  57.7234012  57.5700243  88.5380904  58.6259051  57.4616050
  88.4931241  57.4566195  58.4221396  92.2377325  50.2416552  55.2497680
  91.3294202  50.1731961  54.9556441  92.1864921  50.7188497  56.0779506
  86.0594069  51.7174691  46.8881079  85.9393694  52.1631741  47.7266560
  85.3646657  52.0660008  46.3294617  83.8200961  64.4878332  50.5371211
  83.7424991  65.4386157  50.6159691  83.2162604  64.1424205  51.1946137
  86.3118191  51.6606198  63.1932577  85.5351525  52.2200118  63.1835442
  86.9508754  52.1462981  63.7147448  94.1038971  48.4432991  57.0275554
  93.4613351  48.7365524  56.3815349  93.5993900  48.3285911  57.8328751
  91.7579135  52.1896164  47.7161413  92.6696991  52.4223550  47.5409111
  91.2488782  52.7733208  47.1536492  84.5664563  54.4691651  62.7550544
  85.3079247  55.0076695  62.4785368  83.8601548  55.0957940  62.9122096
  90.0419903  56.6120792  61.3522706  90.4503259  56.1703202  60.6077338
  89.3197164  56.0373419  61.6056899  86.3950973  51.5493398  58.7256263
  87.2412168  51.9732812  58.8690912  86.3349610  50.8927023  59.4194826
  90.3648717  57.1721982  55.1074995  89.7357580  57.3367696  54.4051063
  89.9774379  57.5863592  55.8785959  94.2437949  58.1076420  52.4619359
  93.5588987  58.4875321  51.9116392  94.3281798  58.7171747  53.1951306
  89.5450418  49.2097767  60.3837437  89.3011350  49.9639827  59.8471712
  89.8210348  49.5883114  61.2184684  91.4988881  55.7536379  59.0614702
  91.7105776  56.3968139  58.3849083  91.4518629  54.9198696  58.5936632
  89.1015110  48.3654200  55.9651274  88.2399589  48.6635453  56.2568012
  89.1277544  48.5824599  55.0332307  85.9176679  56.9096390  52.3725080
  86.3815025  57.1884093  51.5829702  85.6533477  56.0079835  52.1898171
  82.8100760  56.4567872  55.3104843  83.3802117  56.8855140  54.6722328
  83.4008872  56.1750457  56.0089029  83.3025927  51.6231299  63.5565854
  82.6724587  52.3047580  63.7901251  83.1962015  51.5114381  62.6118993
  92.6134709  58.6308334  57.2337059  93.4352152  58.2288522  56.9519741
  92.6097112  58.5276569  58.1853175  86.3791312  58.1792378  59.3897770
  86.4435745  58.6412785  60.2255942  85.6702236  57.5489743  59.5180080
 100.7040702  54.9747083  53.5822031  99.9504410  54.4054481  53.4266035
 100.8388243  54.9409747  54.5292666  86.0939330  59.8460485  49.2576750
  85.9585005  60.6912021  49.6861598  86.6349142  60.0479763  48.4942684
  82.5806669  45.9252065  65.9191105  82.1873615  45.3718264  66.5938750
  83.3972810  46.2362644  66.3097623  81.3563612  60.4801680  51.9127429
  81.5330240  61.4019644  51.7248412  82.1520445  60.1660099  52.3421808
  85.4974630  47.3409944  63.5111362  86.2384344  47.9417097  63.4315825
  85.7292553  46.5987582  62.9529405  80.6415968  52.5266311  61.7889592
  80.5269484  51.6251569  62.0896691  79.7860486  52.7730008  61.4374408
  87.7207806  60.4684052  63.3877092  87.2771660  59.6820430  63.0697997
  88.3825020  60.6563202  62.7220983  82.4794927  61.9979853  57.9137771
  83.0302352  61.8696917  57.1414765  81.6406403  62.2974742  57.5632664
  89.8189044  60.7486852  61.4158494  89.8007520  61.5695733  60.9238763
  90.7408964  60.6240927  61.6408635  86.2762098  58.2630981  62.2582002
  86.8090435  57.5019269  62.0281310  85.7476179  57.9704633  63.0006156
  89.4431793  43.3691047  57.7875644  89.0996063  44.2592689  57.7114754
  89.8110756  43.1792705  56.9245229  89.4082076  53.3599658  46.2948079
  88.8928699  54.1304263  46.5336466  89.1359385  52.6864794  46.9181140
  86.9929187  48.2049359  51.3533317  86.1370783  47.8156209  51.1738956
  87.4056139  48.2841320  50.4933103  88.5228334  45.7395702  55.7524877
  88.0193129  45.7025837  54.9392682  88.8158941  46.6488445  55.8121534
  84.7671220  45.8234432  54.7591059  85.6324216  45.6277241  54.3996948
  84.8348729  45.5944784  55.6860415  94.3816350  56.1132013  48.2301252
  93.6045793  55.7743172  47.7856414  95.0607831  56.1184636  47.5556217
  89.1968379  51.2326750  48.1207860  88.8918515  51.5472900  48.9718003
  90.1498821  51.3108170  48.1635193  87.6414811  57.3916974  49.7700814
  87.1136173  56.6569733  49.4574051  87.1402314  58.1691650  49.5240782
  92.6207657  55.5865994  54.8867860  91.9631332  56.2765256  54.9747989
  93.4248056  55.9762426  55.2301847  82.3733539  48.0536640  52.1307426
  82.9477291  47.8311821  51.3980618  82.9604521  48.1225334  52.8836027
  91.4313116  53.9410367  52.9371802  91.9444998  54.5740359  53.4393512
  92.0814340  53.3411562  52.5715162  84.6756206  44.9277889  50.8582495
  84.0220619  44.6126906  50.2339110  84.6336681  44.3053629  51.5842318
  85.7867411  55.2097184  42.7735787  84.8794473  54.9786437  42.9726936
  86.2838443  54.4134803  42.9609769  88.6935490  63.9194691  45.6932473
  88.0197189  64.2226388  46.3017431  89.0801312  64.7223771  45.3437930
  87.9093947  51.4159822  55.1830143  86.9916508  51.6374769  55.0251831
  88.3254090  51.4906133  54.3241850  88.6928995  52.8151238  50.3132823
  89.4400813  53.3272635  50.0039945  88.9620584  52.4935291  51.1737216
  86.9655645  55.3109779  47.2959777  86.0566864  55.0268812  47.3932247
  86.9950729  55.7308857  46.4363084  92.1974912  58.9216368  51.0650945
  91.7437239  58.0807278  51.1216135  91.5668879  59.5577767  51.4025725
  91.1407832  49.8508354  52.2951612  90.4030588  49.3385741  52.6261855
  91.3934605  49.4108736  51.4834889  90.6407851  60.7592865  52.0000763
  90.9330826  61.3197922  51.2813128  91.1506472  61.0521426  52.7553922
  91.2419459  42.6284606  52.8893381  91.5478336  41.7681970  52.6019296
  91.9672064  43.2202227  52.6892375  85.5140539  52.9238399  53.3969572
  85.5689149  51.9712236  53.3212049  84.7031741  53.0797838  53.8810871
  86.6631733  56.8518522  44.6347856  86.2251162  56.1354381  44.1753493
  87.4042173  57.0794637  44.0732947  85.6041477  61.5373216  53.0894216
  85.5617655  61.7634062  52.1602748  86.5204175  61.3036591  53.2380017
  89.0507110  52.0057284  59.9874845  89.4056498  52.2328757  60.8469311
  89.6979242  52.3375660  59.3652101  94.7804847  55.1275720  50.6924174
  94.6422746  55.3177315  49.7645363  94.4241066  55.8895102  51.1492225
  82.9446973  49.1133815  56.7721186  83.5846353  48.9722574  56.0744150
  82.1124504  48.8268328  56.3959788  94.8074227  57.1952247  55.7035446
  95.2410734  57.1027536  56.5518500  95.5205808  57.1709747  55.0655462
  83.7207277  58.4136245  52.8856179  84.5147876  57.9186565  52.6838754
  83.0098970  57.8854108  52.5223884  88.5402122  60.7954341  57.2368546
  88.5939144  61.3645277  58.0046262  87.6716903  60.9656226  56.8722583
  81.4200515  50.4971897  58.7192998  82.0923569  50.2889259  58.0705647
  80.5930302  50.2993983  58.2798230  95.6689776  57.2375947  58.2368331
  95.8625667  58.1421758  58.4827606  95.5690395  56.7783366  59.0706916
  87.3226087  47.1233838  60.7358658  86.6754002  47.8223787  60.6423135
  88.0927103  47.5569982  61.1034907  90.7304885  57.3882690  63.8109212
  90.5790392  57.1593242  62.8939295  90.7209565  58.3453291  63.8240557
  87.4990222  54.9614603  58.7955478  88.4282282  55.1125762  58.6224446
  87.0781252  55.0498623  57.9404125  86.2978553  58.9865267  56.5654016
  86.1589639  58.6184051  57.4379954  85.5093150  59.5012907  56.3937974
  86.8926705  64.0874364  47.9079552  87.0678461  63.6162407  48.7225175
  86.2059493  64.7140130  48.1360813  87.8483768  58.3646870  53.9542854
  87.5133601  58.3247640  54.8500504  87.3487714  57.6991586  53.4813264
  81.8228012  53.7714500  59.4795435  81.6847810  53.0394739  60.0806974
  82.7332936  53.6823400  59.1979623  90.7842960  55.7102904  44.2279913
  90.1672131  54.9849732  44.1312966  90.3159449  56.4712264  43.8846988
  84.4510313  53.4834459  58.9679114  85.1609932  52.8427651  58.9265733
  84.4079621  53.7347354  59.8905295  92.4397092  60.4201812  61.8885694
  92.3809638  59.7361033  61.2216277  92.8416610  61.1620802  61.4366320
  83.1639247  50.4699677  60.7874754  82.6276604  50.0190415  61.4396350
  82.5755956  50.6045586  60.0445218  81.4587791  67.2363726  54.6819413
  81.6984389  67.8682250  55.3598431  80.6156987  66.8851766  54.9684772
  92.4414499  58.3841396  60.1199673  91.5541278  58.0467318  60.2426072
  93.0113050  57.6524428  60.3568439  85.9715652  63.0442849  57.0860917
  85.8985824  63.8497820  57.5980221  85.5293046  63.2434815  56.2608938
  85.7605432  62.2814619  50.5963738  84.9772954  62.8236299  50.6901963
  86.4598177  62.7988598  50.9957979  89.0702082  48.0909248  53.2397943
  89.5670782  47.3379211  52.9199014  88.2989064  48.1273565  52.6741153
  96.9231840  53.7949614  54.8816235  96.9121716  54.6774329  54.5110168
  96.0549219  53.4421165  54.6870772  88.4314336  62.9429683  59.2419075
  89.1442308  63.5777148  59.1694977  87.9404365  63.0393549  58.4259077
  90.1531863  56.8480935  50.8136367  89.2188142  56.9682398  50.6441071
  90.3308531  55.9453402  50.5496377  85.6537051  50.2326631  52.9669628
  85.2834838  49.6797672  53.6550534  86.1496143  49.6284765  52.4144628
  93.5404414  52.6898255  51.3486401  94.0064866  53.5226246  51.2746704
  93.9911915  52.2243236  52.0531659  83.4826249  60.6924126  60.0624646
  84.1835709  61.3260609  60.2154040  83.0121364  61.0338858  59.3020285
  91.6080645  59.0342076  48.3472553  91.8840489  58.9198671  49.2566427
  90.7385144  58.6359561  48.3084726  91.5121077  45.0578842  55.3877302
  90.5984157  45.2883069  55.5559509  91.9414178  45.1417286  56.2391335
  91.2827535  53.2468734  57.8877196  90.6298986  53.4944641  57.2329649
  91.6607915  52.4332872  57.5539674  88.2434709  63.2828427  51.9905367
  88.4257104  62.4650083  52.4533119  89.0667695  63.4996119  51.5530257
  88.5776875  62.2096612  49.2520415  89.1064641  61.6989067  48.6390577
  88.8405094  61.8939142  50.1165948  87.3315108  53.9888545  64.3743233
  86.6555746  53.8882674  65.0445609  88.1542742  53.8327758  64.8379231
  81.9332623  63.2611729  52.0118191  81.2642998  63.7457856  51.5282231
  81.7945492  63.5080949  52.9261570  86.0737891  65.2955472  58.6100849
  86.6256199  65.4587094  59.3749935  86.4144085  65.8859910  57.9380874
  81.0502385  47.6430622  59.2122734  81.1143711  48.5045453  58.8000132
  80.9869505  47.0304624  58.4795093  80.5254657  49.7153755  62.8595768
  81.1526696  49.3330832  63.4733293  79.6682576  49.4967956  63.2251461
  90.9248766  60.1216730  64.4649504  91.4688670  60.7346688  63.9704459
  90.3435611  60.6796308  64.9816517  89.2106279  63.2437448  55.5964532
  89.0857418  62.4427188  55.0875477  89.8685370  63.7383641  55.1078502
  91.2741187  61.0446468  57.2244082  90.3271523  60.9251819  57.1522408
  91.6223960  60.1568966  57.3070343  83.6340760  46.9340607  61.0482324
  84.1575162  47.1802903  61.8108633  83.4153094  47.7660642  60.6285461
  88.2787620  60.8399184  53.4248434  88.1312583  59.9115891  53.6056004
  89.1041114  60.8619275  52.9405509  91.8821742  61.6627743  54.5113307
  92.8068290  61.4570604  54.3737758  91.7137046  61.4144144  55.4202648
  84.8393305  47.8754302  58.7331994  84.4990126  47.0762115  59.1352674
  84.1332312  48.1756013  58.1608827  85.4909777  44.9603614  57.1859317
  86.3135847  44.4864092  57.0638207  85.7347841  45.7394098  57.6858003
  88.2749135  48.6937022  48.4180551  88.4912749  49.5761660  48.1169379
  87.7943202  48.3023235  47.6886193  83.0148356  51.6522735  54.9951296
  82.8692937  51.9663038  55.8875577  82.5373560  52.2707635  54.4422194
  84.8744739  48.6425283  55.0432185  84.8606308  47.7466376  54.7064483
  85.5917167  48.6495947  55.6770471  86.7270870  49.0762623  57.0885313
  86.4688647  49.9979694  57.0869643  86.1955910  48.6793058  57.7785777
  91.6717058  62.1813410  49.8675398  91.8453936  61.6159833  49.1149251
  92.1645950  62.9814305  49.6854888  84.2781635  47.5239663  50.3119755
  84.3997546  46.5956309  50.5110643  83.9883677  47.5378349  49.3998071
  87.1472825  45.2094574  53.4486475  87.1694522  45.2733907  52.4938455
  87.5640884  44.3699082  53.6426981  97.5256450  54.9449833  51.4865698
  97.9687596  54.1957158  51.0884821  96.6482960  54.9359970  51.1039430
  92.6592231  61.4980175  46.9672296  93.3543135  62.1186867  47.1859611
  93.0015381  60.6475526  47.2424674  94.5583654  58.9479880  48.4959627
  95.0834978  59.2867153  47.7708947  94.4706007  58.0126895  48.3122762
  86.2203703  62.8613954  60.6249504  86.5290829  62.6163101  61.4972203
  87.0179185  63.0660592  60.1368374  86.2424315  65.0151863  52.8554880
  85.8029305  64.5228242  53.5487737  86.9932432  64.4724831  52.6146956
  83.6898187  60.5589873  54.9277182  83.0678196  59.8960578  54.6279410
  84.3603054  60.5851004  54.2450830  83.7622714  49.0371661  64.5209688
  83.8110870  49.9133783  64.1387458  84.3045229  48.4949054  63.9481331
  94.2477560  59.5812784  63.8010825  93.4573104  59.5636923  63.2615325
  94.0110915  60.1201077  64.5559862  94.3675435  56.4305250  61.1143554
  94.4173440  56.2655258  62.0559076  94.2589358  55.5632509  60.7241434
  91.6579197  52.4136178  62.4302860  92.5589060  52.2742643  62.1386858
  91.7327172  52.5790633  63.3701038  85.9922003  49.7903033  61.2756047
  85.1225312  50.0836599  61.0038635  86.2281483  50.3743478  61.9963310
  95.8693632  58.8502192  61.3585575  95.5778440  59.2132172  62.1949036
  95.2565763  58.1369200  61.1798907  97.0689314  56.4155071  53.8788145
  97.9036206  56.8544876  54.0425706  97.2048443  55.9393725  53.0596391
  94.1180820  53.9734806  59.8265633  94.5934942  54.1662453  59.0184485
  93.1946386  54.0293992  59.5809017  88.6961037  46.0082650  58.7921467
  89.2142981  46.7443677  58.4667956  88.3416169  46.3146643  59.6268226
  88.9473631  42.4282932  54.3122364  89.2275385  41.7606121  54.9382790
  89.7324238  42.6212028  53.7997028  86.7507099  61.6041926  45.8747390
  86.1781066  62.2232113  45.4217862  87.3239893  62.1541288  46.4087312
  92.8182489  50.8500566  58.0593939  93.7699912  50.9498664  58.0806163
  92.6485940  50.0578835  58.5692023  90.8396869  47.9356150  58.2453340
  90.2446801  48.2161162  57.5499828  90.5546565  48.4250051  59.0170081
  89.9704359  61.8879076  47.0055972  90.9035032  61.8224638  47.2088848
  89.8827572  62.7235343  46.5470505  92.5992376  61.2044947  43.9659920
  92.5206007  60.8704810  44.8595678  93.4202043  61.6966715  43.9651392
  95.2970567  54.0706686  57.1736238  95.2646887  53.1322687  57.3595922
  95.9071191  54.1490723  56.4402063  87.1353898  52.9402739  43.2163442
  88.0813003  52.8108947  43.2851861  86.7568143  52.2017401  43.6932871
  95.4465055  50.8617730  57.2194522  94.9304104  50.0776186  57.0324450
  96.3305004  50.5336446  57.3841041  93.1075782  44.6058745  53.1790334
  92.9100603  44.2973833  54.0633666  93.7175488  45.3320384  53.3088264
 101.1147117  55.1322693  56.3142275 101.8450505  54.8707981  56.8749979
 100.5054062  54.3951415  56.3544343  99.1962414  53.2730556  56.9116726
  98.4695578  53.1386520  56.3033218  98.7809701  53.5807384  57.7173444
  87.0192590  56.9920485  64.6764099  87.9395600  57.1699084  64.8704146
  86.9842173  56.0476531  64.5243799  85.3196815  50.8652715  43.1518328
  84.4128270  50.5685828  43.2281041  85.5972796  50.5682534  42.2852614
  86.9358881  45.4089605  49.3062569  86.1259609  45.0636690  49.6817815
  87.6243298  45.0997149  49.8950181  88.8649429  44.4867652  50.9286866
  89.4180468  44.9063105  51.5876889  89.1019515  43.5603400  50.9709822
  84.8882528  50.4754726  66.7089630  84.7879255  51.4249083  66.6401721
  84.6704070  50.1472965  65.8365700  92.2428236  46.5968177  50.4365530
  91.6626905  47.2552981  50.0543582  91.9764169  45.7745522  50.0252947
  90.6931802  45.9973235  52.6386850  91.1931581  46.1089769  51.8301169
  91.3367410  45.6934288  53.2787659  84.7513798  53.9051864  65.5254691
  84.2680880  54.7052225  65.7318580  84.8374737  53.9159809  64.5722135
  91.0253114  48.7568268  49.4921878  90.1378969  49.0417918  49.2742073
  91.4407103  48.5962031  48.6449155  94.3767650  48.7814788  53.2076217
  95.1528040  49.2711241  53.4800834  93.6515784  49.2072843  53.6648087
  96.8140209  49.4942408  54.2650158  97.4084700  49.2538144  53.5543466
  96.8866793  48.7749538  54.8923694  90.1696328  58.5212942  43.5869898
  90.8732178  58.7262945  44.2027554  89.4458976  59.0889704  43.8518982
  90.9994138  54.2722803  49.7072168  90.9429339  54.7291355  48.8679801
  91.5522480  53.5113488  49.5295011  94.8098944  50.0612535  50.5322288
  94.5535878  49.6609171  51.3630496  94.1851812  50.7756329  50.4072427
  99.1211282  52.8008609  53.0393579  98.5610840  52.8701798  53.8125141
  98.5154785  52.6249593  52.3193075  82.1906490  64.2345336  54.7911766
  82.0738875  65.1790768  54.6890456  81.3698937  63.9318897  55.1797565
  92.0783025  58.9595471  45.6368358  92.9128629  58.5276670  45.4545833
  91.9167368  58.7877485  46.5645253  91.7328917  55.4627585  47.0024698
  91.6777721  55.2971856  46.0613142  91.1074972  56.1703618  47.1586887
  89.0474824  57.7676497  66.3278260  89.9165984  57.9417149  65.9664895
  88.5681576  58.5870913  66.2053990  85.0425043  44.9635694  46.5810016
  85.0303712  45.9077534  46.7378287  85.9348464  44.7805839  46.2869477
  83.2161005  64.8873598  58.0067694  84.1188251  64.9197208  58.3234189
  82.9898375  63.9574049  58.0214030  84.9714607  63.6404584  54.6677773
  84.0210238  63.6406446  54.5542145  85.2747093  62.8937319  54.1513807
  88.8577162  41.5578470  50.8355953  88.0909558  41.0036957  50.9812635
  89.2687867  41.6300339  51.6970104  80.8618923  47.8463266  64.9261134
  81.7250385  47.4900071  65.1364459  80.2884334  47.5077161  65.6136538
 100.7067300  69.4765122  55.7323535 101.3445710  69.3571870  55.0286875
 100.5888143  70.4245966  55.7911487  97.5157006  69.4292551  55.6685060
  97.1775518  69.3133615  54.7805595  98.3846775  69.0283716  55.6486066
  93.3743822  71.2828027  51.6581951  92.8108687  71.1917964  50.8898238
  93.2596217  70.4627931  52.1384443  97.9976789  70.5827402  61.6271265
  97.9865430  70.1880201  60.7551769  98.1597429  69.8493475  62.2205037
  90.9208254  72.7779219  54.4966171  91.7129546  72.4370043  54.0812470
  91.1604904  72.8874194  55.4168324  98.9543381  74.9498995  46.9696415
  98.3031361  75.5353075  46.5830429  99.7487744  75.4805190  47.0291453
  92.8799008  72.0388132  47.3683550  93.6529884  71.4917119  47.2296426
  93.2324407  72.9032381  47.5798011  94.7184050  73.3664514  60.5750449
  94.4273916  74.2710145  60.4597115  95.3541035  73.4081042  61.2894519
  95.6440257  70.7441363  57.1651809  96.2403830  70.5197385  56.4508772
  95.7015229  70.0026108  57.7677257  95.2165286  68.1980798  45.0002000
  95.4690806  67.6762319  44.2385463  94.2789845  68.0346943  45.1028683
 100.2608569  67.2016576  52.8076743 101.0471658  66.7836000  52.4567160
 100.5247273  68.1062669  52.9758391 100.4318646  72.6389427  47.5065400
  99.7964479  72.7124053  48.2186304 100.1016052  73.2283025  46.8284479
 105.6616996  67.1391810  53.7109722 106.3942168  66.5691026  53.9447551
 104.9056351  66.7513410  54.1516227  94.9361574  70.1008904  47.2026375
  94.8197833  69.4253807  47.8707459  95.0463834  69.6141278  46.3858528
  97.2793115  69.5619051  50.9073064  96.9151323  69.0349672  51.6185985
  98.1360231  69.1717520  50.7339549 103.1842416  60.8513384  58.1704330
 102.8525741  61.7208795  57.9465545 102.5888029  60.5349668  58.8498360
  96.9198602  64.5908951  45.9034412  97.0873005  65.4589187  46.2704884
  96.7295771  64.7536232  44.9795702  99.6773936  73.0525930  57.5700243
  99.3774659  73.9550968  57.4616050  99.3324995  72.7858113  58.4221396
  93.1286417  69.5039726  53.6036947  92.2036914  69.3715941  53.8114639
  93.3770830  70.2833946  54.1006890 103.0771079  65.5708470  55.2497680
 102.1687957  65.5023878  54.9556441 103.0258675  66.0480415  56.0779506
  96.8987823  67.0466608  46.8881079  96.7787448  67.4923659  47.7266560
  96.2040412  67.3951926  46.3294617  90.4895228  69.1473000  54.4380736
  90.6187609  69.4007479  55.3520148  89.8092679  69.7400708  54.1185391
  94.6594715  79.8170250  50.5371211  94.5818745  80.7678075  50.6159691
  94.0556359  79.4716122  51.1946137  97.1511945  66.9898115  63.1932577
  96.3745279  67.5492036  63.1835442  97.7902508  67.4754898  63.7147448
 104.9432726  63.7724908  57.0275554 104.3007106  64.0657441  56.3815349
 104.4387654  63.6577829  57.8328751 102.5972889  67.5188081  47.7161413
 103.5090746  67.7515468  47.5409111 102.0882536  68.1025126  47.1536492
  95.4058317  69.7983569  62.7550544  96.1473002  70.3368613  62.4785368
  94.6995303  70.4249858  62.9122096 100.8813657  71.9412709  61.3522706
 101.2897013  71.4995120  60.6077338 100.1590919  71.3665337  61.6056899
  97.2344727  66.8785316  58.7256263  98.0805922  67.3024730  58.8690912
  97.1743365  66.2218940  59.4194826 101.2042472  72.5013900  55.1074995
 100.5751334  72.6659614  54.4051063 100.8168134  72.9155509  55.8785959
 105.0831704  73.4368338  52.4619359 104.3982742  73.8167239  51.9116392
 105.1675553  74.0463664  53.1951306 100.3844172  64.5389684  60.3837437
 100.1405104  65.2931745  59.8471712 100.6604103  64.9175032  61.2184684
 102.3382635  71.0828297  59.0614702 102.5499530  71.7260057  58.3849083
 102.2912383  70.2490613  58.5936632  99.9408864  63.6946117  55.9651274
  99.0793343  63.9927371  56.2568012  99.9671299  63.9116516  55.0332307
  96.7570434  72.2388308  52.3725080  97.2208779  72.5176011  51.5829702
  96.4927232  71.3371753  52.1898171  93.6494515  71.7859789  55.3104843
  94.2195872  72.2147058  54.6722328  94.2402626  71.5042374  56.0089029
  95.6939320  68.3611460  49.1814645  96.3963363  68.8132504  49.6488571
  95.3619948  67.7195279  49.8094538  94.1419681  66.9523217  63.5565854
  93.5118342  67.6339498  63.7901251  94.0355769  66.8406299  62.6118993
  89.4364654  66.6195013  54.4831779  88.6463708  66.8752542  54.0071889
  89.9275901  67.4343351  54.5883819 103.4528463  73.9600252  57.2337059
 104.2745907  73.5580439  56.9519741 103.4490866  73.8568486  58.1853175
  91.3879399  66.9839592  51.4415255  90.5910562  67.0958286  51.9598751
  91.1604991  67.3226244  50.5756146  97.2185067  73.5084295  59.3897770
  97.2829499  73.9704703  60.2255942  96.5095990  72.8781660  59.5180080
  87.7202357  66.8725503  56.9146769  87.9710395  67.7572513  57.1804345
  88.2561905  66.6930105  56.1421861  96.9333084  75.1752403  49.2576750
  96.7978759  76.0203939  49.6861598  97.4742897  75.3771681  48.4942684
  93.4200424  61.2543983  65.9191105  93.0267369  60.7010181  66.5938750
  94.2366564  61.5654561  66.3097623  90.3862482  72.6927841  49.8304675
  90.8987002  73.4871091  49.9810240  91.0385194  71.9954131  49.7638277
  92.1957366  75.8093597  51.9127429  92.3723995  76.7311562  51.7248412
  92.9914200  75.4952016  52.3421808  96.3368385  62.6701862  63.5111362
  97.0778098  63.2709015  63.4315825  96.5686308  61.9279500  62.9529405
  91.4809723  67.8558229  61.7889592  91.3663238  66.9543486  62.0896691
  90.6254241  68.1021926  61.4374408  98.5601561  75.7975969  63.3877092
  98.1165415  75.0112348  63.0697997  99.2218774  75.9855120  62.7220983
  93.3188682  77.3271771  57.9137771  93.8696107  77.1988834  57.1414765
  92.4800158  77.6266660  57.5632664 100.6582799  76.0778769  61.4158494
 100.6401274  76.8987650  60.9238763 101.5802719  75.9532845  61.6408635
  97.1155853  73.5922899  62.2582002  97.6484190  72.8311187  62.0281310
  96.5869934  73.2996551  63.0006156 100.2825548  58.6982965  57.7875644
  99.9389817  59.5884607  57.7114754 100.6504510  58.5084622  56.9245229
  88.3511398  71.0216495  50.6064246  89.1886620  71.4313504  50.3897954
  88.5289666  70.0815937  50.5764440 100.2475831  68.6891576  46.2948079
  99.7322454  69.4596181  46.5336466  99.9753139  68.0156712  46.9181140
  97.8322942  63.5341277  51.3533317  96.9764538  63.1448127  51.1738956
  98.2449893  63.6133238  50.4933103  99.3622088  61.0687620  55.7524877
  98.8586884  61.0317755  54.9392682  99.6552695  61.9780363  55.8121534
  95.6064974  61.1526350  54.7591059  96.4717971  60.9569158  54.3996948
  95.6742483  60.9236701  55.6860415 105.2210105  71.4423931  48.2301252
 104.4439547  71.1035090  47.7856414 105.9001586  71.4476554  47.5556217
 100.0362134  66.5618668  48.1207860  99.7312269  66.8764817  48.9718003
 100.9892576  66.6400088  48.1635193  98.4808566  72.7208891  49.7700814
  97.9529927  71.9861651  49.4574051  97.9796068  73.4983568  49.5240782
 103.4601412  70.9157912  54.8867860 102.8025086  71.6057173  54.9747989
 104.2641811  71.3054344  55.2301847  93.2127293  63.3828558  52.1307426
  93.7871045  63.1603739  51.3980618  93.7998276  63.4517252  52.8836027
 102.2706870  69.2702285  52.9371802 102.7838752  69.9032276  53.4393512
 102.9208094  68.6703480  52.5715162  93.5396880  65.4133019  46.1503311
  92.7034193  65.7507705  46.4712586  93.4001650  65.2781998  45.2130448
  95.5149961  60.2569807  50.8582495  94.8614373  59.9418824  50.2339110
  95.4730435  59.6345547  51.5842318  96.6261166  70.5389102  42.7735787
  95.7188227  70.3078355  42.9726936  97.1232198  69.7426721  42.9609769
  99.5329245  79.2486609  45.6932473  98.8590943  79.5518306  46.3017431
  99.9195067  80.0515689  45.3437930  98.7487701  66.7451740  55.1830143
  97.8310263  66.9666687  55.0251831  99.1647845  66.8198051  54.3241850
  99.5322749  68.1443156  50.3132823 100.2794568  68.6564553  50.0039945
  99.8014339  67.8227208  51.1737216  97.8049399  70.6401696  47.2959777
  96.8960618  70.3560729  47.3932247  97.8344483  71.0600775  46.4363084
 103.0368667  74.2508286  51.0650945 102.5830994  73.4099196  51.1216135
 102.4062633  74.8869684  51.4025725 101.9801586  65.1800272  52.2951612
 101.2424343  64.6677658  52.6261855 102.2328360  64.7400654  51.4834889
 101.4801606  76.0884783  52.0000763 101.7724580  76.6489840  51.2813128
 101.9900226  76.3813344  52.7553922 102.0813213  57.9576524  52.8893381
 102.3872090  57.0973887  52.6019296 102.8065818  58.5494144  52.6892375
  88.3737570  68.3607211  51.2774979  88.1761969  67.7676571  50.5526046
  87.8184234  68.0559421  51.9950918  96.3534293  68.2530317  53.3969572
  96.4082903  67.3004153  53.3212049  95.5425495  68.4089756  53.8810871
  97.5025487  72.1810440  44.6347856  97.0644917  71.4646299  44.1753493
  98.2435928  72.4086555  44.0732947  94.2926653  66.8707377  51.1559951
  93.4794519  67.1701547  51.5625143  94.7885647  66.4763066  51.8734434
  96.4435231  76.8665134  53.0894216  96.4011410  77.0925980  52.1602748
  97.3597930  76.6328508  53.2380017  99.8900865  67.3349201  59.9874845
 100.2450253  67.5620674  60.8469311 100.5372996  67.6667578  59.3652101
 105.6198602  70.4567637  50.6924174 105.4816500  70.6469233  49.7645363
 105.2634821  71.2187020  51.1492225  93.7840728  64.4425732  56.7721186
  94.4240107  64.3014491  56.0744150  92.9518258  64.1560246  56.3959788
 105.6467981  72.5244164  55.7035446 106.0804488  72.4319453  56.5518500
 106.3599562  72.5001665  55.0655462  94.5601032  73.7428163  52.8856179
  95.3541630  73.2478483  52.6838754  93.8492724  73.2146026  52.5223884
  99.3795876  76.1246258  57.2368546  99.4332899  76.6937195  58.0046262
  98.5110658  76.2948143  56.8722583  90.8683795  67.8871245  48.9615931
  89.9381383  67.8255700  49.1785894  90.9641267  67.3647197  48.1652573
  90.7869344  64.4126057  51.5494173  91.0476162  65.3271391  51.4403334
  91.6086517  63.9450500  51.6990786  92.2594270  65.8263815  58.7192998
  92.9317323  65.6181177  58.0705647  91.4324056  65.6285901  58.2798230
 106.5083531  72.5667865  58.2368331 106.7019421  73.4713675  58.4827606
 106.4084149  72.1075284  59.0706916  98.1619842  62.4525755  60.7358658
  97.5147757  63.1515705  60.6423135  98.9320857  62.8861899  61.1034907
 101.5698640  72.7174608  63.8109212 101.4184146  72.4885159  62.8939295
 101.5603319  73.6745209  63.8240557  98.3383976  70.2906520  58.7955478
  99.2676036  70.4417680  58.6224446  97.9175006  70.3790541  57.9404125
  97.1372308  74.3157185  56.5654016  96.9983394  73.9475969  57.4379954
  96.3486904  74.8304824  56.3937974  97.7320460  79.4166281  47.9079552
  97.9072215  78.9454324  48.7225175  97.0453248  80.0432047  48.1360813
  98.6877523  73.6938787  53.9542854  98.3527356  73.6539557  54.8500504
  98.1881469  73.0283503  53.4813264  92.6621767  69.1006417  59.4795435
  92.5241565  68.3686656  60.0806974  93.5726690  69.0115318  59.1979623
 101.6236715  71.0394822  44.2279913 101.0065885  70.3141650  44.1312966
 101.1553203  71.8004182  43.8846988  95.2904068  68.8126377  58.9679114
  96.0003686  68.1719569  58.9265733  95.2473376  69.0639272  59.8905295
 103.2790846  75.7493730  61.8885694 103.2203392  75.0652950  61.2216277
 103.6810365  76.4912720  61.4366320  94.0033002  65.7991595  60.7874754
  93.4670359  65.3482333  61.4396350  93.4149710  65.9337504  60.0445218
  92.2981545  82.5655644  54.6819413  92.5378143  83.1974168  55.3598431
  91.4550742  82.2143684  54.9684772  93.4135261  65.2580246  43.3501218
  92.5364727  65.1369047  42.9863464  93.8893014  64.4666324  43.0980106
 103.2808254  73.7133314  60.1199673 102.3935032  73.3759236  60.2426072
 103.8506805  72.9816345  60.3568439  84.9337401  70.0457406  53.4442725
  85.6208440  69.7319136  52.8563740  84.7785529  70.9498770  53.1709976
  89.7372123  64.9347602  57.8727748  89.6530312  64.3273272  57.1378158
  88.9154829  65.4256621  57.8737245  96.8109407  78.3734766  57.0860917
  96.7379578  79.1789738  57.5980221  96.3686800  78.5726732  56.2608938
  96.5999187  77.6106536  50.5963738  95.8166708  78.1528217  50.6901963
  97.2991932  78.1280516  50.9957979  99.9095837  63.4201166  53.2397943
 100.4064536  62.6671128  52.9199014  99.1382818  63.4565483  52.6741153
 107.7625594  69.1241531  54.8816235 107.7515470  70.0066247  54.5110168
 106.8942974  68.7713082  54.6870772  99.2708090  78.2721600  59.2419075
  99.9836063  78.9069065  59.1694977  98.7798119  78.3685466  58.4259077
 100.9925617  72.1772853  50.8136367 100.0581896  72.2974316  50.6441071
 101.1702286  71.2745320  50.5496377  96.4930805  65.5618549  52.9669628
  96.1228593  65.0089589  53.6550534  96.9889898  64.9576682  52.4144628
 104.3798169  68.0190172  51.3486401 104.8458621  68.8518164  51.2746704
 104.8305669  67.5535154  52.0531659  94.3220004  76.0216044  60.0624646
  95.0229463  76.6552527  60.2154040  93.8515119  76.3630775  59.3020285
 102.4474400  74.3633994  48.3472553 102.7234244  74.2490588  49.2566427
 101.5778899  73.9651479  48.3084726 102.3514831  60.3870759  55.3877302
 101.4377911  60.6174986  55.5559509 102.7807933  60.4709203  56.2391335
 102.1221290  68.5760651  57.8877196 101.4692740  68.8236559  57.2329649
 102.5001670  67.7624790  57.5539674  99.0828464  78.6120345  51.9905367
  99.2650858  77.7942000  52.4533119  99.9061450  78.8288037  51.5530257
  99.4170629  77.5388530  49.2520415  99.9458396  77.0280984  48.6390577
  99.6798849  77.2231060  50.1165948  98.1708863  69.3180462  64.3743233
  97.4949500  69.2174592  65.0445609  98.9936497  69.1619676  64.8379231
  89.9187722  75.5552399  56.9955749  90.5041159  74.8096087  57.1283653
  89.7212560  75.8656356  57.8792413  92.7726377  78.5903646  52.0118191
  92.1036753  79.0749774  51.5282231  92.6339247  78.8372867  52.9261570
  84.5105377  68.1257999  55.7160192  84.5489476  67.5921590  56.5097310
  84.0045670  67.5993205  55.0971169  96.9131646  80.6247390  58.6100849
  97.4649954  80.7879011  59.3749935  97.2537839  81.2151828  57.9380874
  91.8896139  62.9722540  59.2122734  91.9537466  63.8337371  58.8000132
  91.8263259  62.3596541  58.4795093  91.3648412  65.0445672  62.8595768
  91.9920450  64.6622750  63.4733293  90.5076330  64.8259874  63.2251461
 101.7642520  75.4508647  64.4649504 102.3082424  76.0638606  63.9704459
 101.1829365  76.0088226  64.9816517  88.1413954  66.8522101  48.7914123
  88.4367395  65.9432780  48.7381177  87.2401990  66.8309841  48.4695126
 100.0500033  78.5729365  55.5964532  99.9251173  77.7719105  55.0875477
 100.7079124  79.0675559  55.1078502  91.6708201  64.9278098  54.7741672
  90.9494787  65.5414066  54.6349145  92.4601457  65.4635863  54.6958318
 102.1134942  76.3738385  57.2244082 101.1665277  76.2543737  57.1522408
 102.4617715  75.4860884  57.3070343  94.4734515  62.2632524  61.0482324
  94.9968917  62.5094821  61.8108633  94.2546848  63.0952559  60.6285461
  89.8701796  64.5336199  48.9153448  89.5414502  63.6533578  48.7328554
  90.2241167  64.4783868  49.8029838  99.1181375  76.1691102  53.4248434
  98.9706337  75.2407809  53.6056004  99.9434868  76.1911192  52.9405509
  92.9843619  64.8209169  49.2828926  93.3239692  65.3495090  48.5607534
  93.4315740  65.1589575  50.0587493 102.7215497  76.9919660  54.5113307
 103.6462044  76.7862522  54.3737758 102.5530800  76.7436062  55.4202648
  95.6787060  63.2046220  58.7331994  95.3383880  62.4054033  59.1352674
  94.9726066  63.5047930  58.1608827  96.3303532  60.2895532  57.1859317
  97.1529601  59.8156010  57.0638207  96.5741595  61.0686016  57.6858003
  94.9711766  63.3183790  47.4822219  95.6920129  63.6965043  46.9785936
  94.3477070  64.0372667  47.5857197  99.1142889  64.0228939  48.4180551
  99.3306504  64.9053577  48.1169379  98.6336956  63.6315153  47.6886193
  93.8542111  66.9814653  54.9951296  93.7086691  67.2954956  55.8875577
  93.3767314  67.5999553  54.4422194  95.7138493  63.9717201  55.0432185
  95.7000062  63.0758294  54.7064483  96.4310922  63.9787864  55.6770471
  97.5664624  64.4054541  57.0885313  97.3082402  65.3271611  57.0869643
  97.0349664  64.0084975  57.7785777 102.5110813  77.5105328  49.8675398
 102.6847690  76.9451750  49.1149251 103.0039704  78.3106223  49.6854888
  88.3287773  69.5219997  57.9338957  87.7841241  70.2979805  58.0659231
  89.2067123  69.8690801  57.7758078  95.1175389  62.8531581  50.3119755
  95.2391301  61.9248227  50.5110643  94.8277432  62.8670267  49.3998071
  97.9866580  60.5386491  53.4486475  98.0088277  60.6025824  52.4938455
  98.4034639  59.6991000  53.6426981 103.4985985  76.8272092  46.9672296
 104.1936890  77.4478785  47.1859611 103.8409135  75.9767444  47.2424674
  89.1153795  68.6489893  60.8269114  88.3735531  68.7972529  61.4133744
  88.7946539  68.9098159  59.9635863 105.3977408  74.2771798  48.4959627
 105.9228733  74.6159071  47.7708947 105.3099761  73.3418813  48.3122762
  97.0597457  78.1905871  60.6249504  97.3684584  77.9455018  61.4972203
  97.8572939  78.3952510  60.1368374  97.0818069  80.3443781  52.8554880
  96.6423060  79.8520160  53.5487737  97.8326186  79.8016749  52.6146956
  89.5610408  76.5355322  52.8579508  90.3868428  76.2359094  52.4778152
  89.2104460  75.7662944  53.3069297  94.5291941  75.8881790  54.9277182
  93.9071951  75.2252495  54.6279410  95.1996808  75.9142922  54.2450830
  87.7619013  74.4541648  53.8168442  86.9250922  74.0263823  53.6352443
  87.7342659  74.6474092  54.7539233  94.6016469  64.3663578  64.5209688
  94.6504624  65.2425701  64.1387458  95.1438983  63.8240971  63.9481331
 105.0871315  74.9104701  63.8010825 104.2966858  74.8928840  63.2615325
 104.8504669  75.4492995  64.5559862 105.2069190  71.7597168  61.1143554
 105.2567195  71.5947175  62.0559076 105.0983113  70.8924427  60.7241434
  94.0905448  74.4385714  48.4035643  94.2393569  75.1221178  47.7502315
  94.8971892  74.4190804  48.9185098 102.4972952  67.7428096  62.4302860
 103.3982815  67.6034561  62.1386858 102.5720926  67.9082551  63.3701038
  96.8315757  65.1194951  61.2756047  95.9619067  65.4128517  61.0038635
  97.0675238  65.7035396  61.9963310 106.7087386  74.1794109  61.3585575
 106.4172195  74.5424090  62.1949036 106.0959518  73.4661118  61.1798907
 104.9574575  69.3026724  59.8265633 105.4328696  69.4954370  59.0184485
 104.0340140  69.3585910  59.5809017  91.8458081  70.4650891  49.4096711
  91.6004123  69.5613221  49.6076922  92.0153996  70.4668042  48.4676189
  99.5354791  61.3374568  58.7921467 100.0536735  62.0735594  58.4667956
  99.1809924  61.6438561  59.6268226  91.1153729  66.1979249  46.9082873
  90.4222974  66.2723604  46.2522909  90.8705481  65.4339592  47.4304390
  99.7867385  57.7574850  54.3122364 100.0669139  57.0898039  54.9382790
 100.5717992  57.9503946  53.7997028  97.5900854  76.9333844  45.8747390
  97.0174821  77.5524031  45.4217862  98.1633647  77.4833206  46.4087312
 103.6576244  66.1792484  58.0593939 104.6093667  66.2790582  58.0806163
 103.4879694  65.3870753  58.5692023 101.6790623  63.2648067  58.2453340
 101.0840555  63.5453080  57.5499828 101.3940320  63.7541968  59.0170081
 100.8098114  77.2170994  47.0055972 101.7428787  77.1516556  47.2088848
 100.7221326  78.0527261  46.5470505 103.4386130  76.5336864  43.9659920
 103.3599762  76.1996728  44.8595678 104.2595797  77.0258632  43.9651392
 106.1364321  69.3998604  57.1736238 106.1040642  68.4614604  57.3595922
 106.7464945  69.4782640  56.4402063  97.9747652  68.2694657  43.2163442
  98.9206757  68.1400865  43.2851861  97.5961897  67.5309319  43.6932871
 106.2858810  66.1909647  57.2194522 105.7697859  65.4068104  57.0324450
 107.1698758  65.8628364  57.3841041 103.9469537  59.9350663  53.1790334
 103.7494358  59.6265751  54.0633666 104.5569242  60.6612302  53.3088264
  97.8586345  72.3212403  64.6764099  98.7789354  72.4991002  64.8704146
  97.8235928  71.3768448  64.5243799  96.1590569  66.1944633  43.1518328
  95.2522025  65.8977746  43.2281041  96.4366550  65.8974451  42.2852614
  87.0768510  67.5150997  53.6017374  86.7571294  66.6616305  53.3091748
  86.5301938  67.7299575  54.3575341  90.8548417  70.2313438  57.3186881
  91.0734427  71.1630545  57.3374914  91.2674191  69.8721412  58.1041684
  97.7752635  60.7381523  49.3062569  96.9653364  60.3928608  49.6817815
  98.4637052  60.4289067  49.8950181  99.7043183  59.8159570  50.9286866
 100.2574222  60.2355023  51.5876889  99.9413270  58.8895318  50.9709822
  95.7276283  65.8046643  66.7089630  95.6273010  66.7541000  66.6401721
  95.5097825  65.4764882  65.8365700  94.9289354  63.0531568  43.2930307
  95.7908518  63.3786467  43.5526124  95.1139698  62.2663064  42.7803373
  86.9456770  71.1353908  55.5710496  86.2520241  70.7207861  55.0580450
  87.6929761  71.1774445  54.9743915 103.0821991  61.9260095  50.4365530
 102.5020660  62.5844899  50.0543582 102.8157923  61.1037439  50.0252947
 101.5325557  61.3265153  52.6386850 102.0325335  61.4381687  51.8301169
 102.1761165  61.0226205  53.2787659  95.5907553  69.2343782  65.5254691
  95.1074634  70.0344142  65.7318580  95.6768492  69.2451727  64.5722135
  88.8593512  71.0672162  53.4476511  88.8364200  71.1659849  52.4958394
  89.1694149  71.9137313  53.7693677  91.5180890  73.1248317  57.5623125
  92.4724144  73.0932259  57.4953057  91.3193414  72.6638941  58.3773351
  92.1080272  71.6949433  60.1293923  92.9273161  72.1893512  60.1528760
  92.3817080  70.7781401  60.1011490 101.8646869  64.0860185  49.4921878
 100.9772724  64.3709836  49.2742073 102.2800858  63.9253949  48.6449155
 105.2161405  64.1106706  53.2076217 105.9921795  64.6003159  53.4800834
 104.4909539  64.5364760  53.6648087 107.6533963  64.8234325  54.2650158
 108.2478454  64.5830061  53.5543466 107.7260547  64.1041456  54.8923694
  89.8731119  78.6667936  54.5793323  89.7385587  77.9068337  54.0131321
  89.4563181  79.3908836  54.1122112 101.0090082  73.8504860  43.5869898
 101.7125932  74.0554862  44.2027554 100.2852731  74.4181622  43.8518982
 101.8387892  69.6014721  49.7072168 101.7823094  70.0583273  48.8679801
 102.3916235  68.8405406  49.5295011 105.6492698  65.3904453  50.5322288
 105.3929632  64.9901089  51.3630496 105.0245566  66.1048247  50.4072427
  93.0300245  79.5637253  54.7911766  92.9132629  80.5082686  54.6890456
  92.2092691  79.2610815  55.1797565 102.9176779  74.2887389  45.6368358
 103.7522383  73.8568588  45.4545833 102.7561122  74.1169403  46.5645253
 102.5722672  70.7919502  47.0024698 102.5171475  70.6263774  46.0613142
 101.9468727  71.4995535  47.1586887  87.3615187  66.0287567  60.8286120
  88.0074050  65.5186521  61.3173345  87.1532338  66.7656248  61.4029545
  99.8868579  73.0968414  66.3278260 100.7559738  73.2709067  65.9664895
  99.4075330  73.9162831  66.2053990  95.8818797  60.2927611  46.5810016
  95.8697467  61.2369451  46.7378287  96.7742219  60.1097757  46.2869477
  94.0554759  80.2165515  58.0067694  94.9582006  80.2489126  58.3234189
  93.8292129  79.2865966  58.0214030  95.8108361  78.9696502  54.6677773
  94.8603992  78.9698363  54.5542145  96.1140847  78.2229236  54.1513807
  99.6970917  56.8870388  50.8355953  98.9303312  56.3328875  50.9812635
 100.1081622  56.9592257  51.6970104  91.7012678  63.1755184  64.9261134
  92.5644139  62.8191989  65.1364459  91.1278088  62.8369079  65.6136538
 104.2137577  86.6119945  51.6581951 103.6502442  86.5209882  50.8898238
 104.0989972  85.7919849  52.1384443 101.7602008  88.1071136  54.4966171
 102.5523300  87.7661961  54.0812470 101.9998659  88.2166111  55.4168324
 103.7192762  87.3680050  47.3683550 104.4923638  86.8209037  47.2296426
 104.0718161  88.2324299  47.5798011 105.5577805  88.6956432  60.5750449
 105.2667671  89.6002063  60.4597115 106.1934789  88.7372959  61.2894519
 106.4834012  86.0733280  57.1651809 107.0797584  85.8489303  56.4508772
 106.5408983  85.3318026  57.7677257 106.0559040  83.5272716  45.0002000
 106.3084561  83.0054237  44.2385463 105.1183599  83.3638861  45.1028683
 105.7755329  85.4300822  47.2026375 105.6591587  84.7545725  47.8707459
 105.8857589  84.9433196  46.3858528 107.7592357  79.9200868  45.9034412
 107.9266759  80.7881105  46.2704884 107.5689526  80.0828150  44.9795702
 103.9680172  84.8331644  53.6036947 103.0430668  84.7007858  53.8114639
 104.2164585  85.6125863  54.1006890 107.7381578  82.3758526  46.8881079
 107.6181203  82.8215577  47.7266560 107.0434166  82.7243844  46.3294617
 101.3288983  84.4764918  54.4380736 101.4581364  84.7299397  55.3520148
 100.6486434  85.0692626  54.1185391 106.2452072  85.1275486  62.7550544
 106.9866756  85.6660530  62.4785368 105.5389057  85.7541775  62.9122096
 107.5964188  87.5680226  52.3725080 108.0602534  87.8467929  51.5829702
 107.3320986  86.6663670  52.1898171 104.4888269  87.1151707  55.3104843
 105.0589626  87.5438976  54.6722328 105.0796381  86.8334292  56.0089029
 106.5333074  83.6903378  49.1814645 107.2357117  84.1424422  49.6488571
 106.2013703  83.0487197  49.8094538 104.9813436  82.2815135  63.5565854
 104.3512096  82.9631415  63.7901251 104.8749524  82.1698216  62.6118993
 100.2758408  81.9486931  54.4831779  99.4857462  82.2044459  54.0071889
 100.7669655  82.7635269  54.5883819 102.2273153  82.3131510  51.4415255
 101.4304317  82.4250204  51.9598751 101.9998746  82.6518162  50.5756146
 108.0578821  88.8376213  59.3897770 108.1223254  89.2996620  60.2255942
 107.3489745  88.2073578  59.5180080  98.5596111  82.2017421  56.9146769
  98.8104149  83.0864431  57.1804345  99.0955659  82.0222023  56.1421861
 107.7726839  90.5044321  49.2576750 107.6372514  91.3495856  49.6861598
 108.3136651  90.7063598  48.4942684 104.2594178  76.5835900  65.9191105
 103.8661124  76.0302099  66.5938750 105.0760319  76.8946479  66.3097623
 101.2256236  88.0219759  49.8304675 101.7380757  88.8163009  49.9810240
 101.8778949  87.3246049  49.7638277 103.0351121  91.1385515  51.9127429
 103.2117749  92.0603480  51.7248412 103.8307954  90.8243934  52.3421808
 107.1762139  77.9993780  63.5111362 107.9171853  78.6000933  63.4315825
 107.4080062  77.2571417  62.9529405 102.3203477  83.1850147  61.7889592
 102.2056993  82.2835404  62.0896691 101.4647995  83.4313844  61.4374408
 104.1582436  92.6563689  57.9137771 104.7089861  92.5280752  57.1414765
 103.3193912  92.9558578  57.5632664  99.1905153  86.3508413  50.6064246
 100.0280375  86.7605421  50.3897954  99.3683421  85.4107855  50.5764440
 106.4458729  76.4818267  54.7591059 107.3111725  76.2861076  54.3996948
 106.5136238  76.2528619  55.6860415 104.0521048  78.7120475  52.1307426
 104.6264800  78.4895657  51.3980618 104.6392030  78.7809170  52.8836027
 104.3790635  80.7424936  46.1503311 103.5427947  81.0799623  46.4712586
 104.2395404  80.6073916  45.2130448 106.3543715  75.5861724  50.8582495
 105.7008128  75.2710741  50.2339110 106.3124190  74.9637465  51.5842318
 107.4654920  85.8681019  42.7735787 106.5581982  85.6370273  42.9726936
 107.9625952  85.0718639  42.9609769  99.2131324  83.6899128  51.2774979
  99.0155724  83.0968489  50.5526046  98.6577988  83.3851338  51.9950918
 107.1928048  83.5822235  53.3969572 107.2476657  82.6296071  53.3212049
 106.3819250  83.7381674  53.8810871 105.1320408  82.1999294  51.1559951
 104.3188273  82.4993465  51.5625143 105.6279402  81.8054983  51.8734434
 107.2828986  92.1957051  53.0894216 107.2405164  92.4217898  52.1602748
 108.1991684  91.9620426  53.2380017 104.6234482  79.7717650  56.7721186
 105.2633862  79.6306409  56.0744150 103.7912013  79.4852163  56.3959788
 105.3994786  89.0720080  52.8856179 106.1935385  88.5770401  52.6838754
 104.6886479  88.5437944  52.5223884 101.7077550  83.2163162  48.9615931
 100.7775138  83.1547618  49.1785894 101.8035022  82.6939115  48.1652573
 101.6263099  79.7417975  51.5494173 101.8869916  80.6563308  51.4403334
 102.4480271  79.2742418  51.6990786 103.0988024  81.1555732  58.7192998
 103.7711078  80.9473094  58.0705647 102.2717811  80.9577818  58.2798230
 107.9766062  89.6449102  56.5654016 107.8377148  89.2767887  57.4379954
 107.1880659  90.1596742  56.3937974 103.5015521  84.4298335  59.4795435
 103.3635319  83.6978574  60.0806974 104.4120445  84.3407235  59.1979623
 106.1297822  84.1418294  58.9679114 106.8397441  83.5011487  58.9265733
 106.0867130  84.3931189  59.8905295 104.8426756  81.1283512  60.7874754
 104.3064113  80.6774251  61.4396350 104.2543465  81.2629421  60.0445218
 104.2529015  80.5872164  43.3501218 103.3758481  80.4660965  42.9863464
 104.7286768  79.7958242  43.0980106  95.7731155  85.3749323  53.4442725
  96.4602195  85.0611054  52.8563740  95.6179284  86.2790688  53.1709976
 100.5765877  80.2639520  57.8727748 100.4924066  79.6565190  57.1378158
  99.7548584  80.7548538  57.8737245 107.3324560  80.8910467  52.9669628
 106.9622347  80.3381507  53.6550534 107.8283652  80.2868600  52.4144628
 105.1613758  91.3507962  60.0624646 105.8623218  91.9844445  60.2154040
 104.6908873  91.6922693  59.3020285 100.7581477  90.8844317  56.9955749
 101.3434913  90.1388005  57.1283653 100.5606315  91.1948273  57.8792413
 103.6120132  93.9195564  52.0118191 102.9430507  94.4041692  51.5282231
 103.4733001  94.1664784  52.9261570  95.3499131  83.4549917  55.7160192
  95.3883231  82.9213508  56.5097310  94.8439424  82.9285122  55.0971169
 102.7289894  78.3014457  59.2122734 102.7931220  79.1629288  58.8000132
 102.6657014  77.6888459  58.4795093 102.2042166  80.3737590  62.8595768
 102.8314205  79.9914667  63.4733293 101.3470085  80.1551792  63.2251461
  98.9807709  82.1814019  48.7914123  99.2761150  81.2724697  48.7381177
  98.0795745  82.1601758  48.4695126 102.5101956  80.2570016  54.7741672
 101.7888542  80.8705983  54.6349145 103.2995212  80.7927780  54.6958318
 105.3128269  77.5924442  61.0482324 105.8362671  77.8386739  61.8108633
 105.0940603  78.4244477  60.6285461 100.7095550  79.8628117  48.9153448
 100.3808257  78.9825496  48.7328554 101.0634921  79.8075785  49.8029838
 103.8237374  80.1501086  49.2828926 104.1633446  80.6787008  48.5607534
 104.2709494  80.4881493  50.0587493 106.5180814  78.5338137  58.7331994
 106.1777635  77.7345950  59.1352674 105.8119821  78.8339848  58.1608827
 107.1697286  75.6187450  57.1859317 107.9923356  75.1447928  57.0638207
 107.4135350  76.3977933  57.6858003 105.8105521  78.6475708  47.4822219
 106.5313883  79.0256961  46.9785936 105.1870825  79.3664585  47.5857197
 104.6935865  82.3106570  54.9951296 104.5480446  82.6246873  55.8875577
 104.2161069  82.9291471  54.4422194 106.5532248  79.3009118  55.0432185
 106.5393817  78.4050212  54.7064483 107.2704676  79.3079782  55.6770471
  99.1681527  84.8511915  57.9338957  98.6234995  85.6271723  58.0659231
 100.0460877  85.1982719  57.7758078 105.9569144  78.1823499  50.3119755
 106.0785055  77.2540145  50.5110643 105.6671186  78.1962184  49.3998071
  99.9547549  83.9781811  60.8269114  99.2129285  84.1264446  61.4133744
  99.6340293  84.2390077  59.9635863 100.4004163  91.8647240  52.8579508
 101.2262183  91.5651012  52.4778152 100.0498215  91.0954862  53.3069297
 105.3685696  91.2173708  54.9277182 104.7465705  90.5544413  54.6279410
 106.0390563  91.2434840  54.2450830  98.6012768  89.7833566  53.8168442
  97.7644676  89.3555740  53.6352443  98.5736413  89.9766009  54.7539233
 105.4410223  79.6955496  64.5209688 105.4898379  80.5717619  64.1387458
 105.9832738  79.1532889  63.9481331 104.9299203  89.7677631  48.4035643
 105.0787323  90.4513096  47.7502315 105.7365646  89.7482721  48.9185098
 107.6709512  80.4486868  61.2756047 106.8012821  80.7420434  61.0038635
 107.9068992  81.0327313  61.9963310 102.6851836  85.7942809  49.4096711
 102.4397878  84.8905139  49.6076922 102.8547750  85.7959959  48.4676189
 101.9547483  81.5271166  46.9082873 101.2616728  81.6015521  46.2522909
 101.7099235  80.7631510  47.4304390 106.9984324  81.5236551  43.1518328
 106.0915779  81.2269664  43.2281041 107.2760305  81.2266369  42.2852614
  97.9162264  82.8442914  53.6017374  97.5965049  81.9908222  53.3091748
  97.3695693  83.0591492  54.3575341 101.6942172  85.5605355  57.3186881
 101.9128182  86.4922463  57.3374914 102.1067946  85.2013330  58.1041684
 106.5670037  81.1338561  66.7089630 106.4666764  82.0832918  66.6401721
 106.3491579  80.8056800  65.8365700 105.7683109  78.3823486  43.2930307
 106.6302273  78.7078384  43.5526124 105.9533453  77.5954982  42.7803373
  97.7850524  86.4645826  55.5710496  97.0913996  86.0499778  55.0580450
  98.5323515  86.5066362  54.9743915 106.4301307  84.5635700  65.5254691
 105.9468389  85.3636060  65.7318580 106.5162246  84.5743645  64.5722135
  99.6987267  86.3964079  53.4476511  99.6757955  86.4951767  52.4958394
 100.0087903  87.2429230  53.7693677 102.3574645  88.4540235  57.5623125
 103.3117898  88.4224177  57.4953057 102.1587168  87.9930858  58.3773351
 102.9474027  87.0241351  60.1293923 103.7666916  87.5185429  60.1528760
 103.2210835  86.1073319  60.1011490 100.7124874  93.9959854  54.5793323
 100.5779341  93.2360255  54.0131321 100.2956936  94.7200754  54.1122112
  98.2008941  81.3579484  60.8286120  98.8467805  80.8478438  61.3173345
  97.9926092  82.0948166  61.4029545 106.7212552  75.6219529  46.5810016
 106.7091221  76.5661369  46.7378287 107.6135973  75.4389674  46.2869477
 102.5406432  78.5047101  64.9261134 103.4037894  78.1483906  65.1364459
 101.9671843  78.1660996  65.6136538  48.9406528  -1.7449904  41.4064719
  49.1803127  -1.1131380  42.0843738  48.0975725  -2.0961864  41.6930078
  60.8562560   2.3014397  38.3827257  60.2927425   2.2104334  37.6143545
  60.7414955   1.4814301  38.8629750  58.4026992   3.7965588  41.2211478
  59.1948284   3.4556413  40.8057777  58.6423642   3.9060563  42.1413631
  66.4362119   5.9685364  33.6941722  65.7850098   6.5539445  33.3075736
  67.2306481   6.4991559  33.7536760  60.3617746   3.0574501  34.0928856
  61.1348622   2.5103489  33.9541732  60.7143145   3.9218751  34.3043318
  62.2002788   4.3850884  47.2995756  61.9092654   5.2896515  47.1842422
  62.8359773   4.4267411  48.0139825  63.1258995   1.7627732  43.8897115
  63.7222567   1.5383755  43.1754078  63.1833967   1.0212478  44.4922563
  67.9137384   3.6575796  34.2310706  67.2783217   3.7310423  34.9431611
  67.5834790   4.2469395  33.5529786  62.4180312   1.1195274  33.9271681
  62.3016570   0.4440177  34.5952766  62.5282572   0.6327647  33.1103834
  67.1592673   4.0712299  44.2945549  66.8593396   4.9737338  44.1861357
  66.8143733   3.8044482  45.1466702  60.6105155   0.5226096  40.3282254
  59.6855651   0.3902310  40.5359946  60.8589568   1.3020315  40.8252196
  57.9713966   0.1659370  41.1626043  58.1006347   0.4193849  42.0765455
  57.2911417   0.7587078  40.8430698  62.1413453  10.8356620  37.2616517
  62.0637483  11.7864445  37.3404998  61.5375097  10.4902492  37.9191443
  62.8877055   0.8169938  49.4795851  63.6291740   1.3554982  49.2030675
  62.1814041   1.4436227  49.6367403  68.3632395   2.9599079  48.0768013
  68.7715751   2.5181489  47.3322645  67.6409656   2.3851706  48.3302205
  68.6861210   3.5200269  41.8320301  68.0570072   3.6845984  41.1296369
  68.2986872   3.9341879  42.6031265  72.5650441   4.4554707  39.1864665
  71.8801480   4.8353609  38.6361699  72.6494291   5.0650034  39.9196613
  64.2389171   3.2574678  39.0970387  64.7027517   3.5362381  38.3075009
  63.9745969   2.3558122  38.9143477  61.1313252   2.8046159  42.0350150
  61.7014610   3.2333427  41.3967634  61.7221364   2.5228744  42.7334335
  70.9347201   4.9786622  43.9582366  71.7564645   4.5766809  43.6765048
  70.9309604   4.8754856  44.9098482  64.7003804   4.5270665  46.1143077
  64.7648237   4.9891072  46.9501248  63.9914728   3.8968030  46.2425386
  55.2021094  -2.1088127  43.6392076  55.4529133  -1.2241117  43.9049652
  55.7380643  -2.2883525  42.8667168  64.4151822   6.1938773  35.9822057
  64.2797497   7.0390308  36.4106905  64.9561635   6.3958050  35.2187991
  57.8681219   3.7114211  36.5549982  58.3805740   4.5057461  36.7055547
  58.5203932   3.0140501  36.4883583  59.6776104   6.8279967  38.6372735
  59.8542732   7.7497932  38.4493719  60.4732938   6.5138386  39.0667115
  66.0420298   6.8162339  50.1122399  65.5984153   6.0298718  49.7943303
  66.7037512   7.0041490  49.4466290  60.8007420   8.3458141  44.6383077
  61.3514845   8.2175204  43.8660071  59.9618896   8.6453030  44.2877970
  68.1401536   7.0965139  48.1403800  68.1220012   7.9174020  47.6484069
  69.0621457   6.9719214  48.3653941  64.5974591   4.6109268  48.9827309
  65.1302927   3.8497557  48.7526617  64.0688672   4.3182920  49.7251463
  55.8330136   2.0402865  37.3309553  56.6705358   2.4499873  37.1143260
  56.0108404   1.1002307  37.3009746  65.9627303   3.7395261  36.4946121
  65.4348665   3.0048020  36.1819358  65.4614806   4.5169937  36.2486089
  64.1079904   1.5575471  29.4981094  63.2006965   1.3264725  29.6972243
  64.6050936   0.7613090  29.6855075  67.0147982  10.2672978  32.4177780
  66.3409681  10.5704675  33.0262738  67.4013804  11.0702059  32.0683237
  65.2868137   1.6588066  34.0205084  64.3779356   1.3747099  34.1177553
  65.3163221   2.0787145  33.1608391  70.5187404   5.2694656  37.7896251
  70.0649731   4.4285565  37.8461442  69.8881371   5.9056054  38.1271031
  68.9620344   7.1071152  38.7246069  69.2543318   7.6676209  38.0058435
  69.4718964   7.3999713  39.4799229  55.8556307  -0.6206420  38.0020286
  55.6580707  -1.2137059  37.2771353  55.3002971  -0.9254210  38.7196225
  64.9844225   3.1996810  31.3593162  64.5463655   2.4832669  30.8998800
  65.7254666   3.4272925  30.7978254  63.9253969   7.8851503  39.8139523
  63.8830148   8.1112350  38.8848055  64.8416668   7.6514878  39.9625324
  62.0419770   4.7614532  39.6101485  62.8360368   4.2664852  39.4084060
  61.3311462   4.2332395  39.2469191  66.8614614   7.1432628  43.9613853
  66.9151636   7.7123564  44.7291569  65.9929395   7.3134513  43.5967890
  69.0517377   3.7360977  50.5354518  68.9002884   3.5071529  49.6184602
  69.0422057   4.6931579  50.5485863  65.8202714   1.3092890  45.5200785
  66.7494774   1.4604050  45.3469752  65.3993744   1.3976911  44.6649431
  64.6191046   5.3343554  43.2899322  64.4802131   4.9662339  44.1625261
  63.8305642   5.8491194  43.1183280  65.2139198  10.4352651  34.6324859
  65.3890953   9.9640694  35.4470482  64.5271986  11.0618417  34.8606120
  66.1696261   4.7125157  40.6788160  65.8346093   4.6725927  41.5745810
  65.6700206   4.0469873  40.2058570  60.1440505   0.1192787  46.2040741
  60.0060303  -0.6126974  46.8052280  61.0545428   0.0301687  45.9224929
  70.7609584   6.7680100  48.6131000  70.7022130   6.0839320  47.9461583
  71.1629102   7.5099090  48.1611626  59.7800283  13.5842014  41.4064719
  60.0196881  14.2160538  42.0843738  58.9369479  13.2330054  41.6930078
  70.7626991   4.7319684  46.8444980  69.8753770   4.3945605  46.9671379
  71.3325542   4.0002715  47.0813745  52.4156138   1.0643775  40.1688031
  53.1027178   0.7505505  39.5809047  52.2604267   1.9685140  39.8955283
  64.2928145   9.3921136  43.8106223  64.2198316  10.1976107  44.3225528
  63.8505538   9.5913102  42.9854245  64.0817924   8.6292906  37.3209045
  63.2985446   9.1714586  37.4147269  64.7810670   9.1466886  37.7203286
  66.7526828   9.2907970  45.9664382  67.4654800   9.9255435  45.8940283
  66.2616857   9.3871836  45.1504384  68.4744355   3.1959223  37.5381673
  67.5400634   3.3160685  37.3686378  68.6521024   2.2931689  37.2741683
  61.8038742   7.0402413  46.7869953  62.5048201   7.6738896  46.9399347
  61.3333857   7.3817145  46.0265592  69.9293138   5.3820363  35.0717860
  70.2052982   5.2676958  35.9811734  69.0597636   4.9837848  35.0330033
  66.5647202   9.6306714  38.7150673  66.7469596   8.8128370  39.1778426
  67.3880188   9.8474406  38.2775563  66.8989367   8.5574899  35.9765722
  67.4277134   8.0467354  35.3635884  67.1617587   8.2417429  36.8411255
  57.4006460   6.5738769  43.7201055  57.9859897   5.8282456  43.8528960
  57.2031298   6.8842725  44.6037719  60.2545115   9.6090016  38.7363498
  59.5855490  10.0936144  38.2527538  60.1157985   9.8559236  39.6506876
  51.9924115  -0.8555631  42.4405498  52.0308214  -1.3892041  43.2342617
  51.4864407  -1.3820426  41.8216476  64.3950384  11.6433759  45.3346156
  64.9468692  11.8065381  46.0995241  64.7356577  12.2338197  44.6626181
  69.2461258   6.4695017  51.1894810  69.7901162   7.0824975  50.6949765
  68.6648103   7.0274595  51.7061823  67.5318771   9.5915735  42.3209838
  67.4069910   8.7905475  41.8120784  68.1897862  10.0861928  41.8323808
  69.5953679   7.3924755  43.9489388  68.6484015   7.2730106  43.8767715
  69.9436452   6.5047253  44.0315650  66.6000113   7.1877471  40.1493741
  66.4525075   6.2594179  40.3301311  67.4253606   7.2097562  39.6650816
  70.2034234   8.0106030  41.2358613  71.1280782   7.8048891  41.0983064
  70.0349538   7.7622431  42.1447955  69.9929551   8.5291697  36.5920705
  70.1666428   7.9638120  35.8394557  70.4858442   9.3292592  36.4100195
  55.8106510   0.5406367  44.6584264  55.2659979   1.3166175  44.7904538
  56.6885860   0.8877171  44.5003385  70.9804723   7.8458462  33.6917603
  71.6755628   8.4665155  33.9104918  71.3227873   6.9953813  33.9669981
  56.5972532  -0.3323737  47.5514420  55.8554268  -0.1841102  48.1379051
  56.2765277  -0.0715472  46.6881170  72.8796146   5.2958167  35.2204934
  73.4047470   5.6345440  34.4954254  72.7918499   4.3605183  35.0368068
  64.5416195   9.2092241  47.3494810  64.8503321   8.9641388  48.2217510
  65.3391677   9.4138880  46.8613681  64.5636807  11.3630151  39.5800187
  64.1241797  10.8706529  40.2733044  65.3144924  10.8203118  39.3392262
  57.0429146   7.5541692  39.5824815  57.8687166   7.2545463  39.2023459
  56.6923198   6.7849314  40.0314604  62.0110679   6.9068160  41.6522489
  61.3890688   6.2438865  41.3524717  62.6815546   6.9329292  40.9696136
  55.2437751   5.4728018  40.5413749  54.4069659   5.0450192  40.3597750
  55.2161396   5.6660461  41.4784540  72.5690052   5.9291071  50.5256132
  71.7785596   5.9115210  49.9860631  72.3323407   6.4679365  51.2805168
  61.5724186   5.4572083  35.1280949  61.7212306   6.1407547  34.4747622
  62.3790630   5.4377173  35.6430405  74.1906124   5.1980479  48.0830882
  73.8990933   5.5610459  48.9194343  73.5778255   4.4847487  47.9044214
  59.3276819   1.4837261  36.1342018  59.0822861   0.5799591  36.3322228
  59.4972734   1.4854411  35.1921496  65.0719592   7.9520214  32.5992697
  64.4993559   8.5710401  32.1463168  65.6452385   8.5019575  33.1332619
  68.2916851   8.2357364  33.7301279  69.2247525   8.1702925  33.9334154
  68.2040064   9.0713631  33.2715812  70.9204868   7.5523234  30.6905226
  70.8418500   7.2183098  31.5840984  71.7414535   8.0445002  30.6896699
  65.3405083   3.3398772  51.4009406  66.2608092   3.5177371  51.5949453
  65.3054666   2.3954818  51.2489105  54.5587248  -1.4662634  40.3262681
  54.2390032  -2.3197326  40.0337055  54.0120676  -1.2514056  41.0820648
  58.3367155   1.2499807  44.0432187  58.5553165   2.1816915  44.0620221
  58.7492929   0.8907781  44.8286991  54.4275508   2.1540278  42.2955802
  53.7338979   1.7394230  41.7825757  55.1748499   2.1960814  41.6989221
  63.0726291   0.2530152  52.2499998  62.5893372   1.0530512  52.4563887
  63.1587230   0.2638097  51.2967442  56.3412250   2.0858531  40.1721817
  56.3182938   2.1846219  39.2203700  56.6512887   2.9323682  40.4938983
  58.9999628   4.1434686  44.2868432  59.9542882   4.1118629  44.2198363
  58.8012152   3.6825310  45.1018658  59.5899010   2.7135802  46.8539229
  60.4091899   3.2079881  46.8774067  59.8635818   1.7967771  46.8256797
  57.3549857   9.6854306  41.3038629  57.2204325   8.9254707  40.7376628
  56.9381919  10.4095206  40.8367418  68.4908820   4.8691229  30.3115205
  69.1944670   5.0741232  30.9272860  67.7671469   5.4367991  30.5764288
  60.5118983  10.5823623  41.5157072  60.3951367  11.5269055  41.4135762
  59.6911429  10.2797184  41.9042871  70.3995517   5.3073759  32.3613665
  71.2341121   4.8754957  32.1791140  70.2379860   5.1355772  33.2890559
  67.3687317   4.1154784  53.0523567  68.2378476   4.2895436  52.6910202
  66.8894068   4.9349201  52.9299296  61.5373497  11.2351885  44.7313001
  62.4400744  11.2675495  45.0479496  61.3110867  10.3052336  44.7459336
  63.2927099   9.9882871  41.3923079  62.3422730   9.9884733  41.2787451
  63.5959585   9.2415606  40.8759114  79.0279792  15.8243410  42.4568842
  79.6658202  15.7050157  41.7532182  78.9100635  16.7724254  42.5156794
  75.8369499  15.7770838  42.3930366  75.4988010  15.6611903  41.5050901
  76.7059267  15.3762003  42.3731372  71.6956314  17.6306314  38.3827257
  71.1321179  17.5396251  37.6143545  71.5808709  16.8106219  38.8629750
  76.3189282  16.9305690  48.3516572  76.3077922  16.5358488  47.4797075
  76.4809921  16.1971762  48.9450343  69.2420746  19.1257506  41.2211478
  70.0342038  18.7848330  40.8057777  69.4817396  19.2352481  42.1413631
  77.2755873  21.2977282  33.6941722  76.6243853  21.8831362  33.3075736
  78.0700236  21.8283477  33.7536760  71.2011500  18.3866419  34.0928856
  71.9742376  17.8395406  33.9541732  71.5536899  19.2510668  34.3043318
  73.0396543  19.7142801  47.2995756  72.7486409  20.6188432  47.1842422
  73.6753527  19.7559329  48.0139825  73.9652750  17.0919650  43.8897115
  74.5616322  16.8675672  43.1754078  74.0227721  16.3504395  44.4922563
  73.5377778  14.5459085  31.7247306  73.7903299  14.0240606  30.9630769
  72.6002337  14.3825231  31.8273990  78.5821061  13.5494864  39.5322050
  79.3684150  13.1314287  39.1812467  78.8459765  14.4540956  39.7003698
  78.7531138  18.9867714  34.2310706  78.1176971  19.0602340  34.9431611
  78.4228545  19.5761313  33.5529786  83.9829488  13.4870097  40.4355028
  84.7154660  12.9169314  40.6692858  83.2268844  13.0991697  40.8761534
  73.2574067  16.4487191  33.9271681  73.1410325  15.7732095  34.5952766
  73.3676327  15.9619565  33.1103834  75.6005608  15.9097338  37.6318371
  75.2363815  15.3827959  38.3431292  76.4572724  15.5195807  37.4584856
  81.5054908   7.1991671  44.8949637  81.1738233   8.0687082  44.6710852
  80.9100522   6.8827955  45.5743667  75.2411095  10.9387238  32.6279719
  75.4085497  11.8067474  32.9950190  75.0508264  11.1014520  31.7041008
  77.9986428  19.4004217  44.2945549  77.6987151  20.3029256  44.1861357
  77.6537487  19.1336400  45.1466702  71.4498909  15.8518014  40.3282254
  70.5249406  15.7194228  40.5359946  71.6983323  16.6312233  40.8252196
  81.3983572  11.9186757  41.9742987  80.4900449  11.8502166  41.6801748
  81.3471167  12.3958702  42.8024812  75.2200316  13.3944895  33.6126386
  75.0999941  13.8401946  34.4511866  74.5252904  13.7430213  33.0539924
  68.8107720  15.4951287  41.1626043  68.9400102  15.7485766  42.0765455
  68.1305172  16.0878995  40.8430698  72.9807208  26.1648537  37.2616517
  72.9031237  27.1156362  37.3404998  72.3768851  25.8194410  37.9191443
  75.4724437  13.3376403  49.9177884  74.6957771  13.8970323  49.9080749
  76.1115000  13.8233186  50.4392754  83.2645218  10.1203195  43.7520861
  82.6219598  10.4135729  43.1060655  82.7600147  10.0056116  44.5574057
  80.9185382  13.8666369  34.4406720  81.8303238  14.0993755  34.2654418
  80.4095029  14.4503413  33.8781799  73.7270810  16.1461856  49.4795851
  74.4685494  16.6846900  49.2030675  73.0207795  16.7728145  49.6367403
  79.2026149  18.2890996  48.0768013  79.6109505  17.8473407  47.3322645
  78.4803411  17.7143624  48.3302205  75.5557219  13.2263603  45.4501570
  76.4018415  13.6503017  45.5936219  75.4955857  12.5697228  46.1440133
  79.5254964  18.8492187  41.8320301  78.8963826  19.0137901  41.1296369
  79.1380626  19.2633797  42.6031265  83.4044196  19.7846625  39.1864665
  82.7195234  20.1645526  38.6361699  83.4888045  20.3941952  39.9196613
  78.7056665  10.8867972  47.1082743  78.4617597  11.6410032  46.5717019
  78.9816595  11.2653319  47.9429990  80.6595127  17.4306584  45.7860009
  80.8712023  18.0738344  45.1094390  80.6124876  16.5968901  45.3181939
  78.2621356  10.0424405  42.6896581  77.4005835  10.3405658  42.9813318
  78.2883791  10.2594804  41.7577614  75.0782926  18.5866595  39.0970387
  75.5421271  18.8654298  38.3075009  74.8139724  17.6850040  38.9143477
  71.9707007  18.1338077  42.0350150  72.5408364  18.5625345  41.3967634
  72.5615119  17.8520661  42.7334335  74.0151812  14.7089748  35.9059952
  74.7175855  15.1610791  36.3733878  73.6832440  14.0673566  36.5339845
  72.4632173  13.3001504  50.2811161  71.8330834  13.9817785  50.5146558
  72.3568261  13.1884586  49.3364299  67.7577146  12.9673300  41.2077085
  66.9676200  13.2230829  40.7317196  68.2488393  13.7821638  41.3129126
  81.7740955  20.3078539  43.9582366  82.5958399  19.9058727  43.6765048
  81.7703358  20.2046774  44.9098482  69.7091891  13.3317879  38.1660562
  68.9123055  13.4436574  38.6844058  69.4817483  13.6704532  37.3001452
  75.5397559  19.8562583  46.1143077  75.6041991  20.3182990  46.9501248
  74.8308483  19.2259948  46.2425386  66.0414849  13.2203791  43.6392076
  66.2922887  14.1050801  43.9049652  66.5774397  13.0408392  42.8667168
  89.8646948  16.6517288  40.3067338  89.1110657  16.0824686  40.1511342
  89.9994490  16.6179952  41.2537972  75.2545577  21.5230690  35.9822057
  75.1191251  22.3682226  36.4106905  75.7955389  21.7249968  35.2187991
  71.7412916   7.6022270  52.6436412  71.3479862   7.0488469  53.3184056
  72.5579057   7.9132849  53.0342930  68.7074974  19.0406128  36.5549982
  69.2199494  19.8349378  36.7055547  69.3597687  18.3432419  36.4883583
  70.5169859  22.1571885  38.6372735  70.6936487  23.0789849  38.4493719
  71.3126692  21.8430304  39.0667115  74.6580877   9.0180149  50.2356669
  75.3990591   9.6187302  50.1561131  74.8898800   8.2757787  49.6774711
  69.8022215  14.2036516  48.5134898  69.6875730  13.3021774  48.8141997
  68.9466733  14.4500213  48.1619715  76.8814053  22.1454257  50.1122399
  76.4377907  21.3590635  49.7943303  77.5431267  22.3333407  49.4466290
  71.6401174  23.6750058  44.6383077  72.1908599  23.5467122  43.8660071
  70.8012650  23.9744947  44.2877970  78.9795291  22.4257057  48.1403800
  78.9613766  23.2465938  47.6484069  79.9015211  22.3011132  48.3653941
  75.4368345  19.9401186  48.9827309  75.9696682  19.1789474  48.7526617
  74.9082426  19.6474838  49.7251463  66.6723891  17.3694783  37.3309553
  67.5099113  17.7791791  37.1143260  66.8502158  16.4294225  37.3009746
  78.5688323  15.0369863  33.0193385  78.0534946  15.8074468  33.2581773
  78.2965631  14.3634999  33.6426447  76.1535434   9.8819564  38.0778624
  75.2977030   9.4926414  37.8984263  76.5662386   9.9611525  37.2178409
  77.6834580   7.4165907  42.4770184  77.1799376   7.3796042  41.6637989
  77.9765187   8.3258650  42.5366840  73.9277466   7.5004637  41.4836365
  74.7930463   7.3047446  41.1242255  73.9954975   7.2714989  42.4105722
  83.5422597  17.7902218  34.9546559  82.7652040  17.4513377  34.5101721
  84.2214078  17.7954841  34.2801524  78.3574626  12.9096955  34.8453167
  78.0524762  13.2243104  35.6963310  79.3105068  12.9878375  34.8880500
  76.8021058  19.0687179  36.4946121  76.2742419  18.3339938  36.1819358
  76.3008561  19.8461855  36.2486089  81.7813904  17.2636199  41.6113167
  81.1237578  17.9535460  41.6993296  82.5854303  17.6532631  41.9547153
  71.5339785   9.7306845  38.8552732  72.1083537   9.5082026  38.1225925
  72.1210768   9.7995539  39.6081333  80.5919363  15.6180572  39.6617109
  81.1051244  16.2510564  40.1638818  81.2420587  15.0181767  39.2960469
  71.8609373  11.7611306  32.8748617  71.0246685  12.0985992  33.1957892
  71.7214142  11.6260286  31.9375754  73.8362453   6.6048094  37.5827802
  73.1826866   6.2897111  36.9584416  73.7942927   5.9823834  38.3087625
  74.9473658  16.8867389  29.4981094  74.0400720  16.6556642  29.6972243
  75.4444690  16.0905008  29.6855075  77.8541737  25.5964896  32.4177780
  77.1803436  25.8996593  33.0262738  78.2407559  26.3993976  32.0683237
  77.0700194  13.0930027  41.9075449  76.1522755  13.3144974  41.7497137
  77.4860337  13.1676338  41.0487157  77.8535241  14.4921443  37.0378129
  78.6007060  15.0042840  36.7285252  78.1226831  14.1705496  37.8982523
  76.1261891  16.9879984  34.0205084  75.2173111  16.7039017  34.1177553
  76.1556975  17.4079062  33.1608391  81.3581159  20.5986573  37.7896251
  80.9043486  19.7577483  37.8461442  80.7275126  21.2347972  38.1271031
  80.3014078  11.5278559  39.0196919  79.5636835  11.0155945  39.3507161
  80.5540852  11.0878941  38.2080196  79.8014098  22.4363070  38.7246069
  80.0937072  22.9968127  38.0058435  80.3112719  22.7291631  39.4799229
  66.6950062  14.7085498  38.0020286  66.4974462  14.1154859  37.2771353
  66.1396726  14.4037708  38.7196225  74.6746786  14.6008604  40.1214879
  74.7295395  13.6482441  40.0457356  73.8637988  14.7568043  40.6056178
  75.8237979  18.5288727  31.3593162  75.3857409  17.8124586  30.8998800
  76.5648420  18.7564842  30.7978254  72.6139145  13.2185664  37.8805258
  71.8007011  13.5179835  38.2870450  73.1098140  12.8241353  38.5979740
  74.7647723  23.2143421  39.8139523  74.7223902  23.4404267  38.8848055
  75.6810422  22.9806796  39.9625324  78.2113357  13.6827489  46.7120152
  78.5662745  13.9098962  47.5714618  78.8585488  14.0145865  46.0897407
  83.9411094  16.8045924  37.4169481  83.8028993  16.9947520  36.4890670
  83.5847313  17.5665307  37.8737532  72.1053220  10.7904020  43.4966493
  72.7452600  10.6492779  42.7989456  71.2730751  10.5038533  43.1205095
  83.9680474  18.8722451  42.4280752  84.4016980  18.7797741  43.2763806
  84.6812054  18.8479952  41.7900768  72.8813524  20.0906450  39.6101485
  73.6754123  19.5956770  39.4084060  72.1705216  19.5624313  39.2469191
  77.7008369  22.4724546  43.9613853  77.7545391  23.0415482  44.7291569
  76.8323150  22.6426431  43.5967890  69.1896288  14.2349532  35.6861238
  68.2593876  14.1733987  35.9031200  69.2853760  13.7125485  34.8897879
  69.1081837  10.7604345  38.2739480  69.3688654  11.6749678  38.1648640
  69.9299009  10.2928787  38.4236093  70.5806762  12.1742102  45.4438304
  71.2529815  11.9659464  44.7950953  69.7536548  11.9764188  45.0043537
  84.8296023  18.9146152  44.9613638  85.0231913  19.8191963  45.2072913
  84.7296641  18.4553571  45.7952223  76.4832334   8.8004043  47.4603965
  75.8360249   9.4993992  47.3668442  77.2533349   9.2340187  47.8280213
  79.8911132  19.0652895  50.5354518  79.7396638  18.8363447  49.6184602
  79.8815811  20.0223496  50.5485863  76.6596468  16.6384808  45.5200785
  77.5888528  16.7895967  45.3469752  76.2387498  16.7268828  44.6649431
  75.4584800  20.6635472  43.2899322  75.3195886  20.2954256  44.1625261
  74.6699396  21.1783111  43.1183280  76.0532952  25.7644568  34.6324859
  76.2284708  25.2932612  35.4470482  75.3665740  26.3910335  34.8606120
  77.0090015  20.0417075  40.6788160  76.6739848  20.0017845  41.5745810
  76.5093961  19.3761791  40.2058570  70.9834259  15.4484705  46.2040741
  70.8454057  14.7164944  46.8052280  71.8939183  15.3593605  45.9224929
  79.9449207  17.3873109  30.9525220  79.3278378  16.6619937  30.8558273
  79.4765695  18.1482469  30.6092294  73.6116560  15.1604664  45.6924421
  74.3216178  14.5197856  45.6511039  73.5685868  15.4117559  46.6150602
  81.6003339  22.0972017  48.6131000  81.5415885  21.4131238  47.9461583
  82.0022857  22.8391007  48.1611626  72.3245494  12.1469882  47.5120061
  71.7882851  11.6960620  48.1641657  71.7362202  12.2815791  46.7690525
  71.7347753  11.6058533  30.0746524  70.8577219  11.4847334  29.7108771
  72.2105506  10.8144612  29.8225413  81.6020746  20.0611601  46.8444980
  80.7147525  19.7237523  46.9671379  82.1719297  19.3294633  47.0813745
  63.2549893  16.3935693  40.1688031  63.9420933  16.0797423  39.5809047
  63.0998022  17.2977058  39.8955283  68.0584615  11.2825890  44.5973055
  67.9742804  10.6751559  43.8623465  67.2367321  11.7734908  44.5982551
  75.1321899  24.7213054  43.8106223  75.0592071  25.5268025  44.3225528
  74.6899292  24.9205019  42.9854245  74.9211679  23.9584824  37.3209045
  74.1379201  24.5006504  37.4147269  75.6204424  24.4758803  37.7203286
  78.2308329   9.7679453  39.9643250  78.7277028   9.0149415  39.6444320
  77.4595310   9.8043770  39.3986459  86.0838086  15.4719819  41.6061542
  86.0727963  16.3544534  41.2355475  85.2155466  15.1191370  41.4116079
  77.5920583  24.6199888  45.9664382  78.3048555  25.2547353  45.8940283
  77.1010611  24.7163754  45.1504384  79.3138110  18.5251140  37.5381673
  78.3794388  18.6452603  37.3686378  79.4914778  17.6223607  37.2741683
  74.8143298  11.9096836  39.6914935  74.4441085  11.3567877  40.3795840
  75.3102390  11.3054970  39.1389935  82.7010661  14.3668460  38.0731708
  83.1671113  15.1996451  37.9992010  83.1518161  13.9013441  38.7776966
  72.6432496  22.3694331  46.7869953  73.3441956  23.0030814  46.9399347
  72.1727611  22.7109063  46.0265592  80.7686892  20.7112281  35.0717860
  81.0446736  20.5968876  35.9811734  79.8991391  20.3129766  35.0330033
  80.6727324   6.7349047  42.1122609  79.7590404   6.9653273  42.2804816
  81.1020425   6.8187491  42.9636641  80.4433782  14.9238939  44.6122503
  79.7905232  15.1714846  43.9574956  80.8214162  14.1103077  44.2784980
  77.4040956  24.9598632  38.7150673  77.5863351  24.1420288  39.1778426
  78.2273942  25.1766324  38.2775563  77.7383122  23.8866817  35.9765722
  78.2670888  23.3759272  35.3635884  78.0011341  23.5709347  36.8411255
  76.4921355  15.6658750  51.0988540  75.8161992  15.5652879  51.7690915
  77.3148989  15.5097963  51.5624537  68.2400214  21.9030686  43.7201055
  68.8253651  21.1574374  43.8528960  68.0425053  22.2134643  44.6037719
  71.0938870  24.9381934  38.7363498  70.4249245  25.4228061  38.2527538
  70.9551739  25.1851154  39.6506876  62.8317869  14.4736286  42.4405498
  62.8701969  13.9399877  43.2342617  62.3258162  13.9471492  41.8216476
  70.2108631   9.3200827  45.9368041  70.2749958  10.1815658  45.5245438
  70.1475752   8.7074829  45.2040399  69.6860904  11.3923959  49.5841075
  70.3132943  11.0101037  50.1978599  68.8288823  11.1738161  49.9496768
  80.0855012  21.7986935  51.1894810  80.6294916  22.4116893  50.6949765
  79.5041857  22.3566513  51.7061823  66.4626447  13.2000389  35.5159430
  66.7579888  12.2911067  35.4626484  65.5614482  13.1788128  35.1940432
  78.3712525  24.9207653  42.3209838  78.2463665  24.1197392  41.8120784
  79.0291617  25.4153846  41.8323808  69.9920694  11.2756385  41.4986978
  69.2707279  11.8892353  41.3594452  70.7813949  11.8114150  41.4203624
  80.4347434  22.7216673  43.9489388  79.4877769  22.6022024  43.8767715
  80.7830207  21.8339171  44.0315650  72.7947007   8.6110812  47.7727630
  73.3181409   8.8573108  48.5353940  72.5759340   9.4430846  47.3530768
  68.1914288  10.8814486  35.6398755  67.8626994  10.0011865  35.4573861
  68.5453659  10.8262155  36.5275144  77.4393867  22.5169389  40.1493741
  77.2918830  21.5886096  40.3301311  78.2647361  22.5389480  39.6650816
  71.3056111  11.1687456  36.0074233  71.6452184  11.6973377  35.2852841
  71.7528232  11.5067862  36.7832799  81.0427989  23.3397948  41.2358613
  81.9674536  23.1340809  41.0983064  80.8743292  23.0914349  42.1447955
  73.9999552   9.5524507  45.4577301  73.6596373   8.7532320  45.8597981
  73.2938558   9.8526218  44.8854134  74.6516024   6.6373819  43.9104624
  75.4742093   6.1634297  43.7883514  74.8954088   7.4164303  44.4103310
  73.2924259   9.6662078  34.2067525  74.0132621  10.0443330  33.7031242
  72.6689563  10.3850954  34.3102503  77.4355381  10.3707227  35.1425858
  77.6518996  11.2531864  34.8414686  76.9549449   9.9793440  34.4131500
  72.1754603  13.3292940  41.7196602  72.0299184  13.6433243  42.6120884
  71.6979806  13.9477840  41.1667501  74.0350986  10.3195488  41.7677492
  74.0212554   9.4236581  41.4309790  74.7523414  10.3266152  42.4015778
  75.8877116  10.7532828  43.8130619  75.6294894  11.6749899  43.8114950
  75.3562157  10.3563263  44.5031083  80.8323305  23.8583615  36.5920705
  81.0060183  23.2930038  35.8394557  81.3252196  24.6584510  36.4100195
  66.6500265  15.8698284  44.6584264  66.1053733  16.6458092  44.7904538
  67.5279615  16.2169089  44.5003385  73.4387882   9.2009868  37.0365062
  73.5603793   8.2726514  37.2355950  73.1489924   9.2148554  36.1243377
  76.3079072   6.8864779  40.1731782  76.3300769   6.9504112  39.2183761
  76.7247131   6.0469287  40.3672288  86.6862696  16.6220038  38.2111004
  87.1293842  15.8727363  37.8130128  85.8089207  16.6130174  37.8284736
  81.8198478  23.1750380  33.6917603  82.5149382  23.7957072  33.9104918
  82.1621628  22.3245731  33.9669981  67.4366287  14.9968180  47.5514420
  66.6948023  15.1450816  48.1379051  67.1159031  15.2576446  46.6881170
  83.7189901  20.6250085  35.2204934  84.2441225  20.9637358  34.4954254
  83.6312253  19.6897100  35.0368068  75.3809949  24.5384159  47.3494810
  75.6897076  24.2933305  48.2217510  76.1785431  24.7430797  46.8613681
  75.4030561  26.6922068  39.5800187  74.9635552  26.1998447  40.2733044
  76.1538678  26.1495036  39.3392262  67.8822900  22.8833609  39.5824815
  68.7080920  22.5837381  39.2023459  67.5316952  22.1141232  40.0314604
  72.8504434  22.2360077  41.6522489  72.2284443  21.5730782  41.3524717
  73.5209301  22.2621209  40.9696136  66.0831506  20.8019936  40.5413749
  65.2463414  20.3742110  40.3597750  66.0555151  20.9952379  41.4784540
  72.9228961  10.7141865  51.2454995  72.9717117  11.5903988  50.8632764
  73.4651475  10.1719259  50.6726638  83.4083807  21.2582989  50.5256132
  82.6179351  21.2407128  49.9860631  83.1717161  21.7971282  51.2805168
  83.5281682  18.1075455  47.8388860  83.5779687  17.9425463  48.7804383
  83.4195605  17.2402714  47.4486741  72.4117941  20.7864001  35.1280949
  72.5606061  21.4699465  34.4747622  73.2184384  20.7669091  35.6430405
  80.8185444  14.0906383  49.1548167  81.7195307  13.9512848  48.8632165
  80.8933419  14.2560838  50.0946344  75.1528250  11.4673238  48.0001353
  74.2831559  11.7606804  47.7283942  75.3887730  12.0513683  48.7208617
  85.0299879  20.5272397  48.0830882  84.7384687  20.8902377  48.9194343
  84.4172010  19.8139405  47.9044214  86.2295561  18.0925276  40.6033452
  87.0642452  18.5315080  40.7671012  86.3654690  17.6163930  39.7841698
  83.2787067  15.6505011  46.5510940  83.7541189  15.8432658  45.7429791
  82.3552632  15.7064197  46.3054323  70.1670574  16.8129178  36.1342018
  69.9216615  15.9091508  36.3322228  70.3366488  16.8146329  35.1921496
  77.8567283   7.6852855  45.5166774  78.3749227   8.4213882  45.1913262
  77.5022416   7.9916848  46.3513533  69.4366221  12.5457536  33.6328180
  68.7435466  12.6201891  32.9768216  69.1917973  11.7817880  34.1549696
  75.9113346  23.2812131  32.5992697  75.3387313  23.9002318  32.1463168
  76.4846140  23.8311493  33.1332619  81.9788736  12.5270771  44.7839245
  82.9306159  12.6268869  44.8051469  81.8092186  11.7349040  45.2937330
  80.0003115   9.6126355  44.9698646  79.4053048   9.8931367  44.2745135
  79.7152812  10.1020255  45.7415387  79.1310606  23.5649281  33.7301279
  80.0641279  23.4994843  33.9334154  79.0433819  24.4005548  33.2715812
  81.7598623  22.8815152  30.6905226  81.6812254  22.5475015  31.5840984
  82.5808289  23.3736920  30.6896699  84.4576814  15.7476891  43.8981545
  84.4253134  14.8092892  44.0841229  85.0677437  15.8260928  43.1647370
  76.2960145  14.6172944  29.9408749  77.2419249  14.4879152  30.0097167
  75.9174390  13.8787606  30.4178177  84.6071302  12.5387934  43.9439828
  84.0910351  11.7546391  43.7569757  85.4911251  12.2106651  44.1086348
  90.2753364  16.8092898  43.0387582  91.0056752  16.5478186  43.5995285
  89.6660309  16.0721620  43.0789650  88.3568661  14.9500760  43.6362033
  87.6301824  14.8156725  43.0278525  87.9415948  15.2577589  44.4418751
  76.1798837  18.6690690  51.4009406  77.1001847  18.8469289  51.5949453
  76.1448420  17.7246735  51.2489105  74.4803062  12.5422920  29.8763634
  73.5734517  12.2456033  29.9526348  74.7579043  12.2452738  29.0097921
  65.3981002  13.8629284  40.3262681  65.0783786  13.0094592  40.0337055
  64.8514430  14.0777862  41.0820648  69.1760910  16.5791725  44.0432187
  69.3946919  17.5108833  44.0620221  69.5886683  16.2199699  44.8286991
  76.0965127   7.0859810  36.0307876  75.2865856   6.7406895  36.4063122
  76.7849544   6.7767354  36.6195487  74.0488775  12.1524931  53.4334936
  73.9485502  13.1019287  53.3647027  73.8310317  11.8243169  52.5611006
  73.2501846   9.4009856  30.0175614  74.1121010   9.7264754  30.2771431
  73.4352191   8.6141351  29.5048679  65.2669262  17.4832195  42.2955802
  64.5732734  17.0686148  41.7825757  66.0142253  17.5252732  41.6989221
  81.4034483   8.2738382  37.1610837  80.8233152   8.9323186  36.7788889
  81.1370416   7.4515727  36.7498254  79.8538049   7.6743440  39.3632157
  80.3537828   7.7859974  38.5546476  80.4973657   7.3704493  40.0032965
  73.9120045  15.5822069  52.2499998  73.4287127  16.3822429  52.4563887
  73.9980984  15.5930014  51.2967442  67.1806005  17.4150449  40.1721817
  67.1576693  17.5138136  39.2203700  67.4906641  18.2615600  40.4938983
  69.8393383  19.4726604  44.2868432  70.7936636  19.4410546  44.2198363
  69.6405906  19.0117228  45.1018658  70.4292765  18.0427720  46.8539229
  71.2485654  18.5371799  46.8774067  70.7029572  17.1259688  46.8256797
  80.1859361  10.4338472  36.2167185  79.2985216  10.7188123  35.9987380
  80.6013350  10.2732236  35.3694462  83.5373897  10.4584993  39.9321524
  84.3134287  10.9481446  40.2046141  82.8122031  10.8843048  40.3893394
  85.9746456  11.1712613  40.9895465  86.5690946  10.9308349  40.2788773
  86.0473039  10.4519743  41.6169001  68.1943611  25.0146224  41.3038629
  68.0598079  24.2546624  40.7376628  67.7775674  25.7387123  40.8367418
  79.3302574  20.1983147  30.3115205  80.0338424  20.4033150  30.9272860
  78.6065223  20.7659909  30.5764288  80.1600385  15.9493008  36.4317475
  80.1035586  16.4061560  35.5925107  80.7128727  15.1883693  36.2540318
  83.9705191  11.7382740  37.2567594  83.7142125  11.3379376  38.0875802
  83.3458059  12.4526534  37.1317734  88.2817528  14.4778813  39.7638886
  87.7217086  14.5472003  40.5370448  87.6761032  14.3019798  39.0438382
  71.3512737  25.9115541  41.5157072  71.2345121  26.8560973  41.4135762
  70.5305183  25.6089102  41.9042871  81.2389272  20.6365676  32.3613665
  82.0734876  20.2046875  32.1791140  81.0773615  20.4647690  33.2890559
  80.8935164  17.1397790  33.7270004  80.8383968  16.9742061  32.7858448
  80.2681219  17.8473823  33.8832194  65.6827679  12.3765854  47.5531426
  66.3286543  11.8664808  48.0418652  65.4744830  13.1134536  48.1274852
  78.2081071  19.4446701  53.0523567  79.0772231  19.6187354  52.6910202
  77.7287823  20.2641118  52.9299296  74.2031289   6.6405899  33.3055323
  74.1909959   7.5847739  33.4623593  75.0954711   6.4576044  33.0114784
  74.1320853  25.3174789  41.3923079  73.1816484  25.3176651  41.2787451
  74.4353339  24.5707524  40.8759114  70.0225170   9.5233471  51.6506441
  70.8856631   9.1670276  51.8609765  69.4490581   9.1847366  52.3381845
  89.8673547  31.1535327  42.4568842  90.5051957  31.0342075  41.7532182
  89.7494390  32.1016171  42.5156794  86.6763253  31.1062756  42.3930366
  86.3381765  30.9903820  41.5050901  87.5453021  30.7053921  42.3731372
  82.5350069  32.9598232  38.3827257  81.9714934  32.8688169  37.6143545
  82.4202464  32.1398136  38.8629750  87.1583036  32.2597607  48.3516572
  87.1471677  31.8650406  47.4797075  87.3203676  31.5263680  48.9450343
  88.1149628  36.6269200  33.6941722  87.4637607  37.2123280  33.3075736
  88.9093990  37.1575395  33.7536760  82.0405255  33.7158337  34.0928856
  82.8136131  33.1687324  33.9541732  82.3930654  34.5802586  34.3043318
  83.8790297  35.0434719  47.2995756  83.5880163  35.9480350  47.1842422
  84.5147282  35.0851247  48.0139825  84.8046504  32.4211568  43.8897115
  85.4010076  32.1967590  43.1754078  84.8621476  31.6796313  44.4922563
  84.3771532  29.8751003  31.7247306  84.6297053  29.3532524  30.9630769
  83.4396092  29.7117148  31.8273990  89.4214815  28.8786781  39.5322050
  90.2077905  28.4606204  39.1812467  89.6853520  29.7832873  39.7003698
  89.5924893  34.3159632  34.2310706  88.9570726  34.3894258  34.9431611
  89.2622299  34.9053230  33.5529786  94.8223242  28.8162014  40.4355028
  95.5548414  28.2461231  40.6692858  94.0662598  28.4283615  40.8761534
  84.0967821  31.7779109  33.9271681  83.9804079  31.1024012  34.5952766
  84.2070081  31.2911483  33.1103834  86.4399362  31.2389256  37.6318371
  86.0757569  30.7119877  38.3431292  87.2966478  30.8487725  37.4584856
  92.3448663  22.5283589  44.8949637  92.0131988  23.3979000  44.6710852
  91.7494276  22.2119873  45.5743667  86.0804849  26.2679156  32.6279719
  86.2479251  27.1359392  32.9950190  85.8902018  26.4306437  31.7041008
  88.8380182  34.7296135  44.2945549  88.5380905  35.6321173  44.1861357
  88.4931242  34.4628318  45.1466702  82.2892664  31.1809931  40.3282254
  81.3643160  31.0486146  40.5359946  82.5377077  31.9604151  40.8252196
  92.2377326  27.2478675  41.9742987  91.3294203  27.1794083  41.6801748
  92.1864922  27.7250620  42.8024812  86.0594070  28.7236813  33.6126386
  85.9393695  29.1693864  34.4511866  85.3646658  29.0722131  33.0539924
  86.3118192  28.6668320  49.9177884  85.5351526  29.2262240  49.9080749
  86.9508755  29.1525103  50.4392754  94.1038973  25.4495113  43.7520861
  93.4613353  25.7427646  43.1060655  93.5993901  25.3348033  44.5574057
  91.7579136  29.1958286  34.4406720  92.6696992  29.4285673  34.2654418
  91.2488783  29.7795331  33.8781799  84.5664564  31.4753774  49.4795851
  85.3079249  32.0138818  49.2030675  83.8601550  32.1020062  49.6367403
  90.0419904  33.6182914  48.0768013  90.4503260  33.1765325  47.3322645
  89.3197165  33.0435542  48.3302205  86.3950974  28.5555521  45.4501570
  87.2412169  28.9794934  45.5936219  86.3349612  27.8989145  46.1440133
  90.3648718  34.1784105  41.8320301  89.7357581  34.3429819  41.1296369
  89.9774381  34.5925714  42.6031265  94.2437950  35.1138543  39.1864665
  93.5588989  35.4937444  38.6361699  94.3281800  35.7233869  39.9196613
  89.5450419  26.2159889  47.1082743  89.3011351  26.9701950  46.5717019
  89.8210350  26.5945237  47.9429990  91.4988882  32.7598502  45.7860009
  91.7105777  33.4030262  45.1094390  91.4518630  31.9260818  45.3181939
  89.1015111  25.3716322  42.6896581  88.2399590  25.6697576  42.9813318
  89.1277546  25.5886721  41.7577614  85.9176680  33.9158513  39.0970387
  86.3815026  34.1946216  38.3075009  85.6533478  33.0141957  38.9143477
  82.8100761  33.4629994  42.0350150  83.3802118  33.8917263  41.3967634
  83.4008873  33.1812579  42.7334335  84.8545566  30.0381665  35.9059952
  85.5569610  30.4902709  36.3733878  84.5226195  29.3965484  36.5339845
  83.3025928  28.6293422  50.2811161  82.6724589  29.3109703  50.5146558
  83.1962016  28.5176503  49.3364299  78.5970900  28.2965218  41.2077085
  77.8069954  28.5522746  40.7317196  79.0882148  29.1113556  41.3129126
  92.6134710  35.6370457  43.9582366  93.4352154  35.2350644  43.6765048
  92.6097113  35.5338691  44.9098482  80.5485646  28.6609797  38.1660562
  79.7516809  28.7728491  38.6844058  80.3211238  28.9996449  37.3001452
  86.3791313  35.1854500  46.1143077  86.4435746  35.6474908  46.9501248
  85.6702237  34.5551865  46.2425386 100.7040703  31.9809206  40.3067338
  99.9504411  31.4116604  40.1511342 100.8388244  31.9471870  41.2537972
  86.0939331  36.8522608  35.9822057  85.9585006  37.6974144  36.4106905
  86.6349144  37.0541886  35.2187991  82.5806671  22.9314188  52.6436412
  82.1873616  22.3780386  53.3184056  83.3972811  23.2424766  53.0342930
  79.5468728  34.3698046  36.5549982  80.0593249  35.1641296  36.7055547
  80.1991441  33.6724336  36.4883583  81.3563613  37.4863802  38.6372735
  81.5330241  38.4081767  38.4493719  82.1520447  37.1722221  39.0667115
  85.4974632  24.3472067  50.2356669  86.2384345  24.9479220  50.1561131
  85.7292554  23.6049705  49.6774711  80.6415970  29.5328434  48.5134898
  80.5269485  28.6313691  48.8141997  79.7860487  29.7792131  48.1619715
  87.7207807  37.4746174  50.1122399  87.2771662  36.6882553  49.7943303
  88.3825021  37.6625325  49.4466290  89.8189045  37.7548974  48.1403800
  89.8007521  38.5757855  47.6484069  90.7408966  37.6303050  48.3653941
  86.2762100  35.2693104  48.9827309  86.8090436  34.5081392  48.7526617
  85.7476181  34.9766756  49.7251463  89.4431795  20.3753170  44.5120950
  89.0996064  21.2654811  44.4360061  89.8110757  20.1854827  43.6490535
  77.5117645  32.6986700  37.3309553  78.3492867  33.1083709  37.1143260
  77.6895913  31.7586142  37.3009746  89.4082077  30.3661781  33.0193385
  88.8928701  31.1366385  33.2581773  89.1359386  29.6926917  33.6426447
  86.9929188  25.2111482  38.0778624  86.1370785  24.8218332  37.8984263
  87.4056140  25.2903442  37.2178409  88.5228335  22.7457825  42.4770184
  88.0193131  22.7087960  41.6637989  88.8158942  23.6550568  42.5366840
  84.7671221  22.8296555  41.4836365  85.6324218  22.6339363  41.1242255
  84.8348730  22.6006906  42.4105722  94.3816351  33.1194136  34.9546559
  93.6045794  32.7805295  34.5101721  95.0607832  33.1246759  34.2801524
  89.1968380  28.2388873  34.8453167  88.8918516  28.5535022  35.6963310
  90.1498823  28.3170293  34.8880500  87.6414812  34.3979096  36.4946121
  87.1136174  33.6631856  36.1819358  87.1402315  35.1753773  36.2486089
  92.6207658  32.5928117  41.6113167  91.9631333  33.2827378  41.6993296
  93.4248058  32.9824549  41.9547153  82.3733540  25.0598763  38.8552732
  82.9477292  24.8373944  38.1225925  82.9604522  25.1287457  39.6081333
  91.4313117  30.9472489  39.6617109  91.9444999  31.5802481  40.1638818
  92.0814341  30.3473685  39.2960469  82.7003127  27.0903224  32.8748617
  81.8640439  27.4277910  33.1957892  82.5607897  26.9552203  31.9375754
  84.6756208  21.9340011  37.5827802  84.0220620  21.6189029  36.9584416
  84.6336682  21.3115752  38.3087625  85.7867413  32.2159307  29.4981094
  84.8794474  31.9848560  29.6972243  86.2838445  31.4196926  29.6855075
  88.6935491  40.9256814  32.4177780  88.0197190  41.2288510  33.0262738
  89.0801313  41.7285894  32.0683237  87.9093948  28.4221945  41.9075449
  86.9916509  28.6436892  41.7497137  88.3254092  28.4968255  41.0487157
  88.6928996  29.8213361  37.0378129  89.4400815  30.3334758  36.7285252
  88.9620585  29.4997413  37.8982523  86.9655646  32.3171901  34.0205084
  86.0566865  32.0330934  34.1177553  86.9950730  32.7370980  33.1608391
  92.1974913  35.9278491  37.7896251  91.7437240  35.0869401  37.8461442
  91.5668880  36.5639889  38.1271031  91.1407833  26.8570477  39.0196919
  90.4030590  26.3447863  39.3507161  91.3934606  26.4170859  38.2080196
  90.6407853  37.7654988  38.7246069  90.9330827  38.3260045  38.0058435
  91.1506473  38.0583549  39.4799229  91.2419460  19.6346729  39.6138688
  91.5478337  18.7744092  39.3264603  91.9672065  20.2264349  39.4137682
  77.5343816  30.0377416  38.0020286  77.3368216  29.4446776  37.2771353
  76.9790480  29.7329626  38.7196225  85.5140540  29.9300522  40.1214879
  85.5689150  28.9774358  40.0457356  84.7031742  30.0859961  40.6056178
  86.6631734  33.8580645  31.3593162  86.2251164  33.1416504  30.8998800
  87.4042175  34.0856760  30.7978254  83.4532900  28.5477582  37.8805258
  82.6400765  28.8471752  38.2870450  83.9491894  28.1533271  38.5979740
  85.6041478  38.5435339  39.8139523  85.5617657  38.7696185  38.8848055
  86.5204177  38.3098713  39.9625324  89.0507112  29.0119406  46.7120152
  89.4056499  29.2390879  47.5714618  89.6979243  29.3437783  46.0897407
  94.7804849  32.1337842  37.4169481  94.6422747  32.3239438  36.4890670
  94.4241067  32.8957225  37.8737532  82.9446975  26.1195937  43.4966493
  83.5846354  25.9784696  42.7989456  82.1124505  25.8330451  43.1205095
  94.8074228  34.2014369  42.4280752  95.2410735  34.1089658  43.2763806
  95.5205809  34.1771870  41.7900768  83.7207279  35.4198368  39.6101485
  84.5147877  34.9248688  39.4084060  83.0098971  34.8916231  39.2469191
  88.5402123  37.8016463  43.9613853  88.5939145  38.3707400  44.7291569
  87.6716904  37.9718348  43.5967890  80.0290042  29.5641449  35.6861238
  79.0987630  29.5025905  35.9031200  80.1247514  29.0417402  34.8897879
  79.9475591  26.0896262  38.2739480  80.2082408  27.0041596  38.1648640
  80.7692763  25.6220705  38.4236093  81.4200516  27.5034019  45.4438304
  82.0923570  27.2951382  44.7950953  80.5930303  27.3056105  45.0043537
  95.6689778  34.2438070  44.9613638  95.8625668  35.1483880  45.2072913
  95.5690396  33.7845489  45.7952223  87.3226088  24.1295960  47.4603965
  86.6754003  24.8285910  47.3668442  88.0927104  24.5632104  47.8280213
  90.7304886  34.3944813  50.5354518  90.5790393  34.1655364  49.6184602
  90.7209566  35.3515414  50.5485863  87.4990223  31.9676725  45.5200785
  88.4282283  32.1187885  45.3469752  87.0781253  32.0560746  44.6649431
  86.2978555  35.9927390  43.2899322  86.1589640  35.6246174  44.1625261
  85.5093151  36.5075029  43.1183280  86.8926707  41.0936486  34.6324859
  87.0678462  40.6224529  35.4470482  86.2059495  41.7202252  34.8606120
  87.8483770  35.3708992  40.6788160  87.5133602  35.3309762  41.5745810
  87.3487715  34.7053708  40.2058570  81.8228014  30.7776622  46.2040741
  81.6847812  30.0456861  46.8052280  82.7332937  30.6885523  45.9224929
  90.7842961  32.7165027  30.9525220  90.1672132  31.9911855  30.8558273
  90.3159450  33.4774387  30.6092294  84.4510314  30.4896582  45.6924421
  85.1609933  29.8489774  45.6511039  84.4079623  30.7409477  46.6150602
  92.4397093  37.4263935  48.6131000  92.3809639  36.7423155  47.9461583
  92.8416611  38.1682925  48.1611626  83.1639248  27.4761800  47.5120061
  82.6276605  27.0252538  48.1641657  82.5755957  27.6107708  46.7690525
  82.5741507  26.9350451  30.0746524  81.6970974  26.8139252  29.7108771
  83.0499260  26.1436529  29.8225413  92.4414500  35.3903519  46.8444980
  91.5541279  35.0529441  46.9671379  93.0113051  34.6586550  47.0813745
  78.8978370  26.6117807  44.5973055  78.8136558  26.0043477  43.8623465
  78.0761076  27.1026826  44.5982551  85.9715654  40.0504971  43.8106223
  85.8985825  40.8559943  44.3225528  85.5293047  40.2496937  42.9854245
  85.7605433  39.2876741  37.3209045  84.9772955  39.8298422  37.4147269
  86.4598178  39.8050721  37.7203286  89.0702083  25.0971371  39.9643250
  89.5670783  24.3441333  39.6444320  88.2989065  25.1335687  39.3986459
  96.9231841  30.8011736  41.6061542  96.9121717  31.6836452  41.2355475
  96.0549220  30.4483287  41.4116079  88.4314337  39.9491805  45.9664382
  89.1442309  40.5839270  45.8940283  87.9404366  40.0455671  45.1504384
  90.1531864  33.8543058  37.5381673  89.2188143  33.9744521  37.3686378
  90.3308533  32.9515525  37.2741683  85.6537052  27.2388754  39.6914935
  85.2834840  26.6859794  40.3795840  86.1496145  26.6346887  39.1389935
  93.5404415  29.6960377  38.0731708  94.0064868  30.5288369  37.9992010
  93.9911916  29.2305359  38.7776966  83.4826251  37.6986249  46.7869953
  84.1835710  38.3322732  46.9399347  83.0121366  38.0400980  46.0265592
  91.6080647  36.0404199  35.0717860  91.8840490  35.9260793  35.9811734
  90.7385145  35.6421683  35.0330033  91.5121078  22.0640964  42.1122609
  90.5984158  22.2945191  42.2804816  91.9414180  22.1479408  42.9636641
  91.2827537  30.2530856  44.6122503  90.6298987  30.5006764  43.9574956
  91.6607917  29.4394994  44.2784980  88.2434711  40.2890549  38.7150673
  88.4257105  39.4712205  39.1778426  89.0667697  40.5058242  38.2775563
  88.5776876  39.2158735  35.9765722  89.1064643  38.7051189  35.3635884
  88.8405096  38.9001265  36.8411255  87.3315110  30.9950667  51.0988540
  86.6555747  30.8944797  51.7690915  88.1542744  30.8389881  51.5624537
  86.0737893  42.3017595  45.3346156  86.6256201  42.4649216  46.0995241
  86.4144086  42.8922033  44.6626181  81.0502386  24.6492745  45.9368041
  81.1143712  25.5107576  45.5245438  80.9869506  24.0366746  45.2040399
  80.5254658  26.7215877  49.5841075  81.1526697  26.3392954  50.1978599
  79.6682577  26.5030079  49.9496768  90.9248767  37.1278852  51.1894810
  91.4688671  37.7408811  50.6949765  90.3435612  37.6858431  51.7061823
  77.3020201  28.5292306  35.5159430  77.5973642  27.6202985  35.4626484
  76.4008237  28.5080046  35.1940432  89.2106280  40.2499570  42.3209838
  89.0857419  39.4489310  41.8120784  89.8685371  40.7445764  41.8323808
  80.8314448  26.6048303  41.4986978  80.1101034  27.2184271  41.3594452
  81.6207704  27.1406068  41.4203624  91.2741188  38.0508590  43.9489388
  90.3271524  37.9313942  43.8767715  91.6223961  37.1631088  44.0315650
  83.6340762  23.9402729  47.7727630  84.1575163  24.1865026  48.5353940
  83.4153095  24.7722764  47.3530768  79.0308043  26.2106404  35.6398755
  78.7020749  25.3303783  35.4573861  79.3847413  26.1554073  36.5275144
  88.2787622  37.8461307  40.1493741  88.1312584  36.9178014  40.3301311
  89.1041115  37.8681397  39.6650816  82.1449866  26.4979374  36.0074233
  82.4845938  27.0265295  35.2852841  82.5921986  26.8359780  36.7832799
  91.8821743  38.6689865  41.2358613  92.8068291  38.4632727  41.0983064
  91.7137047  38.4206267  42.1447955  84.8393307  24.8816424  45.4577301
  84.4990127  24.0824238  45.8597981  84.1332313  25.1818135  44.8854134
  85.4909779  21.9665737  43.9104624  86.3135848  21.4926215  43.7883514
  85.7347842  22.7456221  44.4103310  84.1318013  24.9953995  34.2067525
  84.8526376  25.3735248  33.7031242  83.5083317  25.7142872  34.3102503
  88.2749136  25.6999144  35.1425858  88.4912750  26.5823782  34.8414686
  87.7943203  25.3085358  34.4131500  83.0148357  28.6584858  41.7196602
  82.8692938  28.9725161  42.6120884  82.5373561  29.2769758  41.1667501
  84.8744740  25.6487405  41.7677492  84.8606309  24.7528499  41.4309790
  85.5917168  25.6558069  42.4015778  86.7270871  26.0824746  43.8130619
  86.4688649  27.0041816  43.8114950  86.1955911  25.6855180  44.5031083
  91.6717060  39.1875533  36.5920705  91.8453937  38.6221955  35.8394557
  92.1645951  39.9876428  36.4100195  84.2781636  24.5301786  37.0365062
  84.3997547  23.6018432  37.2355950  83.9883678  24.5440472  36.1243377
  87.1472826  22.2156696  40.1731782  87.1694523  22.2796029  39.2183761
  87.5640885  21.3761205  40.3672288  97.5256451  31.9511956  38.2111004
  97.9687597  31.2019281  37.8130128  96.6482961  31.9422092  37.8284736
  92.6592232  38.5042297  33.6917603  93.3543137  39.1248990  33.9104918
  93.0015382  37.6537648  33.9669981  94.5583655  35.9542003  35.2204934
  95.0834979  36.2929276  34.4954254  94.4706008  35.0189018  35.0368068
  86.2203704  39.8676076  47.3494810  86.5290830  39.6225223  48.2217510
  87.0179186  40.0722715  46.8613681  86.2424316  42.0213986  39.5800187
  85.8029306  41.5290365  40.2733044  86.9932433  41.4786954  39.3392262
  83.6898188  37.5651995  41.6522489  83.0678197  36.9022700  41.3524717
  84.3603055  37.5913127  40.9696136  83.7622716  26.0433783  51.2454995
  83.8110871  26.9195906  50.8632764  84.3045230  25.5011176  50.6726638
  94.2477561  36.5874906  50.5256132  93.4573105  36.5699045  49.9860631
  94.0110916  37.1263200  51.2805168  94.3675436  33.4367373  47.8388860
  94.4173441  33.2717380  48.7804383  94.2589360  32.5694632  47.4486741
  83.2511695  36.1155918  35.1280949  83.3999815  36.7991383  34.4747622
  84.0578139  36.0961009  35.6430405  91.6579199  29.4198301  49.1548167
  92.5589062  29.2804766  48.8632165  91.7327173  29.5852756  50.0946344
  85.9922004  26.7965156  48.0001353  85.1225313  27.0898722  47.7283942
  86.2281484  27.3805601  48.7208617  95.8693633  35.8564314  48.0830882
  95.5778441  36.2194295  48.9194343  95.2565764  35.1431323  47.9044214
  97.0689315  33.4217194  40.6033452  97.9036207  33.8606998  40.7671012
  97.2048444  32.9455847  39.7841698  94.1180821  30.9796929  46.5510940
  94.5934943  31.1724575  45.7429791  93.1946387  31.0356115  46.3054323
  81.0064328  32.1421096  36.1342018  80.7610370  31.2383426  36.3322228
  81.1760243  32.1438247  35.1921496  88.6961038  23.0144772  45.5166774
  89.2142982  23.7505799  45.1913262  88.3416171  23.3208766  46.3513533
  80.2759976  27.8749454  33.6328180  79.5829221  27.9493809  32.9768216
  80.0311727  27.1109797  34.1549696  88.9473632  19.4345055  41.0367670
  89.2275386  18.7668244  41.6628097  89.7324239  19.6274151  40.5242334
  86.7507101  38.6104049  32.5992697  86.1781068  39.2294236  32.1463168
  87.3239894  39.1603411  33.1332619  92.8182490  27.8562689  44.7839245
  93.7699913  27.9560787  44.8051469  92.6485941  27.0640958  45.2937330
  90.8396870  24.9418272  44.9698646  90.2446802  25.2223285  44.2745135
  90.5546567  25.4312173  45.7415387  89.9704360  38.8941199  33.7301279
  90.9035034  38.8286761  33.9334154  89.8827573  39.7297466  33.2715812
  92.5992377  38.2107069  30.6905226  92.5206009  37.8766933  31.5840984
  93.4202044  38.7028837  30.6896699  95.2970568  31.0768809  43.8981545
  95.2646888  30.1384809  44.0841229  95.9071192  31.1552845  43.1647370
  87.1353899  29.9464862  29.9408749  88.0813004  29.8171070  30.0097167
  86.7568144  29.2079524  30.4178177  95.4465057  27.8679852  43.9439828
  94.9304105  27.0838309  43.7569757  96.3305005  27.5398569  44.1086348
  93.1075784  21.6120868  39.9035641  92.9100605  21.3035956  40.7878973
  93.7175489  22.3382507  40.0333571 101.1147118  32.1384816  43.0387582
 101.8450507  31.8770104  43.5995285 100.5054064  31.4013537  43.0789650
  99.1962415  30.2792678  43.6362033  98.4695579  30.1448643  43.0278525
  98.7809702  30.5869507  44.4418751  87.0192592  33.9982608  51.4009406
  87.9395601  34.1761207  51.5949453  86.9842175  33.0538653  51.2489105
  85.3196816  27.8714838  29.8763634  84.4128272  27.5747951  29.9526348
  85.5972797  27.5744656  29.0097921  86.9358882  22.4151728  36.0307876
  86.1259610  22.0698813  36.4063122  87.6243299  22.1059271  36.6195487
  88.8649430  21.4929775  37.6532172  89.4180469  21.9125228  38.3122195
  89.1019517  20.5665523  37.6955128  84.8882529  27.4816848  53.4334936
  84.7879256  28.4311205  53.3647027  84.6704072  27.1535087  52.5611006
  84.0895601  24.7301773  30.0175614  84.9514765  25.0556672  30.2771431
  84.2745945  23.9433269  29.5048679  92.2428237  23.6030300  37.1610837
  91.6626906  24.2615104  36.7788889  91.9764170  22.7807644  36.7498254
  90.6931804  23.0035357  39.3632157  91.1931582  23.1151892  38.5546476
  91.3367412  22.6996410  40.0032965  84.7513800  30.9113987  52.2499998
  84.2680881  31.7114347  52.4563887  84.8374739  30.9221932  51.2967442
  81.2686519  33.3719638  46.8539229  82.0879408  33.8663716  46.8774067
  81.5423327  32.4551606  46.8256797  91.0253115  25.7630390  36.2167185
  90.1378970  26.0480041  35.9987380  91.4407104  25.6024153  35.3694462
  94.3767651  25.7876911  39.9321524  95.1528042  26.2773364  40.2046141
  93.6515786  26.2134965  40.3893394  96.8140210  26.5004530  40.9895465
  97.4084701  26.2600266  40.2788773  96.8866794  25.7811661  41.6169001
  90.1696329  35.5275065  30.3115205  90.8732179  35.7325067  30.9272860
  89.4458978  36.0951827  30.5764288  90.9994139  31.2784926  36.4317475
  90.9429340  31.7353477  35.5925107  91.5522482  30.5175611  36.2540318
  94.8098945  27.0674658  37.2567594  94.5535879  26.6671294  38.0875802
  94.1851813  27.7818452  37.1317734  99.1211283  29.8070731  39.7638886
  98.5610841  29.8763920  40.5370448  98.5154786  29.6311716  39.0438382
  92.0783026  35.9657594  32.3613665  92.9128630  35.5338792  32.1791140
  91.9167369  35.7939608  33.2890559  91.7328918  32.4689707  33.7270004
  91.6777722  32.3033979  32.7858448  91.1074974  33.1765740  33.8832194
  76.5221433  27.7057772  47.5531426  77.1680297  27.1956726  48.0418652
  76.3138585  28.4426453  48.1274852  89.0474826  34.7738619  53.0523567
  89.9165985  34.9479271  52.6910202  88.5681577  35.5933036  52.9299296
  85.0425044  21.9697816  33.3055323  85.0303714  22.9139656  33.4623593
  85.9348466  21.7867962  33.0114784  84.9714608  40.6466707  41.3923079
  84.0210239  40.6468568  41.2787451  85.2747094  39.8999441  40.8759114
  88.8577163  18.5640593  37.5601259  88.0909559  18.0099080  37.7057942
  89.2687868  18.6362462  38.4215411  80.8618924  24.8525389  51.6506441
  81.7250386  24.4962194  51.8609765  80.2884335  24.5139284  52.3381845
 100.7067301  46.4827245  42.4568842 101.3445711  46.3633992  41.7532182
 100.5888144  47.4308089  42.5156794  97.5157008  46.4354673  42.3930366
  97.1775519  46.3195738  41.5050901  98.3846776  46.0345838  42.3731372
  93.3743823  48.2890150  38.3827257  92.8108688  48.1980087  37.6143545
  93.2596218  47.4690054  38.8629750  97.9976791  47.5889525  48.3516572
  97.9865431  47.1942323  47.4797075  98.1597430  46.8555598  48.9450343
  90.9208255  49.7841341  41.2211478  91.7129547  49.4432166  40.8057777
  91.1604905  49.8936316  42.1413631  98.9543382  51.9561117  33.6941722
  98.3031362  52.5415198  33.3075736  99.7487745  52.4867312  33.7536760
  92.8799009  49.0450254  34.0928856  93.6529885  48.4979242  33.9541732
  93.2324408  49.9094504  34.3043318  94.7184052  50.3726637  47.2995756
  94.4273918  51.2772268  47.1842422  95.3541036  50.4143164  48.0139825
  95.6440259  47.7503485  43.8897115  96.2403831  47.5259508  43.1754078
  95.7015230  47.0088231  44.4922563  95.2165287  45.2042921  31.7247306
  95.4690808  44.6824442  30.9630769  94.2789846  45.0409066  31.8273990
 100.2608570  44.2078699  39.5322050 101.0471659  43.7898122  39.1812467
 100.5247274  45.1124791  39.7003698 100.4318647  49.6451549  34.2310706
  99.7964480  49.7186176  34.9431611 100.1016054  50.2345148  33.5529786
 105.6616997  44.1453932  40.4355028 106.3942169  43.5753149  40.6692858
 104.9056353  43.7575533  40.8761534  94.9361576  47.1071027  33.9271681
  94.8197834  46.4315930  34.5952766  95.0463836  46.6203400  33.1103834
  97.2793117  46.5681174  37.6318371  96.9151324  46.0411795  38.3431292
  98.1360233  46.1779643  37.4584856 103.1842417  37.8575506  44.8949637
 102.8525742  38.7270917  44.6710852 102.5888031  37.5411790  45.5743667
  96.9198604  41.5971073  32.6279719  97.0873006  42.4651310  32.9950190
  96.7295773  41.7598355  31.7041008  99.6773937  50.0588052  44.2945549
  99.3774660  50.9613091  44.1861357  99.3324996  49.7920235  45.1466702
  93.1286418  46.5101849  40.3282254  92.2036915  46.3778063  40.5359946
  93.3770831  47.2896068  40.8252196 103.0771081  42.5770592  41.9742987
 102.1687958  42.5086001  41.6801748 103.0258676  43.0542537  42.8024812
  96.8987825  44.0528731  33.6126386  96.7787450  44.4985782  34.4511866
  96.2040413  44.4014049  33.0539924  90.4895229  46.1535123  41.1626043
  90.6187610  46.4069602  42.0765455  89.8092681  46.7462831  40.8430698
  94.6594717  56.8232373  37.2616517  94.5818746  57.7740198  37.3404998
  94.0556360  56.4778245  37.9191443  97.1511946  43.9960238  49.9177884
  96.3745280  44.5554158  49.9080749  97.7902509  44.4817021  50.4392754
 104.9432727  40.7787031  43.7520861 104.3007107  41.0719564  43.1060655
 104.4387656  40.6639951  44.5574057 102.5972891  44.5250204  34.4406720
 103.5090747  44.7577591  34.2654418 102.0882538  45.1087248  33.8781799
  95.4058319  46.8045691  49.4795851  96.1473003  47.3430735  49.2030675
  94.6995304  47.4311980  49.6367403 100.8813658  48.9474832  48.0768013
 101.2897014  48.5057242  47.3322645 100.1590920  48.3727459  48.3302205
  97.2344728  43.8847439  45.4501570  98.0805924  44.3086852  45.5936219
  97.1743366  43.2281063  46.1440133 101.2042473  49.5076022  41.8320301
 100.5751335  49.6721737  41.1296369 100.8168135  49.9217632  42.6031265
 105.0831705  50.4430460  39.1864665 104.3982743  50.8229362  38.6361699
 105.1675554  51.0525787  39.9196613 100.3844174  41.5451807  47.1082743
 100.1405106  42.2993867  46.5717019 100.6604104  41.9237155  47.9429990
 102.3382636  48.0890419  45.7860009 102.5499532  48.7322179  45.1094390
 102.2912385  47.2552736  45.3181939  99.9408865  40.7008240  42.6896581
  99.0793344  40.9989494  42.9813318  99.9671300  40.9178639  41.7577614
  96.7570435  49.2450431  39.0970387  97.2208780  49.5238134  38.3075009
  96.4927233  48.3433875  38.9143477  93.6494516  48.7921912  42.0350150
  94.2195873  49.2209180  41.3967634  94.2402628  48.5104497  42.7334335
  95.6939321  45.3673583  35.9059952  96.3963364  45.8194627  36.3733878
  95.3619949  44.7257402  36.5339845  94.1419682  43.9585340  50.2811161
  93.5118343  44.6401620  50.5146558  94.0355770  43.8468421  49.3364299
  89.4364655  43.6257136  41.2077085  88.6463709  43.8814664  40.7317196
  89.9275902  44.4405473  41.3129126 103.4528464  50.9662375  43.9582366
 104.2745908  50.5642562  43.6765048 103.4490867  50.8630609  44.9098482
  91.3879400  43.9901715  38.1660562  90.5910564  44.1020409  38.6844058
  91.1604992  44.3288367  37.3001452  97.2185068  50.5146418  46.1143077
  97.2829500  50.9766825  46.9501248  96.5095992  49.8843783  46.2425386
  87.7202358  43.8787626  43.6392076  87.9710396  44.7634636  43.9049652
  88.2561906  43.6992228  42.8667168  96.9333086  52.1814526  35.9822057
  96.7978760  53.0266061  36.4106905  97.4742898  52.3833803  35.2187991
  93.4200425  38.2606105  52.6436412  93.0267371  37.7072304  53.3184056
  94.2366565  38.5716684  53.0342930  90.3862483  49.6989964  36.5549982
  90.8987003  50.4933214  36.7055547  91.0385196  49.0016254  36.4883583
  92.1957368  52.8155720  38.6372735  92.3723996  53.7373685  38.4493719
  92.9914201  52.5014139  39.0667115  96.3368386  39.6763984  50.2356669
  97.0778100  40.2771138  50.1561131  96.5686309  38.9341622  49.6774711
  91.4809724  44.8620352  48.5134898  91.3663239  43.9605609  48.8141997
  90.6254242  45.1084049  48.1619715  98.5601562  52.8038092  50.1122399
  98.1165416  52.0174471  49.7943303  99.2218775  52.9917243  49.4466290
  93.3188683  54.3333894  44.6383077  93.8696108  54.2050957  43.8660071
  92.4800159  54.6328783  44.2877970 100.6582800  53.0840892  48.1403800
 100.6401275  53.9049773  47.6484069 101.5802720  52.9594967  48.3653941
  97.1155854  50.5985021  48.9827309  97.6484191  49.8373310  48.7526617
  96.5869935  50.3058673  49.7251463 100.2825549  35.7045087  44.5120950
  99.9389818  36.5946729  44.4360061 100.6504512  35.5146745  43.6490535
  88.3511400  48.0278618  37.3309553  89.1886622  48.4375626  37.1143260
  88.5289667  47.0878060  37.3009746 100.2475832  45.6953699  33.0193385
  99.7322455  46.4658303  33.2581773  99.9753140  45.0218835  33.6426447
  97.8322943  40.5403399  38.0778624  96.9764539  40.1510250  37.8984263
  98.2449895  40.6195360  37.2178409  99.3622089  38.0749743  42.4770184
  98.8586885  38.0379878  41.6637989  99.6552696  38.9842485  42.5366840
  95.6064975  38.1588472  41.4836365  96.4717972  37.9631281  41.1242255
  95.6742484  37.9298824  42.4105722 105.2210106  48.4486053  34.9546559
 104.4439549  48.1097213  34.5101721 105.9001587  48.4538676  34.2801524
 100.0362135  43.5680791  34.8453167  99.7312271  43.8826940  35.6963310
 100.9892577  43.6462211  34.8880500  98.4808567  49.7271014  36.4946121
  97.9529928  48.9923774  36.1819358  97.9796070  50.5045690  36.2486089
 103.4601413  47.9220034  41.6113167 102.8025087  48.6119296  41.6993296
 104.2641812  48.3116466  41.9547153  93.2127294  40.3890680  38.8552732
  93.7871046  40.1665862  38.1225925  93.7998277  40.4579375  39.6081333
 102.2706872  46.2764407  39.6617109 102.7838753  46.9094399  40.1638818
 102.9208096  45.6765603  39.2960469  93.5396882  42.4195141  32.8748617
  92.7034194  42.7569828  33.1957892  93.4001651  42.2844121  31.9375754
  95.5149962  37.2631929  37.5827802  94.8614374  36.9480946  36.9584416
  95.4730436  36.6407670  38.3087625  96.6261167  47.5451224  29.4981094
  95.7188229  47.3140478  29.6972243  97.1232199  46.7488843  29.6855075
  99.5329246  56.2548731  32.4177780  98.8590945  56.5580428  33.0262738
  99.9195068  57.0577812  32.0683237  98.7487703  43.7513863  41.9075449
  97.8310264  43.9728810  41.7497137  99.1647846  43.8260173  41.0487157
  99.5322750  45.1505278  37.0378129 100.2794569  45.6626676  36.7285252
  99.8014340  44.8289331  37.8982523  97.8049400  47.6463819  34.0205084
  96.8960620  47.3622852  34.1177553  97.8344484  48.0662898  33.1608391
 103.0368668  51.2570409  37.7896251 102.5830995  50.4161318  37.8461442
 102.4062635  51.8931807  38.1271031 101.9801587  42.1862395  39.0196919
 101.2424344  41.6739781  39.3507161 102.2328361  41.7462776  38.2080196
 101.4801607  53.0946905  38.7246069 101.7724581  53.6551962  38.0058435
 101.9900228  53.3875466  39.4799229 102.0813215  34.9638647  39.6138688
 102.3872092  34.1036010  39.3264603 102.8065820  35.5556267  39.4137682
  88.3737571  45.3669333  38.0020286  88.1761971  44.7738694  37.2771353
  87.8184235  45.0621543  38.7196225  96.3534294  45.2592440  40.1214879
  96.4082904  44.3066276  40.0457356  95.5425497  45.4151879  40.6056178
  97.5025488  49.1872563  31.3593162  97.0644918  48.4708422  30.8998800
  98.2435929  49.4148678  30.7978254  94.2926654  43.8769499  37.8805258
  93.4794520  44.1763670  38.2870450  94.7885649  43.4825188  38.5979740
  96.4435232  53.8727256  39.8139523  96.4011411  54.0988103  38.8848055
  97.3597931  53.6390631  39.9625324  99.8900866  44.3411324  46.7120152
 100.2450254  44.5682797  47.5714618 100.5372997  44.6729701  46.0897407
 105.6198603  47.4629760  37.4169481 105.4816502  47.6531356  36.4890670
 105.2634822  48.2249143  37.8737532  93.7840729  41.4487855  43.4966493
  94.4240108  41.3076614  42.7989456  92.9518260  41.1622368  43.1205095
 105.6467983  49.5306287  42.4280752 106.0804489  49.4381576  43.2763806
 106.3599563  49.5063787  41.7900768  94.5601033  50.7490285  39.6101485
  95.3541632  50.2540606  39.4084060  93.8492725  50.2208148  39.2469191
  99.3795878  53.1308381  43.9613853  99.4332900  53.6999317  44.7291569
  98.5110659  53.3010266  43.5967890  90.8683797  44.8933367  35.6861238
  89.9381385  44.8317823  35.9031200  90.9641269  44.3709320  34.8897879
  90.7869346  41.4188180  38.2739480  91.0476163  42.3333513  38.1648640
  91.6086518  40.9512623  38.4236093  92.2594271  42.8325937  45.4438304
  92.9317324  42.6243299  44.7950953  91.4324057  42.6348023  45.0043537
 106.5083532  49.5729987  44.9613638 106.7019422  50.4775798  45.2072913
 106.4084150  49.1137407  45.7952223  98.1619843  39.4587878  47.4603965
  97.5147758  40.1577828  47.3668442  98.9320858  39.8924022  47.8280213
 101.5698641  49.7236730  50.5354518 101.4184147  49.4947282  49.6184602
 101.5603320  50.6807332  50.5485863  98.3383977  47.2968643  45.5200785
  99.2676037  47.4479803  45.3469752  97.9175007  47.3852664  44.6649431
  97.1372309  51.3219307  43.2899322  96.9983395  50.9538092  44.1625261
  96.3486905  51.8366947  43.1183280  97.7320461  56.4228404  34.6324859
  97.9072217  55.9516447  35.4470482  97.0453249  57.0494170  34.8606120
  98.6877524  50.7000910  40.6788160  98.3527357  50.6601680  41.5745810
  98.1881470  50.0345626  40.2058570  92.6621768  46.1068540  46.2040741
  92.5241566  45.3748779  46.8052280  93.5726692  46.0177440  45.9224929
 101.6236716  48.0456944  30.9525220 101.0065886  47.3203773  30.8558273
 101.1553204  48.8066305  30.6092294  95.2904069  45.8188499  45.6924421
  96.0003687  45.1781692  45.6511039  95.2473377  46.0701394  46.6150602
 103.2790848  52.7555853  48.6131000 103.2203394  52.0715073  47.9461583
 103.6810366  53.4974843  48.1611626  94.0033003  42.8053717  47.5120061
  93.4670360  42.3544456  48.1641657  93.4149711  42.9399626  46.7690525
  92.2981546  59.5717767  41.4064719  92.5378145  60.2036291  42.0843738
  91.4550743  59.2205807  41.6930078  93.4135262  42.2642369  30.0746524
  92.5364728  42.1431169  29.7108771  93.8893015  41.4728447  29.8225413
 103.2808255  50.7195437  46.8444980 102.3935034  50.3821358  46.9671379
 103.8506806  49.9878468  47.0813745  89.7372124  41.9409725  44.5973055
  89.6530313  41.3335395  43.8623465  88.9154830  42.4318743  44.5982551
  96.8109408  55.3796889  43.8106223  96.7379580  56.1851861  44.3225528
  96.3686801  55.5788855  42.9854245  96.5999188  54.6168659  37.3209045
  95.8166710  55.1590339  37.4147269  97.2991933  55.1342639  37.7203286
  99.9095838  40.4263289  39.9643250 100.4064537  39.6733251  39.6444320
  99.1382819  40.4627605  39.3986459 107.7625595  46.1303654  41.6061542
 107.7515472  47.0128369  41.2355475 106.8942975  45.7775205  41.4116079
  99.2708092  55.2783723  45.9664382  99.9836064  55.9131188  45.8940283
  98.7798120  55.3747589  45.1504384 100.9925619  49.1834976  37.5381673
 100.0581897  49.3036438  37.3686378 101.1702287  48.2807443  37.2741683
  96.4930807  42.5680672  39.6914935  96.1228594  42.0151712  40.3795840
  96.9889899  41.9638805  39.1389935 104.3798170  45.0252295  38.0731708
 104.8458622  45.8580287  37.9992010 104.8305670  44.5597277  38.7776966
  94.3220005  53.0278167  46.7869953  95.0229465  53.6614649  46.9399347
  93.8515120  53.3692898  46.0265592 102.4474401  51.3696116  35.0717860
 102.7234245  51.2552711  35.9811734 101.5778900  50.9713601  35.0330033
 102.3514833  37.3932882  42.1122609 101.4377913  37.6237109  42.2804816
 102.7807934  37.4771326  42.9636641 102.1221291  45.5822774  44.6122503
 101.4692741  45.8298681  43.9574956 102.5001671  44.7686912  44.2784980
  99.0828465  55.6182467  38.7150673  99.2650860  54.8004123  39.1778426
  99.9061451  55.8350159  38.2775563  99.4170631  54.5450652  35.9765722
  99.9458397  54.0343107  35.3635884  99.6798850  54.2293182  36.8411255
  98.1708864  46.3242585  51.0988540  97.4949501  46.2236714  51.7690915
  98.9936498  46.1681799  51.5624537  89.9187723  52.5614522  43.7201055
  90.5041160  51.8158209  43.8528960  89.7212562  52.8718478  44.6037719
  92.7726379  55.5965769  38.7363498  92.1036754  56.0811897  38.2527538
  92.6339248  55.8434989  39.6506876  84.5105378  45.1320122  42.4405498
  84.5489478  44.5983712  43.2342617  84.0045671  44.6055327  41.8216476
  96.9131647  57.6309512  45.3346156  97.4649955  57.7941134  46.0995241
  97.2537841  58.2213950  44.6626181  91.8896140  39.9784662  45.9368041
  91.9537467  40.8399493  45.5245438  91.8263261  39.3658664  45.2040399
  91.3648413  42.0507795  49.5841075  91.9920452  41.6684872  50.1978599
  90.5076332  41.8321997  49.9496768 101.7642521  52.4570770  51.1894810
 102.3082425  53.0700728  50.6949765 101.1829366  53.0150348  51.7061823
  88.1413956  43.8584224  35.5159430  88.4367397  42.9494902  35.4626484
  87.2401991  43.8371963  35.1940432 100.0500034  55.5791488  42.3209838
  99.9251174  54.7781228  41.8120784 100.7079125  56.0737681  41.8323808
  91.6708203  41.9340221  41.4986978  90.9494788  42.5476188  41.3594452
  92.4601458  42.4697985  41.4203624 102.1134943  53.3800508  43.9489388
 101.1665278  53.2605859  43.8767715 102.4617716  52.4923006  44.0315650
  94.4734516  39.2694647  47.7727630  94.9968918  39.5156944  48.5353940
  94.2546849  40.1014682  47.3530768  89.8701797  41.5398322  35.6398755
  89.5414503  40.6595701  35.4573861  90.2241168  41.4845990  36.5275144
  99.1181376  53.1753224  40.1493741  98.9706338  52.2469932  40.3301311
  99.9434870  53.1973315  39.6650816  92.9843620  41.8271291  36.0074233
  93.3239693  42.3557213  35.2852841  93.4315741  42.1651698  36.7832799
 102.7215498  53.9981783  41.2358613 103.6462045  53.7924644  41.0983064
 102.5530801  53.7498184  42.1447955  95.6787061  40.2108342  45.4577301
  95.3383882  39.4116155  45.8597981  94.9726067  40.5110053  44.8854134
  96.3303533  37.2957655  43.9104624  97.1529602  36.8218133  43.7883514
  96.5741597  38.0748138  44.4103310  94.9711768  40.3245913  34.2067525
  95.6920130  40.7027166  33.7031242  94.3477072  41.0434790  34.3102503
  99.1142890  41.0291062  35.1425858  99.3306505  41.9115700  34.8414686
  98.6336958  40.6377275  34.4131500  93.8542112  43.9876775  41.7196602
  93.7086692  44.3017078  42.6120884  93.3767315  44.6061676  41.1667501
  95.7138495  40.9779323  41.7677492  95.7000063  40.0820416  41.4309790
  96.4310923  40.9849987  42.4015778  97.5664625  41.4116663  43.8130619
  97.3082403  42.3333734  43.8114950  97.0349666  41.0147098  44.5031083
 102.5110814  54.5167450  36.5920705 102.6847692  53.9513873  35.8394557
 103.0039705  55.3168345  36.4100195  88.3287774  46.5282120  44.6584264
  87.7841242  47.3041928  44.7904538  89.2067124  46.8752924  44.5003385
  95.1175391  39.8593703  37.0365062  95.2391302  38.9310350  37.2355950
  94.8277433  39.8732389  36.1243377  97.9866581  37.5448614  40.1731782
  98.0088278  37.6087947  39.2183761  98.4034640  36.7053123  40.3672288
 103.4985987  53.8334215  33.6917603 104.1936891  54.4540908  33.9104918
 103.8409137  52.9829566  33.9669981  89.1153796  45.6552016  47.5514420
  88.3735532  45.8034651  48.1379051  88.7946540  45.9160281  46.6881170
 105.3977410  51.2833920  35.2204934 105.9228734  51.6221193  34.4954254
 105.3099762  50.3480936  35.0368068  97.0597458  55.1967994  47.3494810
  97.3684585  54.9517141  48.2217510  97.8572940  55.4014633  46.8613681
  97.0818070  57.3505904  39.5800187  96.6423061  56.8582282  40.2733044
  97.8326187  56.8078871  39.3392262  89.5610409  53.5417445  39.5824815
  90.3868429  53.2421216  39.2023459  89.2104461  52.7725067  40.0314604
  94.5291943  52.8943913  41.6522489  93.9071952  52.2314618  41.3524717
  95.1996810  52.9205045  40.9696136  87.7619015  51.4603771  40.5413749
  86.9250923  51.0325945  40.3597750  87.7342660  51.6536214  41.4784540
  94.6016470  41.3725701  51.2454995  94.6504626  42.2487824  50.8632764
  95.1438984  40.8303094  50.6726638 105.0871316  51.9166824  50.5256132
 104.2966860  51.8990963  49.9860631 104.8504670  52.4555118  51.2805168
 105.2069191  48.7659290  47.8388860 105.2567196  48.6009298  48.7804383
 105.0983114  47.8986549  47.4486741  94.0905450  51.4447836  35.1280949
  94.2393570  52.1283301  34.4747622  94.8971893  51.4252926  35.6430405
 102.4972953  44.7490218  49.1548167 103.3982816  44.6096683  48.8632165
 102.5720928  44.9144673  50.0946344  96.8315759  42.1257073  48.0001353
  95.9619068  42.4190639  47.7283942  97.0675239  42.7097518  48.7208617
 106.7087388  51.1856232  48.0830882 106.4172196  51.5486213  48.9194343
 106.0959519  50.4723240  47.9044214 104.9574576  46.3088847  46.5510940
 105.4328698  46.5016493  45.7429791 104.0340141  46.3648032  46.3054323
  91.8458083  47.4713014  36.1342018  91.6004124  46.5675344  36.3322228
  92.0153997  47.4730164  35.1921496  99.5354792  38.3436690  45.5166774
 100.0536736  39.0797717  45.1913262  99.1809925  38.6500683  46.3513533
  91.1153730  43.2041371  33.6328180  90.4222975  43.2785726  32.9768216
  90.8705482  42.4401715  34.1549696  99.7867387  34.7636973  41.0367670
 100.0669140  34.0960162  41.6628097 100.5717993  34.9566068  40.5242334
  97.5900855  53.9395967  32.5992697  97.0174822  54.5586154  32.1463168
  98.1633649  54.4895328  33.1332619 103.6576245  43.1854607  44.7839245
 104.6093668  43.2852704  44.8051469 103.4879695  42.3932875  45.2937330
 101.6790624  40.2710190  44.9698646 101.0840556  40.5515203  44.2745135
 101.3940321  40.7604091  45.7415387 100.8098115  54.2233117  33.7301279
 101.7428788  54.1578678  33.9334154 100.7221328  55.0589384  33.2715812
 103.4386132  53.5398987  30.6905226 103.3599763  53.2058851  31.5840984
 104.2595798  54.0320755  30.6896699 106.1364323  46.4060726  43.8981545
 106.1040643  45.4676727  44.0841229 106.7464946  46.4844763  43.1647370
  97.9747654  45.2756779  29.9408749  98.9206758  45.1462987  30.0097167
  97.5961899  44.5371441  30.4178177 106.2858811  43.1971770  43.9439828
 105.7697860  42.4130226  43.7569757 107.1698760  42.8690486  44.1086348
 103.9469538  36.9412785  39.9035641 103.7494359  36.6327874  40.7878973
 104.5569244  37.6674424  40.0333571  97.8586346  49.3274525  51.4009406
  98.7789356  49.5053124  51.5949453  97.8235929  48.3830571  51.2489105
  96.1590571  43.2006756  29.8763634  95.2522026  42.9039868  29.9526348
  96.4366552  42.9036574  29.0097921  87.0768511  44.5213119  40.3262681
  86.7571295  43.6678427  40.0337055  86.5301939  44.7361697  41.0820648
  90.8548419  47.2375560  44.0432187  91.0734428  48.1692668  44.0620221
  91.2674192  46.8783535  44.8286991  97.7752636  37.7443645  36.0307876
  96.9653365  37.3990730  36.4063122  98.4637053  37.4351189  36.6195487
  99.7043185  36.8221692  37.6532172 100.2574223  37.2417146  38.3122195
  99.9413271  35.8957440  37.6955128  95.7276284  42.8108766  53.4334936
  95.6273011  43.7603123  53.3647027  95.5097826  42.4827005  52.5611006
  94.9289355  40.0593691  30.0175614  95.7908519  40.3848589  30.2771431
  95.1139699  39.2725187  29.5048679  86.9456771  48.1416031  42.2955802
  86.2520243  47.7269983  41.7825757  87.6929762  48.1836567  41.6989221
 103.0821992  38.9322217  37.1610837 102.5020661  39.5907021  36.7788889
 102.8157925  38.1099562  36.7498254 101.5325558  38.3327275  39.3632157
 102.0325337  38.4443810  38.5546476 102.1761166  38.0288328  40.0032965
  95.5907554  46.2405905  52.2499998  95.1074636  47.0406265  52.4563887
  95.6768493  46.2513850  51.2967442  88.8593514  48.0734284  40.1721817
  88.8364202  48.1721972  39.2203700  89.1694150  48.9199435  40.4938983
  91.5180892  50.1310439  44.2868432  92.4724145  50.0994382  44.2198363
  91.3193415  49.6701063  45.1018658  92.1080274  48.7011555  46.8539229
  92.9273163  49.1955634  46.8774067  92.3817081  47.7843524  46.8256797
 101.8646870  41.0922308  36.2167185 100.9772725  41.3771958  35.9987380
 102.2800859  40.9316071  35.3694462 105.2161406  41.1168829  39.9321524
 105.9921796  41.6065281  40.2046141 104.4909540  41.5426883  40.3893394
 107.6533965  41.8296448  40.9895465 108.2478455  41.5892184  40.2788773
 107.7260548  41.1103579  41.6169001  89.8731120  55.6730059  41.3038629
  89.7385588  54.9130460  40.7376628  89.4563183  56.3970959  40.8367418
 101.0090083  50.8566982  30.3115205 101.7125933  51.0616985  30.9272860
 100.2852732  51.4243744  30.5764288 101.8387894  46.6076844  36.4317475
 101.7823095  47.0645395  35.5925107 102.3916236  45.8467528  36.2540318
 105.6492699  42.3966576  37.2567594 105.3929634  41.9963211  38.0875802
 105.0245568  43.1110370  37.1317734  93.0300246  56.5699376  41.5157072
  92.9132630  57.5144808  41.4135762  92.2092692  56.2672937  41.9042871
 102.9176781  51.2949512  32.3613665 103.7522385  50.8630710  32.1791140
 102.7561124  51.1231525  33.2890559 102.5722673  47.7981625  33.7270004
 102.5171477  47.6325896  32.7858448 101.9468728  48.5057658  33.8832194
  87.3615188  43.0349689  47.5531426  88.0074051  42.5248643  48.0418652
  87.1532339  43.7718371  48.1274852  99.8868580  50.1030537  53.0523567
 100.7559740  50.2771189  52.6910202  99.4075332  50.9224954  52.9299296
  95.8818798  37.2989734  33.3055323  95.8697468  38.2431574  33.4623593
  96.7742220  37.1159879  33.0114784  94.0554760  57.2227638  44.7313001
  94.9582007  57.2551248  45.0479496  93.8292130  56.2928089  44.7459336
  95.8108362  55.9758624  41.3923079  94.8603993  55.9760486  41.2787451
  96.1140848  55.2291359  40.8759114  99.6970918  33.8932511  37.5601259
  98.9303314  33.3390997  37.7057942 100.1081623  33.9654379  38.4215411
  91.7012679  40.1817306  51.6506441  92.5644140  39.8254111  51.8609765
  91.1278090  39.8431201  52.3381845 104.2137578  63.6182067  38.3827257
 103.6502443  63.5272004  37.6143545 104.0989973  62.7981972  38.8629750
 101.7602010  65.1133259  41.2211478 102.5523302  64.7724084  40.8057777
 101.9998660  65.2228234  42.1413631 103.7192764  64.3742172  34.0928856
 104.4923640  63.8271159  33.9541732 104.0718163  65.2386421  34.3043318
 105.5577806  65.7018554  47.2995756 105.2667672  66.6064185  47.1842422
 106.1934791  65.7435082  48.0139825 106.4834013  63.0795403  43.8897115
 107.0797585  62.8551425  43.1754078 106.5408985  62.3380148  44.4922563
 106.0559041  60.5334838  31.7247306 106.3084562  60.0116360  30.9630769
 105.1183601  60.3700984  31.8273990 105.7755330  62.4362944  33.9271681
 105.6591588  61.7607848  34.5952766 105.8857590  61.9495318  33.1103834
 107.7592358  56.9262991  32.6279719 107.9266760  57.7943227  32.9950190
 107.5689527  57.0890273  31.7041008 103.9680173  61.8393767  40.3282254
 103.0430669  61.7069981  40.5359946 104.2164586  62.6187986  40.8252196
 107.7381579  59.3820649  33.6126386 107.6181204  59.8277699  34.4511866
 107.0434167  59.7305966  33.0539924 101.3288984  61.4827040  41.1626043
 101.4581365  61.7361519  42.0765455 100.6486435  62.0754748  40.8430698
 105.4988471  72.1524290  37.2616517 105.4212501  73.1032115  37.3404998
 104.8950115  71.8070163  37.9191443 106.2452073  62.1337609  49.4795851
 106.9866758  62.6722653  49.2030675 105.5389059  62.7603898  49.6367403
 107.5964189  64.5742348  39.0970387 108.0602535  64.8530051  38.3075009
 107.3320987  63.6725793  38.9143477 104.4888270  64.1213830  42.0350150
 105.0589627  64.5501098  41.3967634 105.0796382  63.8396414  42.7334335
 106.5333075  60.6965501  35.9059952 107.2357119  61.1486544  36.3733878
 106.2013704  60.0549319  36.5339845 104.9813437  59.2877257  50.2811161
 104.3512097  59.9693538  50.5146558 104.8749525  59.1760339  49.3364299
 100.2758409  58.9549053  41.2077085  99.4857463  59.2106582  40.7317196
 100.7669657  59.7697391  41.3129126 102.2273155  59.3193633  38.1660562
 101.4304318  59.4312327  38.6844058 101.9998747  59.6580285  37.3001452
 108.0578822  65.8438336  46.1143077 108.1223255  66.3058743  46.9501248
 107.3489746  65.2135701  46.2425386  98.5596112  59.2079544  43.6392076
  98.8104151  60.0926554  43.9049652  99.0955661  59.0284145  42.8667168
 107.7726840  67.5106443  35.9822057 107.6372515  68.3557979  36.4106905
 108.3136653  67.7125721  35.2187991 104.2594180  53.5898023  52.6436412
 103.8661125  53.0364222  53.3184056 105.0760320  53.9008602  53.0342930
 101.2256237  65.0281881  36.5549982 101.7380758  65.8225132  36.7055547
 101.8778950  64.3308172  36.4883583 103.0351122  68.1447638  38.6372735
 103.2117750  69.0665602  38.4493719 103.8307956  67.8306057  39.0667115
 107.1762141  55.0055902  50.2356669 107.9171854  55.6063055  50.1561131
 107.4080063  54.2633540  49.6774711 102.3203479  60.1912269  48.5134898
 102.2056994  59.2897527  48.8141997 101.4647996  60.4375966  48.1619715
 104.1582438  69.6625811  44.6383077 104.7089863  69.5342875  43.8660071
 103.3193913  69.9620700  44.2877970  99.1905154  63.3570536  37.3309553
 100.0280376  63.7667544  37.1143260  99.3683422  62.4169978  37.3009746
 106.4458730  53.4880390  41.4836365 107.3111727  53.2923199  41.1242255
 106.5136239  53.2590742  42.4105722 104.0521049  55.7182598  38.8552732
 104.6264801  55.4957779  38.1225925 104.6392031  55.7871292  39.6081333
 104.3790636  57.7487059  32.8748617 103.5427948  58.0861745  33.1957892
 104.2395406  57.6136039  31.9375754 106.3543717  52.5923847  37.5827802
 105.7008129  52.2772864  36.9584416 106.3124191  51.9699587  38.3087625
 107.4654921  62.8743142  29.4981094 106.5581983  62.6432395  29.6972243
 107.9625953  62.0780761  29.6855075  99.2131325  60.6961251  38.0020286
  99.0155725  60.1030612  37.2771353  98.6577989  60.3913461  38.7196225
 107.1928049  60.5884357  40.1214879 107.2476659  59.6358194  40.0457356
 106.3819251  60.7443796  40.6056178 105.1320409  59.2061417  37.8805258
 104.3188274  59.5055588  38.2870450 105.6279403  58.8117106  38.5979740
 107.2828987  69.2019174  39.8139523 107.2405166  69.4280020  38.8848055
 108.1991686  68.9682549  39.9625324 104.6234484  56.7779773  43.4966493
 105.2633863  56.6368532  42.7989456 103.7912014  56.4914286  43.1205095
 105.3994788  66.0782203  39.6101485 106.1935386  65.5832523  39.4084060
 104.6886480  65.5500066  39.2469191 101.7077551  60.2225285  35.6861238
 100.7775139  60.1609740  35.9031200 101.8035023  59.7001238  34.8897879
 101.6263100  56.7480098  38.2739480 101.8869917  57.6625431  38.1648640
 102.4480272  56.2804540  38.4236093 103.0988025  58.1617855  45.4438304
 103.7711079  57.9535217  44.7950953 102.2717812  57.9639941  45.0043537
 107.9766064  66.6511225  43.2899322 107.8377149  66.2830009  44.1625261
 107.1880660  67.1658864  43.1183280 103.5015523  61.4360458  46.2040741
 103.3635321  60.7040697  46.8052280 104.4120446  61.3469358  45.9224929
 106.1297823  61.1480417  45.6924421 106.8397442  60.5073609  45.6511039
 106.0867131  61.3993312  46.6150602 104.8426757  58.1345635  47.5120061
 104.3064114  57.6836373  48.1641657 104.2543466  58.2691544  46.7690525
 103.1375301  74.9009684  41.4064719 103.3771899  75.5328208  42.0843738
 102.2944497  74.5497724  41.6930078 104.2529016  57.5934286  30.0746524
 103.3758483  57.4723087  29.7108771 104.7286769  56.8020365  29.8225413
  95.7731156  62.3811446  40.1688031  96.4602196  62.0673176  39.5809047
  95.6179285  63.2852811  39.8955283 100.5765879  57.2701643  44.5973055
 100.4924067  56.6627312  43.8623465  99.7548585  57.7610661  44.5982551
 107.6503163  70.7088807  43.8106223 107.5773334  71.5143778  44.3225528
 107.2080556  70.9080773  42.9854245 107.4392942  69.9460577  37.3209045
 106.6560464  70.4882257  37.4147269 108.1385687  70.4634556  37.7203286
 107.3324561  57.8972589  39.6914935 106.9622349  57.3443630  40.3795840
 107.8283654  57.2930723  39.1389935 105.1613760  68.3570084  46.7869953
 105.8623219  68.9906567  46.9399347 104.6908875  68.6984816  46.0265592
 100.7581478  67.8906439  43.7201055 101.3434915  67.1450127  43.8528960
 100.5606316  68.2010396  44.6037719 103.6120133  70.9257687  38.7363498
 102.9430508  71.4103814  38.2527538 103.4733003  71.1726907  39.6506876
  95.3499133  60.4612039  42.4405498  95.3883232  59.9275630  43.2342617
  94.8439425  59.9347245  41.8216476 107.7525402  72.9601430  45.3346156
 108.3043710  73.1233052  46.0995241 108.0931595  73.5505868  44.6626181
 102.7289895  55.3076580  45.9368041 102.7931221  56.1691411  45.5245438
 102.6657015  54.6950582  45.2040399 102.2042167  57.3799713  49.5841075
 102.8314206  56.9976790  50.1978599 101.3470086  57.1613914  49.9496768
  98.9807710  59.1876142  35.5159430  99.2761151  58.2786820  35.4626484
  98.0795746  59.1663881  35.1940432 102.5101957  57.2632138  41.4986978
 101.7888543  57.8768106  41.3594452 103.2995213  57.7989903  41.4203624
 105.3128271  54.5986565  47.7727630 105.8362672  54.8448861  48.5353940
 105.0940604  55.4306599  47.3530768 100.7095552  56.8690239  35.6398755
 100.3808258  55.9887618  35.4573861 101.0634922  56.8137908  36.5275144
 103.8237375  57.1563209  36.0074233 104.1633447  57.6849130  35.2852841
 104.2709495  57.4943615  36.7832799 106.5180816  55.5400260  45.4577301
 106.1777636  54.7408073  45.8597981 105.8119822  55.8401971  44.8854134
 107.1697287  52.6249572  43.9104624 107.9923357  52.1510050  43.7883514
 107.4135351  53.4040056  44.4103310 105.8105522  55.6537831  34.2067525
 106.5313884  56.0319083  33.7031242 105.1870826  56.3726707  34.3102503
 104.6935866  59.3168693  41.7196602 104.5480447  59.6308996  42.6120884
 104.2161070  59.9353593  41.1667501 106.5532249  56.3071241  41.7677492
 106.5393818  55.4112334  41.4309790 107.2704677  56.3141905  42.4015778
  99.1681528  61.8574037  44.6584264  98.6234996  62.6333845  44.7904538
 100.0460878  62.2044842  44.5003385 105.9569145  55.1885621  37.0365062
 106.0785056  54.2602267  37.2355950 105.6671187  55.2024307  36.1243377
  99.9547550  60.9843934  47.5514420  99.2129286  61.1326569  48.1379051
  99.6340295  61.2452199  46.6881170 100.4004164  68.8709362  39.5824815
 101.2262184  68.5713134  39.2023459 100.0498216  68.1016985  40.0314604
 105.3685697  68.2235830  41.6522489 104.7465706  67.5606535  41.3524717
 106.0390564  68.2496962  40.9696136  98.6012769  66.7895689  40.5413749
  97.7644677  66.3617863  40.3597750  98.5736414  66.9828132  41.4784540
 105.4410225  56.7017618  51.2454995 105.4898380  57.5779741  50.8632764
 105.9832739  56.1595012  50.6726638 104.9299204  66.7739754  35.1280949
 105.0787324  67.4575218  34.4747622 105.7365647  66.7544844  35.6430405
 107.6709513  57.4548991  48.0001353 106.8012822  57.7482557  47.7283942
 107.9068993  58.0389436  48.7208617 102.6851837  62.8004931  36.1342018
 102.4397879  61.8967261  36.3322228 102.8547752  62.8022082  35.1921496
 101.9547485  58.5333289  33.6328180 101.2616729  58.6077644  32.9768216
 101.7099236  57.7693633  34.1549696 106.9984325  58.5298673  29.8763634
 106.0915781  58.2331786  29.9526348 107.2760306  58.2328491  29.0097921
  97.9162266  59.8505037  40.3262681  97.5965050  58.9970345  40.0337055
  97.3695694  60.0653615  41.0820648 101.6942173  62.5667478  44.0432187
 101.9128183  63.4984586  44.0620221 102.1067947  62.2075452  44.8286991
 106.5670038  58.1400684  53.4334936 106.4666765  59.0895041  53.3647027
 106.3491580  57.8118922  52.5611006 105.7683110  55.3885609  30.0175614
 106.6302274  55.7140507  30.2771431 105.9533454  54.6017105  29.5048679
  97.7850526  63.4707948  42.2955802  97.0913997  63.0561901  41.7825757
  98.5323517  63.5128485  41.6989221 106.4301309  61.5697822  52.2499998
 105.9468390  62.3698183  52.4563887 106.5162248  61.5805767  51.2967442
  99.6987268  63.4026202  40.1721817  99.6757956  63.5013889  39.2203700
 100.0087905  64.2491353  40.4938983 102.3574646  65.4602357  44.2868432
 103.3117900  65.4286299  44.2198363 102.1587170  64.9992981  45.1018658
 102.9474028  64.0303473  46.8539229 103.7666917  64.5247552  46.8774067
 103.2210836  63.1135441  46.8256797 100.7124875  71.0021977  41.3038629
 100.5779343  70.2422377  40.7376628 100.2956937  71.7262876  40.8367418
 103.8694001  71.8991294  41.5157072 103.7526385  72.8436726  41.4135762
 103.0486447  71.5964855  41.9042871  98.2008942  58.3641607  47.5531426
  98.8467806  57.8540561  48.0418652  97.9926093  59.1010289  48.1274852
 106.7212553  52.6281652  33.3055323 106.7091223  53.5723492  33.4623593
 107.6135975  52.4451797  33.0114784 104.8948515  72.5519556  44.7313001
 105.7975761  72.5843166  45.0479496 104.6685885  71.6220006  44.7459336
 106.6502117  71.3050542  41.3923079 105.6997748  71.3052404  41.2787451
 106.9534603  70.5583277  40.8759114 102.5406433  55.5109224  51.6506441
 103.4037895  55.1546029  51.8609765 101.9671844  55.1723119  52.3381845
 106.6124911  77.7103364  40.1688031 107.2995951  77.3965094  39.5809047
 106.4573040  78.6144728  39.8955283 106.1892887  75.7903957  42.4405498
 106.2276987  75.2567548  43.2342617 105.6833180  75.2639163  41.8216476
  70.6194039   5.9196054  28.1310026  70.8590637   6.5514578  28.8089044
  69.7763235   5.5684094  28.4175385  82.5350070   9.9660355  25.1072564
  81.9714935   9.8750291  24.3388852  82.4202465   9.1460259  25.5875056
  80.0814502  11.4611546  27.9456784  80.8735794  11.1202371  27.5303084
  80.3211152  11.5706521  28.8658938  88.1149629  13.6331322  20.4187029
  87.4637609  14.2185403  20.0321043  88.9093992  14.1637517  20.4782066
  82.0405256  10.7220459  20.8174163  82.8136132  10.1749446  20.6787039
  82.3930655  11.5864709  21.0288624  83.8790298  12.0496842  34.0241062
  83.5880164  12.9542472  33.9087729  84.5147283  12.0913369  34.7385132
  84.8046505   9.4273690  30.6142422  85.4010078   9.2029713  29.8999385
  84.8621477   8.6858436  31.2167870  89.5924894  11.3221754  20.9556013
  88.9570727  11.3956381  21.6676918  89.2622300  11.9115353  20.2775092
  84.0967822   8.7841231  20.6516988  83.9804081   8.1086135  21.3198072
  84.2070082   8.2973605  19.8349141  88.8380184  11.7358257  31.0190856
  88.5380907  12.6383296  30.9106663  88.4931243  11.4690440  31.8712009
  82.2892665   8.1872054  27.0527561  81.3643162   8.0548268  27.2605252
  82.5377078   8.9666273  27.5497503  79.6501476   7.8305328  27.8871350
  79.7793857   8.0839806  28.8010761  78.9698927   8.4233036  27.5676005
  83.8200963  18.5002578  23.9861824  83.7424993  19.4510403  24.0650304
  83.2162607  18.1548450  24.6436750  84.5664565   8.4815896  36.2041158
  85.3079250   9.0200940  35.9275981  83.8601551   9.1082185  36.3612709
  90.0419905  10.6245037  34.8013319  90.4503261  10.1827447  34.0567952
  89.3197167  10.0497664  35.0547512  90.3648720  11.1846227  28.5565608
  89.7357582  11.3491942  27.8541676  89.9774382  11.5987837  29.3276572
  94.2437952  12.1200665  25.9109972  93.5588990  12.4999567  25.3607005
  94.3281801  12.7295992  26.6441920  85.9176682  10.9220635  25.8215693
  86.3815027  11.2008338  25.0320316  85.6533480  10.0204080  25.6388784
  82.8100763  10.4692117  28.7595456  83.3802120  10.8979385  28.1212941
  83.4008875  10.1874702  29.4579642  92.6134711  12.6432580  30.6827673
  93.4352155  12.2412767  30.4010354  92.6097114  12.5400814  31.6343788
  86.3791315  12.1916623  32.8388383  86.4435747  12.6537030  33.6746555
  85.6702239  11.5613988  32.9670693  76.8808605   5.5557831  30.3637383
  77.1316643   6.4404841  30.6294959  77.4168153   5.3762432  29.5912474
  86.0939332  13.8584730  22.7067364  85.9585007  14.7036266  23.1352211
  86.6349145  14.0604008  21.9433297  79.5468730  11.3760168  23.2795289
  80.0593250  12.1703419  23.4300853  80.1991443  10.6786459  23.2128890
  81.3563614  14.4925925  25.3618042  81.5330243  15.4143889  25.1739026
  82.1520448  14.1784344  25.7912422  87.7207809  14.4808297  36.8367706
  87.2771663  13.6944676  36.5188610  88.3825022  14.6687447  36.1711596
  82.4794930  16.0104099  31.3628384  83.0302355  15.8821162  30.5905378
  81.6406406  16.3098988  31.0123277  89.8189047  14.7611097  34.8649107
  89.8007522  15.5819978  34.3729376  90.7408967  14.6365172  35.0899248
  86.2762101  12.2755226  35.7072615  86.8090438  11.5143515  35.4771923
  85.7476182  11.9828878  36.4496770  77.5117646   9.7048823  24.0554859
  78.3492868  10.1145831  23.8388567  77.6895914   8.7648265  24.0255053
  87.6414814  11.4041219  23.2191427  87.1136175  10.6693978  22.9064665
  87.1402316  12.1815895  22.9731396  88.6935493  17.9318936  19.1423086
  88.0197191  18.2350633  19.7508044  89.0801315  18.7348017  18.7928544
  86.9655647   9.3234024  20.7450390  86.0566866   9.0393057  20.8422860
  86.9950731   9.7433103  19.8853697  92.1974915  12.9340613  24.5141558
  91.7437242  12.0931523  24.5706748  91.5668881  13.5702012  24.8516338
  90.6407854  14.7717110  25.4491376  90.9330828  15.3322167  24.7303742
  91.1506474  15.0645671  26.2044535  77.5343818   7.0439538  24.7265593
  77.3368217   6.4508899  24.0016659  76.9790482   6.7391748  25.4441531
  85.6041479  15.5497461  26.5384829  85.5617658  15.7758308  25.6093361
  86.5204178  15.3160836  26.6870630  83.7207280  12.4260490  26.3346792
  84.5147878  11.9310810  26.1329367  83.0098972  11.8978353  25.9714498
  88.5402124  14.8078586  30.6859160  88.5939147  15.3769522  31.4536876
  87.6716906  14.9780471  30.3213197  90.7304888  11.4006935  37.2599825
  90.5790394  11.1717487  36.3429909  90.7209567  12.3577537  37.2731170
  87.4990224   8.9738848  32.2446091  88.4282284   9.1250007  32.0715059
  87.0781254   9.0622869  31.3894738  86.2978556  12.9989512  30.0144629
  86.1589642  12.6308297  30.8870567  85.5093152  13.5137152  29.8428587
  86.8926708  18.0998609  21.3570166  87.0678463  17.6286652  22.1715788
  86.2059496  18.7264375  21.5851426  87.8483771  12.3771115  27.4033467
  87.5133604  12.3371885  28.2991117  87.3487717  11.7115831  26.9303877
  81.8228015   7.7838745  32.9286048  81.6847813   7.0518984  33.5297587
  82.7332938   7.6947645  32.6470236  92.4397094  14.4326058  35.3376307
  92.3809640  13.7485278  34.6706890  92.8416613  15.1745048  34.8856933
  81.4587793  21.2487972  28.1310026  81.6984391  21.8806496  28.8089044
  80.6156990  20.8976012  28.4175385  92.4414502  12.3965642  33.5690287
  91.5541280  12.0591563  33.6916685  93.0113053  11.6648673  33.8059052
  74.0943649   8.7289733  26.8933338  74.7814689   8.4151463  26.3054353
  73.9391777   9.6331098  26.6200589  85.9715655  17.0567094  30.5351530
  85.8985826  17.8622065  31.0470834  85.5293048  17.2559060  29.7099551
  85.7605435  16.2938864  24.0454351  84.9772956  16.8360544  24.1392576
  86.4598180  16.8112844  24.4448593  88.4314338  16.9553928  32.6909688
  89.1442311  17.5901393  32.6185590  87.9404367  17.0517794  31.8749690
  90.1531865  10.8605181  24.2626980  89.2188144  10.9806643  24.0931684
  90.3308534   9.9577647  23.9986990  83.4826252  14.7048371  33.5115259
  84.1835712  15.3384854  33.6644653  83.0121367  15.0463103  32.7510899
  91.6080648  13.0466321  21.7963166  91.8840492  12.9322916  22.7057040
  90.7385147  12.6483806  21.7575339  88.2434712  17.2952672  25.4395980
  88.4257106  16.4774328  25.9023732  89.0667698  17.5120364  25.0020870
  88.5776877  16.2220857  22.7011028  89.1064644  15.7113312  22.0881191
  88.8405097  15.9063387  23.5656561  79.0793970  14.2384726  30.4446362
  79.6647407  13.4928414  30.5774266  78.8818809  14.5488683  31.3283026
  81.9332625  17.2735974  25.4608804  81.2643001  17.7582102  24.9772844
  81.7945495  17.5205194  26.3752183  73.6711625   6.8090327  29.1650805
  73.7095724   6.2753917  29.9587923  73.1651918   6.2825532  28.5461782
  86.0737894  19.3079717  32.0591463  86.6256202  19.4711339  32.8240548
  86.4144087  19.8984155  31.3871488  90.9248768  14.1340975  37.9140117
  91.4688672  14.7470933  37.4195072  90.3435613  14.6920553  38.4307130
  89.2106281  17.2561693  29.0455145  89.0857421  16.4551433  28.5366090
  89.8685372  17.7507886  28.5569115  91.2741190  15.0570713  30.6734695
  90.3271525  14.9376064  30.6013022  91.6223963  14.1693211  30.7560956
  88.2787623  14.8523429  26.8739047  88.1312585  13.9240137  27.0546617
  89.1041116  14.8743520  26.3896122  91.8821745  15.6751988  27.9603920
  92.8068292  15.4694849  27.8228371  91.7137048  15.4268389  28.8693261
  91.6717061  16.1937655  23.3166011  91.8453938  15.6284078  22.5639864
  92.1645952  16.9938550  23.1345501  77.4894021   8.2052324  31.3829570
  76.9447489   8.9812132  31.5149845  78.3673371   8.5523129  31.2248692
  92.6592233  15.5104420  20.4162910  93.3543138  16.1311112  20.6350224
  93.0015384  14.6599771  20.6915288  78.2760043   7.3322221  34.2759727
  77.5341779   7.4804856  34.8624357  77.9552787   7.5930486  33.4126476
  86.2203705  16.8738199  34.0740117  86.5290832  16.6287346  34.9462817
  87.0179187  17.0784837  33.5858987  86.2424317  19.0276109  26.3045494
  85.8029308  18.5352487  26.9978350  86.9932434  18.4849076  26.0637569
  78.7216656  15.2187649  26.3070122  79.5474676  14.9191421  25.9268765
  78.3710708  14.4495272  26.7559910  83.6898189  14.5714118  28.3767795
  83.0678199  13.9084823  28.0770023  84.3603056  14.5975250  27.6941443
  76.9225261  13.1373976  27.2659055  76.0857170  12.7096150  27.0843057
  76.8948907  13.3306419  28.2029846  94.2477563  13.5937029  37.2501438
  93.4573106  13.5761168  36.7105938  94.0110917  14.1325323  38.0050475
  83.2511696  13.1218041  21.8526256  83.3999817  13.8053505  21.1992929
  84.0578140  13.1023131  22.3675712  95.8693634  12.8626437  34.8076188
  95.5778443  13.2256417  35.6439649  95.2565766  12.1493445  34.6289521
  81.0064329   9.1483219  22.8587325  80.7610371   8.2445549  23.0567535
  81.1760244   9.1500369  21.9166803  86.7507102  15.6166171  19.3238003
  86.1781069  16.2356359  18.8708475  87.3239896  16.1665533  19.8577925
  89.9704362  15.9003322  20.4546586  90.9035035  15.8348883  20.6579461
  89.8827574  16.7359588  19.9961118  87.0192593  11.0044730  38.1254713
  87.9395602  11.1823329  38.3194759  86.9842176  10.0600776  37.9734412
  76.2374758   6.1983324  27.0507987  75.9177542   5.3448632  26.7582361
  75.6908186   6.4131902  27.8065955  80.0154665   8.9145765  30.7677494
  80.2340675   9.8462873  30.7865528  80.4280439   8.5553739  31.5532298
  76.1063018   9.8186236  29.0201109  75.4126489   9.4040188  28.5071063
  76.8536009   9.8606772  28.4234528  84.7513801   7.9176110  38.9745304
  84.2680882   8.7176470  39.1809193  84.8374740   7.9284055  38.0212748
  78.0199760   9.7504489  26.8967124  77.9970449   9.8492177  25.9449007
  78.3300397  10.5969640  27.2184290  80.6787138  11.8080644  31.0113738
  81.6330392  11.7764587  30.9443670  80.4799662  11.3471268  31.8263964
  81.2686520  10.3781760  33.5784536  82.0879409  10.8725839  33.6019373
  81.5423328   9.4613729  33.5502103  79.0337367  17.3500264  28.0283936
  78.8991835  16.5900665  27.4621934  78.6169429  18.0741164  27.5612725
  82.1906493  18.2469581  28.2402379  82.0738877  19.1915013  28.1381069
  81.3698939  17.9443142  28.6288178  89.0474827  11.7800742  39.7768874
  89.9165986  11.9541394  39.4155508  88.5681578  12.5995159  39.6544603
  83.2161007  18.8997843  31.4558307  84.1188254  18.9321453  31.7724802
  82.9898377  17.9698294  31.4704643  84.9714609  17.6528829  28.1168386
  84.0210240  17.6530691  28.0032758  85.2747095  16.9061564  27.6004420
 100.7067303  23.4889368  29.1814148 101.3445713  23.3696115  28.4777488
 100.5888145  24.4370212  29.2402100  97.5157009  23.4416796  29.1175673
  97.1775520  23.3257860  28.2296208  98.3846777  23.0407961  29.0976679
  93.3743825  25.2952272  25.1072564  92.8108690  25.2042209  24.3388852
  93.2596220  24.4752177  25.5875056  97.9976792  24.5951648  35.0761878
  97.9865433  24.2004446  34.2042382  98.1597431  23.8617720  35.6695650
  90.9208256  26.7903464  27.9456784  91.7129548  26.4494288  27.5303084
  91.1604907  26.8998439  28.8658938  98.9543383  28.9623240  20.4187029
  98.3031363  29.5477320  20.0321043  99.7487746  29.4929435  20.4782066
  92.8799010  26.0512377  20.8174163  93.6529886  25.5041364  20.6787039
  93.2324409  26.9156626  21.0288624  94.7184053  27.3788759  34.0241062
  94.4273919  28.2834390  33.9087729  95.3541037  27.4205287  34.7385132
  95.6440260  24.7565608  30.6142422  96.2403832  24.5321630  29.8999385
  95.7015231  24.0150353  31.2167870 100.2608571  21.2140822  26.2567356
 101.0471660  20.7960245  25.9057773 100.5247275  22.1186914  26.4249005
 100.4318648  26.6513672  20.9556013  99.7964481  26.7248298  21.6676918
 100.1016055  27.2407271  20.2775092  94.9361577  24.1133149  20.6516988
  94.8197835  23.4378053  21.3198072  95.0463837  23.6265523  19.8349141
  97.2793118  23.5743296  24.3563677  96.9151325  23.0473917  25.0676599
  98.1360234  23.1841765  24.1830163 103.1842419  14.8637629  31.6194943
 102.8525743  15.7333040  31.3956158 102.5888032  14.5473913  32.2988974
  99.6773938  27.0650175  31.0190856  99.3774661  27.9675214  30.9106663
  99.3324998  26.7982358  31.8712009  93.1286420  23.5163972  27.0527561
  92.2036916  23.3840186  27.2605252  93.3770833  24.2958191  27.5497503
 103.0771082  19.5832715  28.6988293 102.1687959  19.5148123  28.4047054
 103.0258678  20.0604660  29.5270119  96.8987826  21.0590853  20.3371693
  96.7787451  21.5047904  21.1757173  96.2040414  21.4076171  19.7785231
  90.4895231  23.1597245  27.8871350  90.6187612  23.4131724  28.8010761
  89.8092682  23.7524953  27.5676005  94.6594718  33.8294495  23.9861824
  94.5818748  34.7802320  24.0650304  94.0556361  33.4840368  24.6436750
  97.1511948  21.0022361  36.6423191  96.3745282  21.5616281  36.6326055
  97.7902511  21.4879144  37.1638061 104.9432728  17.7849153  30.4766167
 104.3007108  18.0781687  29.8305962 104.4387657  17.6702074  31.2819364
  95.4058320  23.8107814  36.2041158  96.1473004  24.3492858  35.9275981
  94.6995305  24.4374103  36.3612709 100.8813660  25.9536954  34.8013319
 101.2897016  25.5119365  34.0567952 100.1590921  25.3789582  35.0547512
  97.2344730  20.8909561  32.1746876  98.0805925  21.3148975  32.3181525
  97.1743367  20.2343186  32.8685439 101.2042474  26.5138145  28.5565608
 100.5751337  26.6783859  27.8541676 100.8168136  26.9279755  29.3276572
 105.0831706  27.4492583  25.9109972 104.3982744  27.8291484  25.3607005
 105.1675555  28.0587910  26.6441920 100.3844175  18.5513930  33.8328050
 100.1405107  19.3055990  33.2962325 100.6604105  18.9299277  34.6675297
 102.3382638  25.0952542  32.5105315 102.5499533  25.7384302  31.8339696
 102.2912386  24.2614858  32.0427245  99.9408867  17.7070363  29.4141887
  99.0793346  18.0051616  29.7058625  99.9671301  17.9240761  28.4822920
  96.7570436  26.2512553  25.8215693  97.2208782  26.5300256  25.0320316
  96.4927234  25.3495998  25.6388784  93.6494517  25.7984035  28.7595456
  94.2195874  26.2271303  28.1212941  94.2402629  25.5166619  29.4579642
  95.6939322  22.3735706  22.6305258  96.3963365  22.8256749  23.0979185
  95.3619951  21.7319524  23.2585151  94.1419684  20.9647462  37.0056468
  93.5118344  21.6463743  37.2391865  94.0355772  20.8530544  36.0609606
  89.4364656  20.6319258  27.9322392  88.6463710  20.8876787  27.4562502
  89.9275903  21.4467596  28.0374432 103.4528466  27.9724497  30.6827673
 104.2745909  27.5704685  30.4010354 103.4490869  27.8692732  31.6343788
  91.3879401  20.9963837  24.8905869  90.5910565  21.1082532  25.4089364
  91.1604994  21.3350490  24.0246759  97.2185069  27.5208541  32.8388383
  97.2829502  27.9828948  33.6746555  96.5095993  26.8905906  32.9670693
  87.7202359  20.8849749  30.3637383  87.9710398  21.7696759  30.6294959
  88.2561907  20.7054350  29.5912474  96.9333087  29.1876648  22.7067364
  96.7978762  30.0328184  23.1352211  97.4742899  29.3895926  21.9433297
  93.4200426  15.2668228  39.3681719  93.0267372  14.7134427  40.0429363
  94.2366567  15.5778806  39.7588236  90.3862484  26.7052086  23.2795289
  90.8987005  27.4995336  23.4300853  91.0385197  26.0078377  23.2128890
  92.1957369  29.8217842  25.3618042  92.3723997  30.7435807  25.1739026
  92.9914202  29.5076262  25.7912422  96.3368387  16.6826107  36.9601975
  97.0778101  17.2833260  36.8806438  96.5686310  15.9403745  36.4020018
  91.4809725  21.8682474  35.2380205  91.3663241  20.9667732  35.5387304
  90.6254243  22.1146171  34.8865022  98.5601563  29.8100215  36.8367706
  98.1165417  29.0236593  36.5188610  99.2218777  29.9979365  36.1711596
  93.3188684  31.3396016  31.3628384  93.8696109  31.2113080  30.5905378
  92.4800160  31.6390905  31.0123277 100.6582801  30.0903015  34.8649107
 100.6401277  30.9111896  34.3729376 101.5802721  29.9657090  35.0899248
  97.1155855  27.6047144  35.7072615  97.6484192  26.8435432  35.4771923
  96.5869936  27.3120796  36.4496770  88.3511401  25.0340740  24.0554859
  89.1886623  25.4437749  23.8388567  88.5289669  24.0940183  24.0255053
  97.8322944  17.5465522  24.8023930  96.9764540  17.1572372  24.6229569
  98.2449896  17.6257483  23.9423716  99.3622091  15.0811865  29.2015490
  98.8586886  15.0442000  28.3883296  99.6552698  15.9904608  29.2612147
  95.6064977  15.1650595  28.2081672  96.4717973  14.9693404  27.8487561
  95.6742486  14.9360947  29.1351029  98.4808568  26.7333137  23.2191427
  97.9529930  25.9985896  22.9064665  97.9796071  27.5107813  22.9731396
 103.4601414  24.9282157  28.3358474 102.8025089  25.6181418  28.4238602
 104.2641813  25.3178589  28.6792460  93.2127296  17.3952803  25.5798039
  93.7871048  17.1727984  24.8471232  93.7998278  17.4641497  26.3326640
 102.2706873  23.2826530  26.3862415 102.7838755  23.9156522  26.8884125
 102.9208097  22.6827725  26.0205775  93.5396883  19.4257264  19.5993924
  92.7034195  19.7631950  19.9203199  93.4001652  19.2906244  18.6621061
  95.5149963  14.2694052  24.3073108  94.8614376  13.9543069  23.6829723
  95.4730438  13.6469792  25.0332931  99.5329247  33.2610854  19.1423086
  98.8590946  33.5642551  19.7508044  99.9195069  34.0639934  18.7928544
  98.7487704  20.7575985  28.6320756  97.8310265  20.9790932  28.4742444
  99.1647847  20.8322296  27.7732463  99.5322752  22.1567401  23.7623436
 100.2794570  22.6688798  23.4530558  99.8014341  21.8351454  24.6227830
  97.8049402  24.6525942  20.7450390  96.8960621  24.3684974  20.8422860
  97.8344486  25.0725020  19.8853697 103.0368669  28.2632531  24.5141558
 102.5830996  27.4223441  24.5706748 102.4062636  28.8993930  24.8516338
 101.4801608  30.1009028  25.4491376 101.7724583  30.6614085  24.7303742
 101.9900229  30.3937589  26.2044535  88.3737572  22.3731456  24.7265593
  88.1761972  21.7800817  24.0016659  87.8184236  22.0683666  25.4441531
  96.3534296  22.2654562  26.8460186  96.4082906  21.3128399  26.7702662
  95.5425498  22.4214001  27.3301484  94.2926656  20.8831622  24.6050565
  93.4794521  21.1825793  25.0115757  94.7885650  20.4887311  25.3225047
  96.4435234  30.8789379  26.5384829  96.4011412  31.1050225  25.6093361
  97.3597932  30.6452754  26.6870630  99.8900867  21.3473446  33.4365458
 100.2450255  21.5744920  34.2959924 100.5372999  21.6791823  32.8142714
  93.7840730  18.4549978  30.2211800  94.4240110  18.3138737  29.5234763
  92.9518261  18.1684491  29.8450402 105.6467984  26.5368409  29.1526059
 106.0804491  26.4443698  30.0009113 106.3599565  26.5125910  28.5146075
  94.5601034  27.7552408  26.3346792  95.3541633  27.2602728  26.1329367
  93.8492727  27.2270271  25.9714498  99.3795879  30.1370503  30.6859160
  99.4332901  30.7061440  31.4536876  98.5110660  30.3072389  30.3213197
  90.8683798  21.8995490  22.4106545  89.9381386  21.8379945  22.6276507
  90.9641270  21.3771442  21.6143186  90.7869347  18.4250303  24.9984786
  91.0476164  19.3395636  24.8893947  91.6086519  17.9574745  25.1481399
  92.2594272  19.8388060  32.1683611  92.9317326  19.6305422  31.5196260
  91.4324059  19.6410146  31.7288843 106.5083533  26.5792110  31.6858944
 106.7019424  27.4837921  31.9318219 106.4084152  26.1199529  32.5197529
  98.1619844  16.4650001  34.1849272  97.5147759  17.1639950  34.0913748
  98.9320860  16.8986145  34.5525520 101.5698642  26.7298853  37.2599825
 101.4184149  26.5009404  36.3429909 101.5603322  27.6869454  37.2731170
  98.3383979  24.3030766  32.2446091  99.2676039  24.4541925  32.0715059
  97.9175009  24.3914786  31.3894738  97.1372310  28.3281430  30.0144629
  96.9983396  27.9600214  30.8870567  96.3486907  28.8429069  29.8428587
  97.7320462  33.4290526  21.3570166  97.9072218  32.9578570  22.1715788
  97.0453250  34.0556293  21.5851426  98.6877525  27.7063033  27.4033467
  98.3527358  27.6663803  28.2991117  98.1881471  27.0407749  26.9303877
  92.6621769  23.1130663  32.9286048  92.5241567  22.3810902  33.5297587
  93.5726693  23.0239563  32.6470236  95.2904070  22.8250622  32.4169728
  96.0003689  22.1843814  32.3756346  95.2473378  23.0763517  33.3395908
 103.2790849  29.7617975  35.3376307 103.2203395  29.0777195  34.6706890
 103.6810367  30.5036965  34.8856933  94.0033004  19.8115840  34.2365367
  93.4670361  19.3606578  34.8886964  93.4149713  19.9461749  33.4935832
  92.2981548  36.5779889  28.1310026  92.5378146  37.2098413  28.8089044
  91.4550744  36.2267929  28.4175385 103.2808256  27.7257559  33.5690287
 102.3935035  27.3883481  33.6916685 103.8506807  26.9940591  33.8059052
  84.9337403  24.0581651  26.8933338  85.6208443  23.7443381  26.3054353
  84.7785532  24.9623016  26.6200589  89.7372125  18.9471848  31.3218362
  89.6530314  18.3397517  30.5868772  88.9154832  19.4380866  31.3227858
  96.8109409  32.3859012  30.5351530  96.7379581  33.1913983  31.0470834
  96.3686803  32.5850977  29.7099551  96.5999189  31.6230782  24.0454351
  95.8166711  32.1652462  24.1392576  97.2991934  32.1404761  24.4448593
  99.9095839  17.4325411  26.6888557 100.4064539  16.6795373  26.3689627
  99.1382821  17.4689728  26.1231766 107.7625597  23.1365777  28.3306848
 107.7515473  24.0190492  27.9600781 106.8942976  22.7837327  28.1361385
  99.2708093  32.2845846  32.6909688  99.9836065  32.9193310  32.6185590
  98.7798122  32.3809712  31.8749690 100.9925620  26.1897098  24.2626980
 100.0581899  26.3098561  24.0931684 101.1702288  25.2869565  23.9986990
  96.4930808  19.5742794  26.4160241  96.1228595  19.0213834  27.1041147
  96.9889900  18.9700928  25.8635241  94.3220006  30.0340289  33.5115259
  95.0229466  30.6676772  33.6644653  93.8515121  30.3755021  32.7510899
 102.4474402  28.3758239  21.7963166 102.7234246  28.2614833  22.7057040
 101.5778901  27.9775724  21.7575339 102.3514834  14.3995005  28.8367916
 101.4377914  14.6299231  29.0050123 102.7807935  14.4833449  29.6881948
 102.1221292  22.5884897  31.3367810 101.4692743  22.8360804  30.6820262
 102.5001672  21.7749035  31.0030287  99.0828466  32.6244590  25.4395980
  99.2650861  31.8066246  25.9023732  99.9061452  32.8412282  25.0020870
  99.4170632  31.5512775  22.7011028  99.9458398  31.0405229  22.0881191
  99.6798851  31.2355305  23.5656561  98.1708865  23.3304708  37.8233847
  97.4949503  23.2298837  38.4936222  98.9936499  23.1743921  38.2869844
  89.9187725  29.5676644  30.4446362  90.5041161  28.8220332  30.5774266
  89.7212563  29.8780601  31.3283026  92.7726380  32.6027892  25.4608804
  92.1036755  33.0874019  24.9772844  92.6339249  32.8497112  26.3752183
  84.5105379  22.1382244  29.1650805  84.5489479  21.6045835  29.9587923
  84.0045672  21.6117450  28.5461782  96.9131648  34.6371635  32.0591463
  97.4649956  34.8003257  32.8240548  97.2537842  35.2276073  31.3871488
  91.8896142  16.9846785  32.6613347  91.9537468  17.8461616  32.2490745
  91.8263262  16.3720787  31.9285706  91.3648414  19.0569917  36.3086382
  91.9920453  18.6746995  36.9223906  90.5076333  18.8384119  36.6742074
 101.7642523  29.4632893  37.9140117 102.3082427  30.0762851  37.4195072
 101.1829368  30.0212471  38.4307130  88.1413957  20.8646347  22.2404736
  88.4367398  19.9557025  22.1871790  87.2401993  20.8434086  21.9185739
 100.0500036  32.5853611  29.0455145  99.9251175  31.7843350  28.5366090
 100.7079127  33.0799804  28.5569115  91.6708204  18.9402343  28.2232285
  90.9494790  19.5538311  28.0839758  92.4601460  19.4760108  28.1448931
 102.1134944  30.3862631  30.6734695 101.1665280  30.2667982  30.6013022
 102.4617717  29.4985129  30.7560956  94.4734517  16.2756770  34.4972937
  94.9968919  16.5219066  35.2599246  94.2546851  17.1076804  34.0776074
  89.8701798  18.5460444  22.3644062  89.5414505  17.6657823  22.1819168
  90.2241169  18.4908113  23.2520451  99.1181377  30.1815347  26.8739047
  98.9706340  29.2532054  27.0546617  99.9434871  30.2035438  26.3896122
  92.9843622  18.8333414  22.7319539  93.3239694  19.3619335  22.0098148
  93.4315742  19.1713820  23.5078106 102.7215499  31.0043906  27.9603920
 103.6462047  30.7986767  27.8228371 102.5530803  30.7560307  28.8693261
  95.6787062  17.2170465  32.1822607  95.3383883  16.4178278  32.5843287
  94.9726069  17.5172176  31.6099441  96.3303534  14.3019777  30.6349930
  97.1529604  13.8280255  30.5128821  96.5741598  15.0810261  31.1348617
  93.8542113  20.9938898  28.4441909  93.7086694  21.3079201  29.3366191
  93.3767317  21.6123798  27.8912808  95.7138496  17.9841446  28.4922799
  95.7000065  17.0882539  28.1555097  96.4310924  17.9912110  29.1261085
  97.5664627  18.4178786  30.5375926  97.3082404  19.3395857  30.5360256
  97.0349667  18.0209221  31.2276390 102.5110815  31.5229573  23.3166011
 102.6847693  30.9575996  22.5639864 103.0039707  32.3230468  23.1345501
  88.3287775  23.5344242  31.3829570  87.7841243  24.3104050  31.5149845
  89.2067125  23.8815047  31.2248692  95.1175392  16.8655826  23.7610369
  95.2391303  15.9372472  23.9601256  94.8277434  16.8794512  22.8488684
  97.9866582  14.5510736  26.8977089  98.0088279  14.6150070  25.9429068
  98.4034641  13.7115245  27.0917595 103.4985988  30.8396337  20.4162910
 104.1936892  31.4603030  20.6350224 103.8409138  29.9891689  20.6915288
  89.1153797  22.6614138  34.2759727  88.3735533  22.8096774  34.8624357
  88.7946541  22.9222404  33.4126476  97.0597460  32.2030117  34.0740117
  97.3684586  31.9579263  34.9462817  97.8572942  32.4076755  33.5858987
  97.0818072  34.3568026  26.3045494  96.6423062  33.8644405  26.9978350
  97.8326189  33.8140994  26.0637569  89.5610411  30.5479567  26.3070122
  90.3868431  30.2483339  25.9268765  89.2104463  29.7787190  26.7559910
  94.5291944  29.9006035  28.3767795  93.9071953  29.2376740  28.0770023
  95.1996811  29.9267167  27.6941443  87.7619016  28.4665894  27.2659055
  86.9250924  28.0388068  27.0843057  87.7342661  28.6598337  28.2029846
  94.6016471  18.3787823  37.9700301  94.6504627  19.2549946  37.5878071
  95.1438986  17.8365216  37.3971945 105.0871317  28.9228947  37.2501438
 104.2966861  28.9053086  36.7105938 104.8504672  29.4617240  38.0050475
 105.2069192  25.7721413  34.5634167 105.2567197  25.6071420  35.5049690
 105.0983115  24.9048672  34.1732048  94.0905451  28.4509959  21.8526256
  94.2393571  29.1345423  21.1992929  94.8971894  28.4315049  22.3675712
 102.4972955  21.7552341  35.8793474 103.3982817  21.6158806  35.5877471
 102.5720929  21.9206796  36.8191651  96.8315760  19.1319196  34.7246660
  95.9619069  19.4252762  34.4529248  97.0675240  19.7159641  35.4453924
 106.7087389  28.1918355  34.8076188 106.4172197  28.5548335  35.6439649
 106.0959520  27.4785363  34.6289521 104.9574577  23.3150969  33.2756246
 105.4328699  23.5078615  32.4675098 104.0340143  23.3710155  33.0299630
  91.8458084  24.4775136  22.8587325  91.6004126  23.5737466  23.0567535
  92.0153998  24.4792287  21.9166803  99.5354794  15.3498813  32.2412080
 100.0536738  16.0859840  31.9158569  99.1809926  15.6562806  33.0758839
  91.1153731  20.2103494  20.3573486  90.4222976  20.2847849  19.7013522
  90.8705483  19.4463838  20.8795003  97.5900856  30.9458089  19.3238003
  97.0174823  31.5648276  18.8708475  98.1633650  31.4957451  19.8577925
 103.6576246  20.1916729  31.5084552 104.6093669  20.2914827  31.5296776
 103.4879697  19.3994998  32.0182636 101.6790626  17.2772312  31.6943953
 101.0840558  17.5577325  30.9990442 101.3940322  17.7666213  32.4660694
 100.8098116  31.2295239  20.4546586 101.7428789  31.1640801  20.6579461
 100.7221329  32.0651506  19.9961118 106.1364324  23.4122849  30.6226852
 106.1040644  22.4738850  30.8086536 106.7464948  23.4906886  29.8892677
 106.2858812  20.2033892  30.6685135 105.7697861  19.4192349  30.4815064
 107.1698761  19.8752609  30.8331654  97.8586347  26.3336648  38.1254713
  98.7789357  26.5115247  38.3194759  97.8235930  25.3892693  37.9734412
  87.0768512  21.5275242  27.0507987  86.7571297  20.6740550  26.7582361
  86.5301941  21.7423820  27.8065955  90.8548420  24.2437683  30.7677494
  91.0734430  25.1754791  30.7865528  91.2674194  23.8845657  31.5532298
  95.7276285  19.8170888  40.1580243  95.6273012  20.7665245  40.0892334
  95.5097827  19.4889127  39.2856313  86.9456772  25.1478153  29.0201109
  86.2520244  24.7332106  28.5071063  87.6929763  25.1898690  28.4234528
  95.5907555  23.2468027  38.9745304  95.1074637  24.0468387  39.1809193
  95.6768494  23.2575972  38.0212748  88.8593515  25.0796407  26.8967124
  88.8364203  25.1784094  25.9449007  89.1694151  25.9261558  27.2184290
  91.5180893  27.1372562  31.0113738  92.4724146  27.1056504  30.9443670
  91.3193416  26.6763186  31.8263964  92.1080275  25.7073678  33.5784536
  92.9273164  26.2017757  33.6019373  92.3817083  24.7905646  33.5502103
  89.8731122  32.6792182  28.0283936  89.7385589  31.9192582  27.4621934
  89.4563184  33.4033081  27.5612725  93.0300247  33.5761499  28.2402379
  92.9132632  34.5206931  28.1381069  92.2092694  33.2735060  28.6288178
  87.3615189  20.0411812  34.2776733  88.0074053  19.5310766  34.7663958
  87.1532340  20.7780494  34.8520158  99.8868581  27.1092659  39.7768874
 100.7559741  27.2833312  39.4155508  99.4075333  27.9287076  39.6544603
  94.0554762  34.2289760  31.4558307  94.9582008  34.2613371  31.7724802
  93.8292132  33.2990211  31.4704643  95.8108364  32.9820747  28.1168386
  94.8603995  32.9822609  28.0032758  96.1140850  32.2353482  27.6004420
  91.7012680  17.1879429  38.3751747  92.5644142  16.8316234  38.5855072
  91.1278091  16.8493324  39.0627151 104.2137579  40.6244190  25.1072564
 103.6502444  40.5334127  24.3388852 104.0989974  39.8044094  25.5875056
 101.7602011  42.1195381  27.9456784 102.5523303  41.7786206  27.5303084
 101.9998661  42.2290357  28.8658938 103.7192765  41.3804295  20.8174163
 104.4923641  40.8333282  20.6787039 104.0718164  42.2448544  21.0288624
 105.5577807  42.7080677  34.0241062 105.2667673  43.6126308  33.9087729
 106.1934792  42.7497205  34.7385132 106.4834014  40.0857526  30.6142422
 107.0797587  39.8613548  29.8999385 106.5408986  39.3442271  31.2167870
 105.7755331  39.4425067  20.6516988 105.6591590  38.7669970  21.3198072
 105.8857591  38.9557441  19.8349141 103.9680174  38.8455889  27.0527561
 103.0430671  38.7132103  27.2605252 104.2164587  39.6250109  27.5497503
 107.7381580  36.3882771  20.3371693 107.6181205  36.8339822  21.1757173
 107.0434169  36.7368089  19.7785231 101.3288985  38.4889163  27.8871350
 101.4581366  38.7423642  28.8010761 100.6486436  39.0816871  27.5676005
 105.4988472  49.1586413  23.9861824 105.4212502  50.1094238  24.0650304
 104.8950116  48.8132285  24.6436750 106.2452074  39.1399732  36.2041158
 106.9866759  39.6784776  35.9275981 105.5389060  39.7666020  36.3612709
 107.5964191  41.5804471  25.8215693 108.0602536  41.8592174  25.0320316
 107.3320989  40.6787915  25.6388784 104.4888272  41.1275952  28.7595456
 105.0589629  41.5563221  28.1212941 105.0796384  40.8458537  29.4579642
 106.5333077  37.7027623  22.6305258 107.2357120  38.1548667  23.0979185
 106.2013705  37.0611442  23.2585151 104.9813438  36.2939380  37.0056468
 104.3512099  36.9755661  37.2391865 104.8749526  36.1822461  36.0609606
 100.2758411  35.9611176  27.9322392  99.4857465  36.2168704  27.4562502
 100.7669658  36.7759514  28.0374432 102.2273156  36.3255755  24.8905869
 101.4304319  36.4374449  25.4089364 101.9998748  36.6642407  24.0246759
 108.0578824  42.8500458  32.8388383 108.1223256  43.3120866  33.6746555
 107.3489747  42.2197823  32.9670693  98.5596114  36.2141666  30.3637383
  98.8104152  37.0988676  30.6294959  99.0955662  36.0346268  29.5912474
 107.7726841  44.5168566  22.7067364 107.6372516  45.3620102  23.1352211
 108.3136654  44.7187843  21.9433297 104.2594181  30.5960146  39.3681719
 103.8661126  30.0426344  40.0429363 105.0760321  30.9070724  39.7588236
 101.2256239  42.0344004  23.2795289 101.7380759  42.8287254  23.4300853
 101.8778951  41.3370294  23.2128890 103.0351123  45.1509760  25.3618042
 103.2117752  46.0727725  25.1739026 103.8307957  44.8368179  25.7912422
 107.1762142  32.0118025  36.9601975 107.9171855  32.6125178  36.8806438
 107.4080065  31.2695663  36.4020018 102.3203480  37.1974392  35.2380205
 102.2056995  36.2959649  35.5387304 101.4647998  37.4438089  34.8865022
 104.1582439  46.6687934  31.3628384 104.7089864  46.5404997  30.5905378
 103.3193915  46.9682823  31.0123277  99.1905155  40.3632658  24.0554859
 100.0280377  40.7729667  23.8388567  99.3683423  39.4232100  24.0255053
 106.4458731  30.4942513  28.2081672 107.3111728  30.2985321  27.8487561
 106.5136240  30.2652864  29.1351029 104.0521050  32.7244721  25.5798039
 104.6264802  32.5019902  24.8471232 104.6392033  32.7933415  26.3326640
 104.3790637  34.7549182  19.5993924 103.5427950  35.0923868  19.9203199
 104.2395407  34.6198161  18.6621061 106.3543718  29.5985969  24.3073108
 105.7008130  29.2834987  23.6829723 106.3124192  28.9761710  25.0332931
  99.2131327  37.7023373  24.7265593  99.0155726  37.1092734  24.0016659
  98.6577991  37.3975584  25.4441531 107.1928050  37.5946480  26.8460186
 107.2476660  36.6420316  26.7702662 106.3819252  37.7505919  27.3301484
 105.1320410  36.2123540  24.6050565 104.3188276  36.5117710  25.0115757
 105.6279404  35.8179228  25.3225047 107.2828988  46.2081297  26.5384829
 107.2405167  46.4342143  25.6093361 108.1991687  45.9744671  26.6870630
 104.6234485  33.7841895  30.2211800 105.2633864  33.6430654  29.5234763
 103.7912015  33.4976409  29.8450402 105.3994789  43.0844326  26.3346792
 106.1935387  42.5894646  26.1329367 104.6886481  42.5562189  25.9714498
 101.7077552  37.2287407  22.4106545 100.7775140  37.1671863  22.6276507
 101.8035024  36.7063360  21.6143186 101.6263101  33.7542220  24.9984786
 101.8869919  34.6687553  24.8893947 102.4480274  33.2866663  25.1481399
 103.0988027  35.1679977  32.1683611 103.7711080  34.9597340  31.5196260
 102.2717813  34.9702063  31.7288843 107.9766065  43.6573348  30.0144629
 107.8377151  43.2892132  30.8870567 107.1880661  44.1720987  29.8428587
 103.5015524  38.4422580  32.9286048 103.3635322  37.7102819  33.5297587
 104.4120447  38.3531480  32.6470236 106.1297825  38.1542540  32.4169728
 106.8397443  37.5135732  32.3756346 106.0867133  38.4055435  33.3395908
 104.8426759  35.1407758  34.2365367 104.3064116  34.6898496  34.8886964
 104.2543467  35.2753666  33.4935832 103.1375302  51.9071807  28.1310026
 103.3771900  52.5390331  28.8089044 102.2944499  51.5559847  28.4175385
  95.7731158  39.3873569  26.8933338  96.4602197  39.0735299  26.3054353
  95.6179286  40.2914933  26.6200589 100.5765880  34.2763765  31.3218362
 100.4924069  33.6689435  30.5868772  99.7548586  34.7672784  31.3227858
 107.6503164  47.7150929  30.5351530 107.5773335  48.5205901  31.0470834
 107.2080557  47.9142895  29.7099551 107.4392944  46.9522699  24.0454351
 106.6560465  47.4944380  24.1392576 108.1385689  47.4696679  24.4448593
 107.3324562  34.9034712  26.4160241 106.9622350  34.3505752  27.1041147
 107.8283655  34.2992845  25.8635241 105.1613761  45.3632207  33.5115259
 105.8623220  45.9968690  33.6644653 104.6908876  45.7046938  32.7510899
 100.7581479  44.8968562  30.4446362 101.3434916  44.1512250  30.5774266
 100.5606318  45.2072519  31.3283026 103.6120134  47.9319809  25.4608804
 102.9430510  48.4165937  24.9772844 103.4733004  48.1789030  26.3752183
  95.3499134  37.4674162  29.1650805  95.3883233  36.9337753  29.9587923
  94.8439427  36.9409368  28.5461782 107.7525403  49.9663553  32.0591463
 108.3043711  50.1295174  32.8240548 108.0931596  50.5567991  31.3871488
 102.7289896  32.3138703  32.6613347 102.7931223  33.1753533  32.2490745
 102.6657016  31.7012704  31.9285706 102.2042169  34.3861835  36.3086382
 102.8314207  34.0038912  36.9223906 101.3470087  34.1676037  36.6742074
  98.9807711  36.1938264  22.2404736  99.2761152  35.2848943  22.1871790
  98.0795747  36.1726004  21.9185739 102.5101958  34.2694261  28.2232285
 101.7888544  34.8830228  28.0839758 103.2995214  34.8052026  28.1448931
 105.3128272  31.6048687  34.4972937 105.8362674  31.8510984  35.2599246
 105.0940605  32.4368722  34.0776074 100.7095553  33.8752362  22.3644062
 100.3808259  32.9949741  22.1819168 101.0634924  33.8200031  23.2520451
 103.8237376  34.1625332  22.7319539 104.1633449  34.6911253  22.0098148
 104.2709497  34.5005738  23.5078106 106.5180817  32.5462382  32.1822607
 106.1777637  31.7470195  32.5843287 105.8119823  32.8464093  31.6099441
 107.1697289  29.6311695  30.6349930 107.9923358  29.1572173  30.5128821
 107.4135352  30.4102179  31.1348617 104.6935868  36.3230815  28.4441909
 104.5480448  36.6371119  29.3366191 104.2161071  36.9415716  27.8912808
 106.5532250  33.3133363  28.4922799 106.5393819  32.4174457  28.1555097
 107.2704679  33.3204027  29.1261085  99.1681530  38.8636160  31.3829570
  98.6234998  39.6395968  31.5149845 100.0460880  39.2106964  31.2248692
 105.9569146  32.1947744  23.7610369 106.0785058  31.2664390  23.9601256
 105.6671189  32.2086430  22.8488684  99.9547552  37.9906056  34.2759727
  99.2129288  38.1388691  34.8624357  99.6340296  38.2514322  33.4126476
 100.4004165  45.8771485  26.3070122 101.2262185  45.5775257  25.9268765
 100.0498217  45.1079107  26.7559910 105.3685698  45.2297953  28.3767795
 104.7465708  44.5668658  28.0770023 106.0390565  45.2559085  27.6941443
  98.6012770  43.7957811  27.2659055  97.7644679  43.3679986  27.0843057
  98.5736416  43.9890255  28.2029846 105.4410226  33.7079741  37.9700301
 105.4898381  34.5841864  37.5878071 105.9832740  33.1657134  37.3971945
 104.9299205  43.7801876  21.8526256 105.0787326  44.4637341  21.1992929
 105.7365649  43.7606966  22.3675712 107.6709514  34.4611113  34.7246660
 106.8012824  34.7544680  34.4529248 107.9068995  35.0451558  35.4453924
 102.6851838  39.8067054  22.8587325 102.4397880  38.9029384  23.0567535
 102.8547753  39.8084204  21.9166803 101.9547486  35.5395412  20.3573486
 101.2616731  35.6139767  19.7013522 101.7099238  34.7755755  20.8795003
  97.9162267  36.8567159  27.0507987  97.5965051  36.0032468  26.7582361
  97.3695695  37.0715738  27.8065955 101.6942174  39.5729600  30.7677494
 101.9128184  40.5046708  30.7865528 102.1067948  39.2137575  31.5532298
 106.5670040  35.1462806  40.1580243 106.4666767  36.0957163  40.0892334
 106.3491582  34.8181045  39.2856313  97.7850527  40.4770071  29.0201109
  97.0913998  40.0624024  28.5071063  98.5323518  40.5190607  28.4234528
 106.4301310  38.5759945  38.9745304 105.9468391  39.3760305  39.1809193
 106.5162249  38.5867890  38.0212748  99.6987269  40.4088325  26.8967124
  99.6757957  40.5076012  25.9449007 100.0087906  41.2553475  27.2184290
 102.3574647  42.4664480  31.0113738 103.3117901  42.4348422  30.9443670
 102.1587171  42.0055103  31.8263964 102.9474029  41.0365596  33.5784536
 103.7666918  41.5309674  33.6019373 103.2210837  40.1197564  33.5502103
 100.7124876  48.0084099  28.0283936 100.5779344  47.2484500  27.4621934
 100.2956938  48.7324999  27.5612725 103.8694002  48.9053416  28.2402379
 103.7526386  49.8498849  28.1381069 103.0486448  48.6026978  28.6288178
  98.2008944  35.3703730  34.2776733  98.8467807  34.8602684  34.7663958
  97.9926095  36.1072411  34.8520158 104.8948516  49.5581678  31.4558307
 105.7975763  49.5905288  31.7724802 104.6685886  48.6282129  31.4704643
 106.6502118  48.3112665  28.1168386 105.6997749  48.3114526  28.0032758
 106.9534604  47.5645399  27.6004420 102.5406435  32.5171347  38.3751747
 103.4037896  32.1608152  38.5855072 101.9671845  32.1785242  39.0627151
 106.6124912  54.7165486  26.8933338 107.2995952  54.4027216  26.3054353
 106.4573041  55.6206851  26.6200589 106.1892888  52.7966080  29.1650805
 106.2276988  52.2629670  29.9587923 105.6833181  52.2701285  28.5461782
   1.3999587  51.9561121  86.7960493   0.7487566  52.5415201  86.4094506
   2.1943949  52.4867316  86.8555530   2.7064774  44.2078702  92.6340820
   3.4927864  43.7898126  92.2831237   2.9703479  45.1124795  92.8022468
   2.8774852  49.6451553  87.3329477   2.2420685  49.7186179  88.0450381
   2.5472258  50.2345152  86.6548556   8.1073201  44.1453936  93.5373799
   8.8398373  43.5753153  93.7711628   7.3512557  43.7575536  93.9780304
   5.0429095  44.5250208  87.5425490   5.9546951  44.7577594  87.3673188
   4.5338742  45.1087252  86.9800569   3.6498678  49.5076026  94.9339072
   3.0207540  49.6721740  94.2315140   3.2624340  49.9217636  95.7050036
   7.5287909  50.4430464  92.2883436   6.8438948  50.8229365  91.7380469
   7.6131759  51.0525791  93.0215383   5.8984669  50.9662378  97.0601136
   6.7202113  50.5642566  96.7783818   5.8947072  50.8630612  98.0117252
  13.9890662  47.3101127  93.4086108  13.2354370  46.7408525  93.2530112
  14.1238203  47.2763791  94.3556743   2.6932036  45.6953702  86.1212156
   2.1778660  46.4658307  86.3600543   2.4209345  45.0218838  86.7445217
   7.6666311  48.4486057  88.0565329   6.8895753  48.1097216  87.6120491
   8.3457791  48.4538680  87.3820294   2.4818340  43.5680794  87.9471937
   2.1768475  43.8826943  88.7982080   3.4348782  43.6462214  87.9899270
   5.9057617  47.9220038  94.7131937   5.2481292  48.6119299  94.8012066
   6.7098017  48.3116470  95.0565924   4.7163076  46.2764411  92.7635879
   5.2294958  46.9094403  93.2657589   5.3664300  45.6765606  92.3979239
   1.9785450  56.2548735  85.5196550   1.3047149  56.5580432  86.1281508
   2.3651272  57.0577815  85.1702007   1.9778955  45.1505282  90.1396900
   2.7250774  45.6626679  89.8304022   2.2470544  44.8289335  91.0001293
   5.4824872  51.2570412  90.8915022   5.0287200  50.4161322  90.9480212
   4.8518839  51.8931810  91.2289802   4.4257792  42.1862398  92.1215689
   3.6880549  41.6739784  92.4525932   4.6784566  41.7462780  91.3098966
   3.9257812  53.0946909  91.8264840   4.2180786  53.6551966  91.1077205
   4.4356432  53.3875470  92.5817999   8.0654808  47.4629763  90.5188251
   7.9272706  47.6531359  89.5909440   7.7091026  48.2249146  90.9756302
   8.0924187  49.5306290  95.5299523   8.5260694  49.4381579  96.3782577
   8.8055768  49.5063791  94.8919539   1.8252082  53.1308384  97.0632623
   1.8789104  53.6999321  97.8310339   0.9566863  53.3010269  96.6986661
   1.1333729  50.7000914  93.7806931   0.7983561  50.6601684  94.6764581
   0.6337674  50.0345630  93.3077341   4.0692920  48.0456948  84.0543990
   3.4522091  47.3203776  83.9577043   3.6009409  48.8066308  83.7111065
  10.2081800  46.1303658  94.7080312  10.1971676  47.0128373  94.3374245
   9.3399179  45.7775208  94.5134849   3.4381823  49.1834979  90.6400444
   2.5038102  49.3036442  90.4705148   3.6158492  48.2807446  90.3760454
   6.8254375  45.0252299  91.1750478   7.2914827  45.8580290  91.1010781
   7.2761875  44.5597280  91.8795736   4.8930606  51.3696120  88.1736630
   5.1690450  51.2552714  89.0830504   4.0235104  50.9713605  88.1348803
   1.5284670  55.6182471  91.8169444   1.7107064  54.8004127  92.2797196
   2.3517656  55.8350163  91.3794334   1.8626835  54.5450656  89.0784492
   2.3914602  54.0343110  88.4654654   2.1255055  54.2293186  89.9430025
   2.4956239  55.5791492  95.4228609   2.3707378  54.7781231  94.9139554
   3.1535330  56.0737685  94.9342579   4.5591147  53.3800512  97.0508159
   3.6121483  53.2605863  96.9786485   4.9073920  52.4923010  97.1334420
   1.5637581  53.1753228  93.2512511   1.4162543  52.2469935  93.4320081
   2.3891074  53.1973319  92.7669586   5.1671702  53.9981787  94.3377384
   6.0918250  53.7924648  94.2001835   4.9987006  53.7498188  95.2466725
   1.5599095  41.0291066  88.2444628   1.7762709  41.9115703  87.9433456
   1.0793162  40.6377279  87.5150270   4.9567019  54.5167454  89.6939475
   5.1303896  53.9513877  88.9413328   5.4495910  55.3168349  89.5118965
  10.8106410  47.2803877  91.3129775  11.2537556  46.5311202  90.9148898
   9.9332920  47.2714013  90.9303507   5.9442191  53.8334218  86.7936373
   6.6393096  54.4540911  87.0123688   6.2865341  52.9829570  87.0688751
   7.8433614  51.2833924  88.3223704   8.3684938  51.6221197  87.5973024
   7.7555967  50.3480939  88.1386839  10.3539275  48.7509115  93.7052222
  11.1886166  49.1898919  93.8689783  10.4898403  48.2747769  92.8860468
   3.2554319  54.2233120  86.8320049   4.1884993  54.1578682  87.0352925
   3.1677532  55.0589387  86.3734582   5.8842336  53.5398991  83.7923997
   5.8055968  53.2058854  84.6859755   6.7052003  54.0320759  83.7915469
  14.3997077  47.4676737  96.1406352  15.1300466  47.2062025  96.7014056
  13.7904023  46.7305459  96.1808420  12.4812374  45.6084599  96.7380803
  11.7545538  45.4740564  96.1297295  12.0659661  45.9161428  97.5437521
   5.5278196  38.9322221  90.2629607   4.9476865  39.5907025  89.8807659
   5.2614129  38.1099566  89.8517024   4.3103074  41.0922311  89.3185955
   3.4228929  41.3771962  89.1006150   4.7257063  40.9316075  88.4713232
   7.6617611  41.1168832  93.0340294   8.4378001  41.6065285  93.3064911
   6.9365745  41.5426887  93.4912164  10.0990169  41.8296452  94.0914235
  10.6934660  41.5892187  93.3807543  10.1716753  41.1103582  94.7187771
   3.4546288  50.8566986  83.4133975   4.1582138  51.0616989  84.0291631
   2.7308937  51.4243748  83.6783059   4.2844098  46.6076847  89.5336245
   4.2279300  47.0645399  88.6943878   4.8372441  45.8467532  89.3559088
   8.0948904  42.3966579  90.3586365   7.8385838  41.9963215  91.1894573
   7.4701772  43.1110373  90.2336504  12.4061242  45.1362652  92.8657656
  11.8460800  45.2055842  93.6389218  11.8004745  44.9603637  92.1457152
   5.3632985  51.2949515  85.4632435   6.1978589  50.8630714  85.2809910
   5.2017328  51.1231529  86.3909330   5.0178877  47.7981629  86.8288775
   4.9627681  47.6325900  85.8877219   4.3924933  48.5057661  86.9850964
  13.9917260  61.8119166  95.5587612  14.6295670  61.6925914  94.8550952
  13.8738103  62.7600010  95.6175564  10.8006967  61.7646594  95.4949137
  10.4625478  61.6487659  94.6069672  11.6696735  61.3637760  95.4750143
   6.6593782  63.6182071  91.4846028   6.0958647  63.5272008  90.7162315
   6.5446177  62.7981975  91.9648520  11.2826750  62.9181446 101.4535342
  11.2715390  62.5234244 100.5815846  11.4447389  62.1847519 102.0469114
   4.2058214  65.1133262  94.3230248   4.9979506  64.7724087  93.9076547
   4.4454864  65.2228237  95.2432401  12.2393341  67.2853039  86.7960493
  11.5881321  67.8707119  86.4094506  13.0337704  67.8159233  86.8555530
   6.1648968  64.3742176  87.1947627   6.9379844  63.8271163  87.0560503
   6.5174367  65.2386425  87.4062088   8.9290218  63.0795406  96.9915886
   9.5253790  62.8551429  96.2772849   8.9865189  62.3380152  97.5941334
   8.5015246  60.5334842  84.8266077   8.7540767  60.0116363  84.0649540
   7.5639805  60.3700987  84.9292760  13.5458529  59.5370620  92.6340820
  14.3321618  59.1190043  92.2831237  13.8097233  60.4416712  92.8022468
  13.7168606  64.9743470  87.3329477  13.0814439  65.0478097  88.0450381
  13.3866013  65.5637069  86.6548556  18.9466956  59.4745853  93.5373799
  19.6792128  58.9045070  93.7711628  18.1906312  59.0867454  93.9780304
   8.2211535  62.4362948  87.0290452   8.1047793  61.7607851  87.6971536
   8.3313795  61.9495322  86.2122605  10.5643076  61.8973095  90.7337141
  10.2001283  61.3703716  91.4450062  11.4210192  61.5071564  90.5603626
  16.4692376  53.1867427  97.9968407  16.1375701  54.0562838  97.7729622
  15.8737990  52.8703711  98.6762438  10.2048563  56.9262995  85.7298489
  10.3722965  57.7943231  86.0968961  10.0145732  57.0890276  84.8059779
  12.9623896  65.3879973  97.3964320  12.6624619  66.2905012  97.2880127
  12.6174955  65.1212157  98.2485473   6.4136377  61.8393770  93.4301024
   5.4886874  61.7069984  93.6378716   6.6620791  62.6187990  93.9270967
  16.3621040  57.9062514  95.0761757  15.4537917  57.8377922  94.7820518
  16.3108635  58.3834459  95.9043583  10.1837784  59.3820652  86.7145156
  10.0637409  59.8277703  87.5530637   9.4890372  59.7305970  86.1558694
   3.7745188  61.4827044  94.2644813   3.9037570  61.7361523  95.1784225
   3.0942640  62.0754752  93.9449468   7.9444676  72.1524294  90.3635288
   7.8668705  73.1032119  90.4423768   7.3406319  71.8070166  91.0210214
  18.2282686  56.1078952  96.8539631  17.5857066  56.4011485  96.2079426
  17.7237615  55.9931872  97.6592828  15.8822850  59.8542125  87.5425490
  16.7940706  60.0869512  87.3673188  15.3732497  60.4379169  86.9800569
  14.1663617  64.2766753 101.1786783  14.5746973  63.8349164 100.4341415
  13.4440879  63.7019381 101.4320976  10.5194687  59.2139360  98.5520340
  11.3655883  59.6378773  98.6954989  10.4593325  58.5572984  99.2458903
  14.4892432  64.8367944  94.9339072  13.8601294  65.0013658  94.2315140
  14.1018094  65.2509553  95.7050036  18.3681664  65.7722382  92.2883436
  17.6832702  66.1521283  91.7380469  18.4525513  66.3817708  93.0215383
  13.6694133  56.8743728 100.2101514  13.4255065  57.6285789  99.6735789
  13.9454063  57.2529076 101.0448761  15.6232596  63.4182341  98.8878779
  15.8349491  64.0614100  98.2113160  15.5762344  62.5844657  98.4200709
  13.2258824  56.0300161  95.7915351  12.3643304  56.3281415  96.0832089
  13.2521259  56.2470560  94.8596384  10.0420394  64.5742352  92.1989157
  10.5058739  64.8530055  91.4093779   9.7777192  63.6725796  92.0162248
   6.9344475  64.1213833  95.1368920   7.5045832  64.5501102  94.4986405
   7.5252587  63.8396418  95.8353106   8.9789280  60.6965504  89.0078722
   9.6813323  61.1486548  89.4752648   8.6469908  60.0549323  89.6358615
   2.7214614  58.9549057  94.3095856   1.9313668  59.2106585  93.8335966
   3.2125861  59.7697395  94.4147896  16.7378423  66.2954296  97.0601136
  17.5595867  65.8934483  96.7783818  16.7340826  66.1922530  98.0117252
   4.6729359  59.3193636  91.2679332   3.8760523  59.4312330  91.7862828
   4.4454951  59.6580288  90.4020223  24.8284417  62.6393044  93.4086108
  24.0748125  62.0700443  93.2530112  24.9631958  62.6055709  94.3556743
  10.2183045  67.5106447  89.0840827  10.0828719  68.3557983  89.5125675
  10.7592857  67.7125724  88.3206761   3.6712442  65.0281885  89.6568752
   4.1836963  65.8225135  89.8074317   4.3235155  64.3308175  89.5902354
   5.4807327  68.1447641  91.7391506   5.6573955  69.0665606  91.5512489
   6.2764160  67.8306060  92.1685885  13.9432759  68.4132813 101.2422571
  13.9251234  69.2341694 100.7502840  14.8652679  68.2886888 101.4672712
  13.5675508  51.0337009  97.6139721  13.2239778  51.9238650  97.5378831
  13.9354471  50.8438666  96.7509306   1.6361359  63.3570539  90.4328323
   2.4736581  63.7667547  90.2162031   1.8139626  62.4169981  90.4028517
  13.5325791  61.0245620  86.1212156  13.0172414  61.7950224  86.3600543
  13.2603099  60.3510756  86.7445217  11.1172902  55.8695321  91.1797394
  10.2614498  55.4802171  91.0003033  11.5299854  55.9487281  90.3197180
  12.6472049  53.4041664  95.5788954  12.1436844  53.3671799  94.7656759
  12.9402655  54.3134407  95.6385611   8.8914934  53.4880394  94.5855136
   9.7567931  53.2923202  94.2261025   8.9592443  53.2590745  95.5124492
  18.5060065  63.7777974  88.0565329  17.7289508  63.4389134  87.6120491
  19.1851546  63.7830598  87.3820294  13.3212094  58.8972712  87.9471937
  13.0162230  59.2118861  88.7982080  14.2742536  58.9754132  87.9899270
  11.7658526  65.0562935  89.5964891  11.2379887  64.3215695  89.2838128
  11.2646029  65.8337612  89.3504859  16.7451372  63.2511956  94.7131937
  16.0875046  63.9411217  94.8012066  17.5491771  63.6408388  95.0565924
   6.4977253  55.7182601  91.9571503   7.0721005  55.4957783  91.2244695
   7.0848236  55.7871296  92.7100104  15.5556831  61.6056328  92.7635879
  16.0688712  62.2386320  93.2657589  16.2058055  61.0057524  92.3979239
   6.8246841  57.7487062  85.9767388   5.9884153  58.0861749  86.2976663
   6.6851610  57.6136042  85.0394525   8.7999921  52.5923850  90.6846572
   8.1464334  52.2772868  90.0603187   8.7580395  51.9699591  91.4106395
   9.9111126  62.8743145  82.5999864   9.0038188  62.6432399  82.7991013
  10.4082158  62.0780765  82.7873846  12.8179205  71.5840653  85.5196550
  12.1440904  71.8872349  86.1281508  13.2045027  72.3869733  85.1702007
  12.0337662  59.0805784  95.0094220  11.1160223  59.3020731  94.8515908
  12.4497805  59.1552094  94.1505927  12.8172709  60.4797200  90.1396900
  13.5644528  60.9918597  89.8304022  13.0864299  60.1581252  91.0001293
  11.0899359  62.9755740  87.1223854  10.1810579  62.6914773  87.2196324
  11.1194443  63.3954819  86.2627161  16.3218627  66.5862330  90.8915022
  15.8680954  65.7453240  90.9480212  15.6912594  67.2223728  91.2289802
  15.2651546  57.5154316  92.1215689  14.5274303  57.0031702  92.4525932
  15.5178320  57.0754697  91.3098966  14.7651566  68.4238826  91.8264840
  15.0574541  68.9843884  91.1077205  15.2750187  68.7167387  92.5817999
  15.3663174  50.2930568  92.7157458  15.6722051  49.4327931  92.4283373
  16.0915779  50.8848188  92.5156452   1.6587530  60.6961254  91.1039056
   1.4611930  60.1030615  90.3790123   1.1034194  60.3913465  91.8214995
   9.6384254  60.5884361  93.2233649   9.6932863  59.6358197  93.1476126
   8.8275456  60.7443800  93.7074948  10.7875447  64.5164484  84.4611933
  10.3494877  63.8000343  84.0017570  11.5285888  64.7440599  83.8997024
   7.5776613  59.2061421  90.9824028   6.7644479  59.5055591  91.3889220
   8.0735608  58.8117109  91.6998511   9.7285191  69.2019178  92.9158293
   9.6861370  69.4280024  91.9866825  10.6447890  68.9682552  93.0644094
  13.1750825  59.6703245  99.8138922  13.5300213  59.8974718 100.6733388
  13.8222956  60.0021622  99.1916178  18.9048562  62.7921681  90.5188251
  18.7666461  62.9823277  89.5909440  18.5484781  63.5541064  90.9756302
   7.0690688  56.7779776  96.5985263   7.7090068  56.6368535  95.9008227
   6.2368219  56.4914290  96.2223865  18.9317942  64.8598208  95.5299523
  19.3654448  64.7673497  96.3782577  19.6449522  64.8355708  94.8919539
   7.8450992  66.0782207  92.7120256   8.6391591  65.5832527  92.5102831
   7.1342685  65.5500070  92.3487961  12.6645837  68.4600302  97.0632623
  12.7182859  69.0291238  97.8310339  11.7960618  68.6302187  96.6986661
   4.1533756  60.2225288  88.7880008   3.2231344  60.1609744  89.0049971
   4.2491228  59.7001241  87.9916650   4.0719305  56.7480101  91.3758250
   4.3326122  57.6625434  91.2667411   4.8936477  56.2804544  91.5254863
   5.5444230  58.1617858  98.5457075   6.2167283  57.9535220  97.8969724
   4.7174016  57.9639944  98.1062307  19.7933491  64.9021909  98.0632408
  19.9869381  65.8067719  98.3091683  19.6934109  64.4429328  98.8970993
  11.4469802  54.7879799 100.5622736  10.7997717  55.4869749 100.4687212
  12.2170817  55.2215943 100.9298984  11.6233936  62.6260564  98.6219555
  12.5525996  62.7771724  98.4488523  11.2024966  62.7144585  97.7668202
  10.4222268  66.6511229  96.3918093  10.2833354  66.2830013  97.2644031
   9.6336864  67.1658868  96.2202051  11.0170420  71.7520325  87.7343629
  11.1922176  71.2808368  88.5489252  10.3303208  72.3786091  87.9624890
  11.9727483  66.0292831  93.7806931  11.6377316  65.9893601  94.6764581
  11.4731429  65.3637547  93.3077341  14.9086675  63.3748866  84.0543990
  14.2915846  62.6495694  83.9577043  14.4403163  64.1358226  83.7111065
   8.5754028  61.1480421  98.7943191   9.2853646  60.5073613  98.7529810
   8.5323336  61.3993315  99.7169372  16.5640807  68.0847774 101.7149771
  16.5053353  67.4006994 101.0480354  16.9660325  68.8266764 101.2630397
   7.2882962  58.1345639 100.6138831   6.7520319  57.6836377 101.2660427
   6.6999670  58.2691547  99.8709295   6.6985221  57.5934290  83.1765295
   5.8214687  57.4723091  82.8127541   7.1742974  56.8020368  82.9244183
  16.5658214  66.0487358  99.9463750  15.6784993  65.7113280 100.0690149
  17.1356765  65.3170389 100.1832516   3.0222083  57.2701646  97.6991825
   2.9380272  56.6627316  96.9642235   2.2004790  57.7610665  97.7001322
   9.8849147  69.9460580  90.4227815   9.1016669  70.4882260  90.5166040
  10.5841892  70.4634560  90.8222056  13.1945797  55.7555210  93.0662020
  13.6914497  55.0025172  92.7463091  12.4232778  55.7919526  92.5005230
  21.0475554  61.4595575  94.7080312  21.0365431  62.3420291  94.3374245
  20.1792934  61.1067126  94.5134849  14.2775578  64.5126897  90.6400444
  13.3431856  64.6328359  90.4705148  14.4552246  63.6099364  90.3760454
   9.7780766  57.8972593  92.7933705   9.4078553  57.3443633  93.4814611
  10.2739858  57.2930726  92.2408705  17.6648129  60.3544216  91.1750478
  18.1308581  61.1872208  91.1010781  18.1155630  59.8889198  91.8795736
  15.7324360  66.6988038  88.1736630  16.0084204  66.5844632  89.0830504
  14.8628859  66.3005522  88.1348803  15.6364792  52.7224803  95.2141379
  14.7227872  52.9529030  95.3823586  16.0657893  52.8063247  96.0655412
  15.4071250  60.9114695  97.7141273  14.7542700  61.1590603  97.0593726
  15.7851630  60.0978833  97.3803751  12.3678424  70.9474388  91.8169444
  12.5500819  70.1296044  92.2797196  13.1911410  71.1642081  91.3794334
  12.7020590  69.8742574  89.0784492  13.2308356  69.3635028  88.4654654
  12.9648809  69.5585104  89.9430025   6.0576338  70.9257690  91.8382268
   5.3886713  71.4103818  91.3546308   5.9189207  71.1726911  92.7525647
   5.1746099  55.3076584  99.0386811   5.2387426  56.1691414  98.6264209
   5.1113220  54.6950585  98.3059170   1.4263915  59.1876145  88.6178200
   1.7217356  58.2786824  88.5645254   0.5251950  59.1663885  88.2959203
  13.3349993  70.9083409  95.4228609  13.2101133  70.1073149  94.9139554
  13.9929085  71.4029603  94.9342579   4.9558162  57.2632142  94.6005749
   4.2344747  57.8768109  94.4613222   5.7451417  57.7989907  94.5222395
  15.3984902  68.7092429  97.0508159  14.4515237  68.5897781  96.9786485
  15.7467675  67.8214927  97.1334420   7.7584475  54.5986568 100.8746401
   8.2818877  54.8448865 101.6372710   7.5396808  55.4306603 100.4549538
   3.1551756  56.8690243  88.7417525   2.8264462  55.9887622  88.5592631
   3.5091127  56.8137912  89.6293915  12.4031335  68.5045146  93.2512511
  12.2556298  67.5761853  93.4320081  13.2284829  68.5265236  92.7669586
   6.2693579  57.1563213  89.1093003   6.6089652  57.6849134  88.3871611
   6.7165700  57.4943619  89.8851570  16.0065457  69.3273704  94.3377384
  16.9312004  69.1216566  94.2001835  15.8380760  69.0790105  95.2466725
   8.9637020  55.5400263  98.5596071   8.6233841  54.7408076  98.9616751
   8.2576027  55.8401974  97.9872904   9.6153492  52.6249576  97.0123394
  10.4379561  52.1510054  96.8902284   9.8591556  53.4040060  97.5122080
   8.2561727  55.6537834  87.3086296   8.9770089  56.0319087  86.8050013
   7.6327031  56.3726711  87.4121274  12.3992849  56.3582983  88.2444628
  12.6156464  57.2407621  87.9433456  11.9186917  55.9669197  87.5150270
   7.1392071  59.3168696  94.8215373   6.9936652  59.6308999  95.7139654
   6.6617274  59.9353597  94.2686271   8.9988454  56.3071244  94.8696262
   8.9850022  55.4112338  94.5328560   9.7160882  56.3141908  95.5034548
  10.8514584  56.7408585  96.9149390  10.5932362  57.6625655  96.9133720
  10.3199625  56.3439019  97.6049854  15.7960773  69.8459372  89.6939475
  15.9697651  69.2805794  88.9413328  16.2889664  70.6460267  89.5118965
   8.4025350  55.1885625  90.1383832   8.5241261  54.2602271  90.3374720
   8.1127392  55.2024311  89.2262148  11.2716540  52.8740535  93.2750552
  11.2938237  52.9379868  92.3202532  11.6884599  52.0345044  93.4691058
  21.6500164  62.6095795  91.3129775  22.0931310  61.8603120  90.9148898
  20.7726675  62.6005931  90.9303507  16.7835946  69.1626136  86.7936373
  17.4786850  69.7832829  87.0123688  17.1259096  68.3121487  87.0688751
  18.6827369  66.6125842  88.3223704  19.2078693  66.9513114  87.5973024
  18.5949721  65.6772857  88.1386839  10.3668030  72.6797825  92.6818957
   9.9273020  72.1874204  93.3751814  11.1176146  72.1370793  92.4411033
   7.8141902  68.2235834  94.7541259   7.1921911  67.5606539  94.4543487
   8.4846769  68.2496966  94.0714907  18.3721275  67.2458745 103.6274902
  17.5816819  67.2282884 103.0879402  18.1354629  67.7847039 104.3823939
  18.4919150  64.0951212 100.9407631  18.5417155  63.9301219 101.8823153
  18.3833073  63.2278471 100.5505511   7.3755409  66.7739757  88.2299720
   7.5243529  67.4575222  87.5766392   8.1821852  66.7544847  88.7449175
  15.7822912  60.0782140 102.2566937  16.6832775  59.9388605 101.9650935
  15.8570887  60.2436595 103.1965115  10.1165718  57.4548994 101.1020124
   9.2469027  57.7482561 100.8302712  10.3525198  58.0389439 101.8227387
  19.9937347  66.5148153 101.1849652  19.7022155  66.8778134 102.0213113
  19.3809478  65.8015161 101.0062984  21.1933029  64.0801033  93.7052222
  22.0279920  64.5190837  93.8689783  21.3292158  63.6039686  92.8860468
  18.2424535  61.6380768  99.6529710  18.7178657  61.8308414  98.8448562
  17.3190100  61.6939954  99.4073094   5.1308042  62.8004935  89.2360788
   4.8854084  61.8967265  89.4340999   5.3003956  62.8022085  88.2940266
  12.8204751  53.6728611  98.6185544  13.3386695  54.4089638  98.2932033
  12.4659884  53.9792605  99.4532303   4.4003689  58.5333293  86.7346950
   3.7072934  58.6077648  86.0786986   4.1555441  57.7693636  87.2568467
  13.0717346  50.0928894  94.1386441  13.3519099  49.4252083  94.7646867
  13.8567953  50.2857990  93.6261105  10.8750814  69.2687888  85.7011467
  10.3024781  69.8878075  85.2481939  11.4483608  69.8187250  86.2351389
  16.9426204  58.5146528  97.8858016  17.8943627  58.6144626  97.9070240
  16.7729654  57.7224796  98.3956100  14.9640583  55.6002111  98.0717417
  14.3690516  55.8807124  97.3763905  14.6790280  56.0896012  98.8434158
  14.0948074  69.5525038  86.8320049  15.0278747  69.4870600  87.0352925
  14.0071287  70.3881305  86.3734582  16.7236091  68.8690908  83.7923997
  16.6449722  68.5350772  84.6859755  17.5445757  69.3612676  83.7915469
  19.4214282  61.7352648  97.0000315  19.3890602  60.7968648  97.1859999
  20.0314905  61.8136684  96.2666140  11.2597613  60.6048701  83.0427519
  12.2056717  60.4754909  83.1115938  10.8811858  59.8663362  83.5196948
  19.5708770  58.5263691  97.0458599  19.0547819  57.7422148  96.8588527
  20.4548719  58.1982408  97.2105118  17.2319497  52.2704707  93.0054411
  17.0344318  51.9619795  93.8897743  17.8419203  52.9966346  93.1352341
  25.2390832  62.7968654  96.1406352  25.9694220  62.5353943  96.7014056
  24.6297777  62.0597376  96.1808420  23.3206129  60.9376517  96.7380803
  22.5939292  60.8032482  96.1297295  22.9053416  61.2453346  97.5437521
   9.4440530  58.5298677  82.9782405   8.5371985  58.2331790  83.0545118
   9.7216511  58.2328495  82.1116691  11.0602595  53.0735567  89.1326646
  10.2503324  52.7282652  89.5081892  11.7487012  52.7643110  89.7214258
  12.9893144  52.1513613  90.7550943  13.5424182  52.5709067  91.4140966
  13.2263230  51.2249362  90.7973899   8.2139314  55.3885612  83.1194384
   9.0758478  55.7140510  83.3790201   8.3989659  54.6017108  82.6067450
  16.3671951  54.2614139  90.2629607  15.7870620  54.9198943  89.8807659
  16.1007884  53.4391483  89.8517024  14.8175517  53.6619196  92.4650927
  15.3175296  53.7735731  91.6565246  15.4611125  53.3580249  93.1051736
   2.1443473  63.4026206  93.2740588   2.1214161  63.5013893  92.3222471
   2.4544109  64.2491356  93.5957754  15.1496829  56.4214229  89.3185955
  14.2622684  56.7063880  89.1006150  15.5650818  56.2607992  88.4713232
  18.5011365  56.4460750  93.0340294  19.2771755  56.9357202  93.3064911
  17.7759499  56.8718804  93.4912164  20.9383924  57.1588369  94.0914235
  21.5328414  56.9184105  93.3807543  21.0110507  56.4395500  94.7187771
  14.2940042  66.1858904  83.4133975  14.9975892  66.3908906  84.0291631
  13.5702691  66.7535666  83.6783059  15.1237853  61.9368765  89.5336245
  15.0673054  62.3937316  88.6943878  15.6766195  61.1759450  89.3559088
  18.9342659  57.7258497  90.3586365  18.6779593  57.3255132  91.1894573
  18.3095527  58.4402291  90.2336504  23.2454996  60.4654570  92.8657656
  22.6854554  60.5347759  93.6389218  22.6398500  60.2895555  92.1457152
  16.2026740  66.6241433  85.4632435  17.0372344  66.1922631  85.2809910
  16.0411083  66.4523447  86.3909330  15.8572632  63.1273546  86.8288775
  15.8021436  62.9617818  85.8877219  15.2318687  63.8349579  86.9850964
   9.1668757  52.6281655  86.4074093   9.1547427  53.5723495  86.5642364
  10.0592179  52.4451801  86.1133554   9.0958321  71.3050546  94.4941850
   8.1453952  71.3052407  94.3806222   9.3990808  70.5583280  93.9777884
  12.9820877  49.2224432  90.6620030  12.2153273  48.6682919  90.8076712
  13.3931582  49.2946301  91.5234181  24.8311015  77.1411084  95.5587612
  25.4689425  77.0217831  94.8550952  24.7131858  78.0891928  95.6175564
  21.6400721  77.0938512  95.4949137  21.3019233  76.9779577  94.6069672
  22.5090489  76.6929677  95.4750143  17.4987537  78.9473989  91.4846028
  16.9352402  78.8563925  90.7162315  17.3839932  78.1273893  91.9648520
  22.1220504  78.2473364 101.4535342  22.1109145  77.8526162 100.5815846
  22.2841144  77.5139436 102.0469114  15.0451969  80.4425180  94.3230248
  15.8373261  80.1016005  93.9076547  15.2848619  80.5520155  95.2432401
  23.0787096  82.6144956  86.7960493  22.4275075  83.1999037  86.4094506
  23.8731458  83.1451151  86.8555530  17.0042723  79.7034093  87.1947627
  17.7773599  79.1563080  87.0560503  17.3568122  80.5678343  87.4062088
  19.7683972  78.4087324  96.9915886  20.3647544  78.1843347  96.2772849
  19.8258944  77.6672070  97.5941334  19.3409001  75.8626759  84.8266077
  19.5934521  75.3408281  84.0649540  18.4033560  75.6992905  84.9292760
  24.3852283  74.8662538  92.6340820  25.1715373  74.4481961  92.2831237
  24.6490988  75.7708630  92.8022468  24.5562361  80.3035388  87.3329477
  23.9208194  80.3770015  88.0450381  24.2259767  80.8928987  86.6548556
  29.7860710  74.8037771  93.5373799  30.5185882  74.2336988  93.7711628
  29.0300066  74.4159371  93.9780304  19.0605289  77.7654865  87.0290452
  18.9441547  77.0899769  87.6971536  19.1707549  77.2787239  86.2122605
  21.4036830  77.2265013  90.7337141  21.0395037  76.6995634  91.4450062
  22.2603946  76.8363482  90.5603626  27.3086131  68.5159345  97.9968407
  26.9769456  69.3854756  97.7729622  26.7131744  68.1995629  98.6762438
  21.0442317  72.2554912  85.7298489  21.2116720  73.1235149  86.0968961
  20.8539486  72.4182194  84.8059779  23.8017650  80.7171891  97.3964320
  23.5018373  81.6196930  97.2880127  23.4568710  80.4504074  98.2485473
  17.2530132  77.1685688  93.4301024  16.3280628  77.0361902  93.6378716
  17.5014545  77.9479907  93.9270967  27.2014794  73.2354431  95.0761757
  26.2931671  73.1669840  94.7820518  27.1502390  73.7126376  95.9043583
  21.0231538  74.7112570  86.7145156  20.9031163  75.1569621  87.5530637
  20.3284126  75.0597887  86.1558694  14.6138943  76.8118962  94.2644813
  14.7431324  77.0653440  95.1784225  13.9336394  77.4046670  93.9449468
  18.7838430  87.4816211  90.3635288  18.7062460  88.4324037  90.4423768
  18.1800074  87.1362084  91.0210214  29.0676441  71.4370870  96.8539631
  28.4250821  71.7303403  96.2079426  28.5631369  71.3223790  97.6592828
  26.7216604  75.1834043  87.5425490  27.6334460  75.4161430  87.3673188
  26.2126251  75.7671087  86.9800569  25.0057372  79.6058671 101.1786783
  25.4140728  79.1641081 100.4341415  24.2834633  79.0311298 101.4320976
  21.3588442  74.5431278  98.5520340  22.2049637  74.9670691  98.6954989
  21.2987080  73.8864902  99.2458903  25.3286187  80.1659861  94.9339072
  24.6995049  80.3305576  94.2315140  24.9411849  80.5801471  95.7050036
  29.2075418  81.1014299  92.2883436  28.5226457  81.4813201  91.7380469
  29.2919268  81.7109626  93.0215383  24.5087887  72.2035646 100.2101514
  24.2648819  72.9577706  99.6735789  24.7847818  72.5820993 101.0448761
  26.4626350  78.7474258  98.8878779  26.6743245  79.3906018  98.2113160
  26.4156098  77.9136575  98.4200709  24.0652579  71.3592079  95.7915351
  23.2037058  71.6573332  96.0832089  24.0915014  71.5762478  94.8596384
  20.8814148  79.9034269  92.1989157  21.3452494  80.1821972  91.4093779
  20.6170946  79.0017714  92.0162248  17.7738229  79.4505751  95.1368920
  18.3439587  79.8793019  94.4986405  18.3646341  79.1688336  95.8353106
  19.8183034  76.0257422  89.0078722  20.5207078  76.4778465  89.4752648
  19.4863663  75.3841241  89.6358615  13.5608368  74.2840974  94.3095856
  12.7707422  74.5398503  93.8335966  14.0519616  75.0989312  94.4147896
  27.5772178  81.6246214  97.0601136  28.3989622  81.2226401  96.7783818
  27.5734581  81.5214448  98.0117252  15.5123114  74.6485554  91.2679332
  14.7154277  74.7604248  91.7862828  15.2848706  74.9872206  90.4020223
  35.6678171  77.9684962  93.4086108  34.9141879  77.3992360  93.2530112
  35.8025712  77.9347627  94.3556743  21.0576799  82.8398364  89.0840827
  20.9222474  83.6849900  89.5125675  21.5986612  83.0417642  88.3206761
  14.5106196  80.3573802  89.6568752  15.0230717  81.1517053  89.8074317
  15.1628909  79.6600093  89.5902354  16.3201081  83.4739559  91.7391506
  16.4967709  84.3957523  91.5512489  17.1157915  83.1597978  92.1685885
  20.4612100  70.3347823 103.3375439  21.2021813  70.9354977 103.2579902
  20.6930023  69.5925461 102.7793482  24.7826514  83.7424731 101.2422571
  24.7644989  84.5633612 100.7502840  25.7046434  83.6178806 101.4672712
  24.4069263  66.3628926  97.6139721  24.0633532  67.2530568  97.5378831
  24.7748225  66.1730584  96.7509306  12.4755113  78.6862457  90.4328323
  13.3130335  79.0959465  90.2162031  12.6533381  77.7461899  90.4028517
  24.3719545  76.3537537  86.1212156  23.8566169  77.1242142  86.3600543
  24.0996854  75.6802674  86.7445217  21.9566656  71.1987238  91.1797394
  21.1008253  70.8094089  91.0003033  22.3693608  71.2779199  90.3197180
  23.4865803  68.7333581  95.5788954  22.9830599  68.6963717  94.7656759
  23.7796410  69.6426324  95.6385611  19.7308689  68.8172311  94.5855136
  20.5961686  68.6215120  94.2261025  19.7986198  68.5882663  95.5124492
  29.3453819  79.1069892  88.0565329  28.5683262  78.7681052  87.6120491
  30.0245300  79.1122515  87.3820294  24.1605849  74.2264630  87.9471937
  23.8555984  74.5410779  88.7982080  25.1136291  74.3046049  87.9899270
  22.6052280  80.3854853  89.5964891  22.0773642  79.6507612  89.2838128
  22.1039783  81.1629529  89.3504859  27.5845126  78.5803873  94.7131937
  26.9268801  79.2703135  94.8012066  28.3885526  78.9700305  95.0565924
  17.3371008  71.0474519  91.9571503  17.9114760  70.8249701  91.2244695
  17.9241990  71.1163214  92.7100104  26.3950585  76.9348246  92.7635879
  26.9082467  77.5678238  93.2657589  27.0451809  76.3349442  92.3979239
  17.6640595  73.0778980  85.9767388  16.8277907  73.4153667  86.2976663
  17.5245365  72.9427960  85.0394525  19.6393676  67.9215768  90.6846572
  18.9858088  67.6064785  90.0603187  19.5974150  67.2991508  91.4106395
  20.7504881  78.2035063  82.5999864  19.8431942  77.9724317  82.7991013
  21.2475913  77.4072682  82.7873846  23.6572959  86.9132570  85.5196550
  22.9834658  87.2164267  86.1281508  24.0438781  87.7161651  85.1702007
  22.8731416  74.4097702  95.0094220  21.9553977  74.6312649  94.8515908
  23.2891560  74.4844012  94.1505927  23.6566464  75.8089117  90.1396900
  24.4038283  76.3210514  89.8304022  23.9258053  75.4873170  91.0001293
  21.9293114  78.3047658  87.1223854  21.0204333  78.0206691  87.2196324
  21.9588198  78.7246737  86.2627161  27.1612381  81.9154247  90.8915022
  26.7074709  81.0745157  90.9480212  26.5306348  82.5515646  91.2289802
  26.1045301  72.8446234  92.1215689  25.3668058  72.3323620  92.4525932
  26.3572074  72.4046615  91.3098966  25.6045321  83.7530744  91.8264840
  25.8968295  84.3135801  91.1077205  26.1143941  84.0459305  92.5817999
  26.2056928  65.6222486  92.7157458  26.5115805  64.7619849  92.4283373
  26.9309533  66.2140106  92.5156452  12.4981284  76.0253172  91.1039056
  12.3005684  75.4322533  90.3790123  11.9427948  75.7205382  91.8214995
  20.4778008  75.9176279  93.2233649  20.5326618  74.9650115  93.1476126
  19.6669210  76.0735718  93.7074948  21.6269202  79.8456402  84.4611933
  21.1888632  79.1292261  84.0017570  22.3679643  80.0732516  83.8997024
  18.4170368  74.5353338  90.9824028  17.6038233  74.8347509  91.3889220
  18.9129362  74.1409027  91.6998511  20.5678946  84.5311095  92.9158293
  20.5255125  84.7571942  91.9866825  21.4841645  84.2974470  93.0644094
  24.0144580  74.9995163  99.8138922  24.3693967  75.2266636 100.6733388
  24.6616711  75.3313540  99.1916178  29.7442317  78.1213599  90.5188251
  29.6060215  78.3115195  89.5909440  29.3878535  78.8832982  90.9756302
  17.9084443  72.1071694  96.5985263  18.5483822  71.9660453  95.9008227
  17.0761973  71.8206207  96.2223865  29.7711696  80.1890126  95.5299523
  30.2048203  80.0965415  96.3782577  30.4843277  80.1647626  94.8919539
  18.6844747  81.4074124  92.7120256  19.4785345  80.9124444  92.5102831
  17.9736439  80.8791987  92.3487961  23.5039591  83.7892220  97.0632623
  23.5576613  84.3583156  97.8310339  22.6354372  83.9594105  96.6986661
  14.9927510  75.5517206  88.7880008  14.0625098  75.4901662  89.0049971
  15.0884982  75.0293159  87.9916650  14.9113059  72.0772019  91.3758250
  15.1719876  72.9917352  91.2667411  15.7330231  71.6096461  91.5254863
  16.3837984  73.4909776  98.5457075  17.0561038  73.2827138  97.8969724
  15.5567771  73.2931862  98.1062307  30.6327246  80.2313826  98.0632408
  30.8263136  81.1359637  98.3091683  30.5327864  79.7721245  98.8970993
  22.2863556  70.1171717 100.5622736  21.6391472  70.8161667 100.4687212
  23.0564572  70.5507861 100.9298984  22.4627691  77.9552482  98.6219555
  23.3919751  78.1063641  98.4488523  22.0418721  78.0436503  97.7668202
  21.2616023  81.9803146  96.3918093  21.1227108  81.6121931  97.2644031
  20.4730619  82.4950786  96.2202051  21.8564175  87.0812243  87.7343629
  22.0315930  86.6100286  88.5489252  21.1696963  87.7078009  87.9624890
  22.8121238  81.3584749  93.7806931  22.4771070  81.3185519  94.6764581
  22.3125183  80.6929465  93.3077341  25.7480429  78.7040783  84.0543990
  25.1309600  77.9787611  83.9577043  25.2796918  79.4650144  83.7111065
  19.4147782  76.4772338  98.7943191  20.1247401  75.8365531  98.7529810
  19.3717091  76.7285233  99.7169372  27.4034561  83.4139692 101.7149771
  27.3447107  82.7298912 101.0480354  27.8054079  84.1558682 101.2630397
  18.1276716  73.4637556 100.6138831  17.5914073  73.0128295 101.2660427
  17.5393425  73.5983465  99.8709295  17.5378975  72.9226208  83.1765295
  16.6608442  72.8015008  82.8127541  18.0136728  72.1312286  82.9244183
  27.4051968  81.3779276  99.9463750  26.5178747  81.0405197 100.0690149
  27.9750519  80.6462307 100.1832516  13.8615838  72.5993564  97.6991825
  13.7774026  71.9919233  96.9642235  13.0398544  73.0902582  97.7001322
  20.7242901  85.2752498  90.4227815  19.9410423  85.8174178  90.5166040
  21.4235647  85.7926478  90.8222056  24.0339551  71.0847127  93.0662020
  24.5308251  70.3317090  92.7463091  23.2626533  71.1211444  92.5005230
  31.8869309  76.7887493  94.7080312  31.8759185  77.6712208  94.3374245
  31.0186688  76.4359044  94.5134849  25.1169332  79.8418815  90.6400444
  24.1825611  79.9620277  90.4705148  25.2946001  78.9391281  90.3760454
  20.6174520  73.2264510  92.7933705  20.2472308  72.6735551  93.4814611
  21.1133613  72.6222644  92.2408705  28.5041884  75.6836134  91.1750478
  28.9702336  76.5164126  91.1010781  28.9549384  75.2181115  91.8795736
  26.5718115  82.0279955  88.1736630  26.8477959  81.9136550  89.0830504
  25.7022613  81.6297440  88.1348803  26.4758546  68.0516721  95.2141379
  25.5621626  68.2820948  95.3823586  26.9051648  68.1355165  96.0655412
  26.2465005  76.2406613  97.7141273  25.5936455  76.4882520  97.0593726
  26.6245385  75.4270751  97.3803751  23.2072179  86.2766306  91.8169444
  23.3894573  85.4587962  92.2797196  24.0305165  86.4933998  91.3794334
  23.5414344  85.2034491  89.0784492  24.0702111  84.6926946  88.4654654
  23.8042564  84.8877021  89.9430025  16.8970092  86.2549608  91.8382268
  16.2280467  86.7395735  91.3546308  16.7582962  86.5018828  92.7525647
  16.0139854  70.6368501  99.0386811  16.0781180  71.4983332  98.6264209
  15.9506974  70.0242503  98.3059170  12.2657669  74.5168063  88.6178200
  12.5611110  73.6078741  88.5645254  11.3645705  74.4955802  88.2959203
  24.1743748  86.2375327  95.4228609  24.0494887  85.4365067  94.9139554
  24.8322839  86.7321520  94.9342579  15.7951916  72.5924059  94.6005749
  15.0738502  73.2060027  94.4613222  16.5845172  73.1281824  94.5222395
  26.2378656  84.0384347  97.0508159  25.2908992  83.9189698  96.9786485
  26.5861429  83.1506845  97.1334420  18.5978230  69.9278486 100.8746401
  19.1212631  70.1740782 101.6372710  18.3790563  70.7598521 100.4549538
  13.9945511  72.1982160  88.7417525  13.6658217  71.3179539  88.5592631
  14.3484881  72.1429829  89.6293915  23.2425090  83.8337063  93.2512511
  23.0950052  82.9053771  93.4320081  24.0678583  83.8557154  92.7669586
  17.1087334  72.4855130  89.1093003  17.4483406  73.0141052  88.3871611
  17.5559454  72.8235536  89.8851570  26.8459211  84.6565622  94.3377384
  27.7705759  84.4508483  94.2001835  26.6774515  84.4082023  95.2466725
  19.8030775  70.8692181  98.5596071  19.4627595  70.0699994  98.9616751
  19.0969781  71.1693892  97.9872904  20.4547247  67.9541493  97.0123394
  21.2773316  67.4801972  96.8902284  20.6985310  68.7331977  97.5122080
  19.0955481  70.9829752  87.3086296  19.8163844  71.3611005  86.8050013
  18.4720785  71.7018629  87.4121274  23.2386604  71.6874901  88.2444628
  23.4550218  72.5699539  87.9433456  22.7580671  71.2961114  87.5150270
  17.9785825  74.6460614  94.8215373  17.8330406  74.9600917  95.7139654
  17.5011029  75.2645514  94.2686271  19.8382208  71.6363162  94.8696262
  19.8243777  70.7404255  94.5328560  20.5554636  71.6433826  95.5034548
  21.6908339  72.0700502  96.9149390  21.4326117  72.9917573  96.9133720
  21.1593379  71.6730937  97.6049854  26.6354528  85.1751289  89.6939475
  26.8091405  84.6097712  88.9413328  27.1283419  85.9752184  89.5118965
  19.2419104  70.5177542  90.1383832  19.3635015  69.5894189  90.3374720
  18.9521146  70.5316228  89.2262148  22.1110295  68.2032453  93.2750552
  22.1331991  68.2671786  92.3202532  22.5278354  67.3636961  93.4691058
  32.4893919  77.9387712  91.3129775  32.9325065  77.1895038  90.9148898
  31.6120429  77.9297849  90.9303507  27.6229700  84.4918054  86.7936373
  28.3180605  85.1124746  87.0123688  27.9652850  83.6413405  87.0688751
  29.5221123  81.9417759  88.3223704  30.0472447  82.2805032  87.5973024
  29.4343476  81.0064775  88.1386839  21.2061784  88.0089743  92.6818957
  20.7666774  87.5166121  93.3751814  21.9569901  87.4662710  92.4411033
  18.6535656  83.5527752  94.7541259  18.0315665  82.8898457  94.4543487
  19.3240523  83.5788884  94.0714907  29.2115029  82.5750663 103.6274902
  28.4210573  82.5574802 103.0879402  28.9748384  83.1138957 104.3823939
  29.3312904  79.4243129 100.9407631  29.3810909  79.2593137 101.8823153
  29.2226828  78.5570388 100.5505511  18.2149163  82.1031675  88.2299720
  18.3637283  82.7867139  87.5766392  19.0215607  82.0836765  88.7449175
  26.6216667  75.4074057 102.2566937  27.5226530  75.2680522 101.9650935
  26.6964641  75.5728512 103.1965115  20.9559472  72.7840912 101.1020124
  20.0862782  73.0774478 100.8302712  21.1918952  73.3681357 101.8227387
  30.8331101  81.8440071 101.1849652  30.5415910  82.2070051 102.0213113
  30.2203232  81.1307079 101.0062984  32.0326784  79.4092951  93.7052222
  32.8673675  79.8482755  93.8689783  32.1685912  78.9331604  92.8860468
  29.0818289  76.9672685  99.6529710  29.5572411  77.1600332  98.8448562
  28.1583855  77.0231871  99.4073094  15.9701796  78.1296853  89.2360788
  15.7247838  77.2259183  89.4340999  16.1397711  78.1314003  88.2940266
  23.6598506  69.0020529  98.6185544  24.1780450  69.7381556  98.2932033
  23.3053639  69.3084522  99.4532303  15.2397444  73.8625210  86.7346950
  14.5466689  73.9369565  86.0786986  14.9949195  73.0985554  87.2568467
  23.9111100  65.4220812  94.1386441  24.1912854  64.7544001  94.7646867
  24.6961707  65.6149907  93.6261105  21.7144569  84.5979805  85.7011467
  21.1418536  85.2169993  85.2481939  22.2877362  85.1479167  86.2351389
  27.7819958  73.8438446  97.8858016  28.7337381  73.9436543  97.9070240
  27.6123409  73.0516714  98.3956100  25.8034338  70.9294029  98.0717417
  25.2084270  71.2099042  97.3763905  25.5184035  71.4187930  98.8434158
  24.9341828  84.8816956  86.8320049  25.8672502  84.8162517  87.0352925
  24.8465041  85.7173222  86.3734582  27.5629845  84.1982826  83.7923997
  27.4843477  83.8642690  84.6859755  28.3839512  84.6904594  83.7915469
  30.2608036  77.0644565  97.0000315  30.2284356  76.1260566  97.1859999
  30.8708660  77.1428602  96.2666140  22.0991367  75.9340618  83.0427519
  23.0450472  75.8046826  83.1115938  21.7205612  75.1955280  83.5196948
  30.4102525  73.8555609  97.0458599  29.8941573  73.0714065  96.8588527
  31.2942473  73.5274325  97.2105118  28.0713252  67.5996624  93.0054411
  27.8738073  67.2911712  93.8897743  28.6812957  68.3258263  93.1352341
  36.0784586  78.1260572  96.1406352  36.8087975  77.8645860  96.7014056
  35.4691532  77.3889294  96.1808420  34.1599883  76.2668435  96.7380803
  33.4333047  76.1324400  96.1297295  33.7447170  76.5745263  97.5437521
  20.2834284  73.8590595  82.9782405  19.3765740  73.5623707  83.0545118
  20.5610265  73.5620413  82.1116691  11.2012225  75.1796958  93.4281451
  10.8815009  74.3262266  93.1355825  10.6545653  75.3945536  94.1839418
  21.8996350  68.4027484  89.1326646  21.0897078  68.0574569  89.5081892
  22.5880767  68.0935028  89.7214258  23.8286898  67.4805531  90.7550943
  24.3817937  67.9000985  91.4140966  24.0656985  66.5541279  90.7973899
  19.0533069  70.7177530  83.1194384  19.9152233  71.0432428  83.3790201
  19.2383413  69.9309026  82.6067450  27.2065705  69.5906056  90.2629607
  26.6264374  70.2490860  89.8807659  26.9401638  68.7683401  89.8517024
  25.6569272  68.9911114  92.4650927  26.1569050  69.1027649  91.6565246
  26.3004880  68.6872167  93.1051736  12.9837227  78.7318123  93.2740588
  12.9607915  78.8305811  92.3222471  13.2937864  79.5783274  93.5957754
  25.9890583  71.7506147  89.3185955  25.1016438  72.0355797  89.1006150
  26.4044572  71.5899910  88.4713232  29.3405120  71.7752668  93.0340294
  30.1165510  72.2649120  93.3064911  28.6153254  72.2010722  93.4912164
  31.7777678  72.4880287  94.0914235  32.3722169  72.2476023  93.3807543
  31.8504262  71.7687417  94.7187771  25.1333797  81.5150821  83.4133975
  25.8369647  81.7200824  84.0291631  24.4096446  82.0827583  83.6783059
  25.9631607  77.2660683  89.5336245  25.9066809  77.7229234  88.6943878
  26.5159950  76.5051367  89.3559088  29.7736413  73.0550414  90.3586365
  29.5173347  72.6547050  91.1894573  29.1489281  73.7694208  90.2336504
  34.0848751  75.7946488  92.8657656  33.5248309  75.8639677  93.6389218
  33.4792254  75.6187472  92.1457152  27.0420494  81.9533351  85.4632435
  27.8766098  81.5214549  85.2809910  26.8804837  81.7815364  86.3909330
  26.6966386  78.4565464  86.8288775  26.6415190  78.2909735  85.8877219
  26.0712442  79.1641497  86.9850964  20.0062512  67.9573573  86.4074093
  19.9941182  68.9015413  86.5642364  20.8985934  67.7743718  86.1133554
  19.9352076  86.6342463  94.4941850  18.9847707  86.6344325  94.3806222
  20.2384562  85.8875198  93.9777884  23.8214631  64.5516350  90.6620030
  23.0547027  63.9974836  90.8076712  24.2325336  64.6238218  91.5234181
  35.6704769  92.4703002  95.5587612  36.3083179  92.3509749  94.8550952
  35.5525612  93.4183846  95.6175564  32.4794476  92.4230430  95.4949137
  32.1412987  92.3071494  94.6069672  33.3484244  92.0221595  95.4750143
  28.3381291  94.2765906  91.4846028  27.7746156  94.1855843  90.7162315
  28.2233686  93.4565811  91.9648520  32.9614259  93.5765282 101.4535342
  32.9502899  93.1818080 100.5815846  33.1234898  92.8431354 102.0469114
  25.8845723  95.7717098  94.3230248  26.6767015  95.4307922  93.9076547
  26.1242373  95.8812073  95.2432401  33.9180850  97.9436874  86.7960493
  33.2668830  98.5290954  86.4094506  34.7125213  98.4743069  86.8555530
  27.8436477  95.0326011  87.1947627  28.6167353  94.4854998  87.0560503
  28.1961876  95.8970260  87.4062088  30.6077727  93.7379242  96.9915886
  31.2041299  93.5135264  96.2772849  30.6652698  92.9963987  97.5941334
  30.1802755  91.1918677  84.8266077  30.4328276  90.6700198  84.0649540
  29.2427314  91.0284823  84.9292760  35.2246038  90.1954456  92.6340820
  36.0109127  89.7773879  92.2831237  35.4884742  91.1000548  92.8022468
  35.3956115  95.6327306  87.3329477  34.7601948  95.7061932  88.0450381
  35.0653522  96.2220905  86.6548556  40.6254465  90.1329689  93.5373799
  41.3579637  89.5628906  93.7711628  39.8693821  89.7451289  93.9780304
  29.8999044  93.0946783  87.0290452  29.7835302  92.4191686  87.6971536
  30.0101304  92.6079157  86.2122605  32.2430585  92.5556930  90.7337141
  31.8788792  92.0287551  91.4450062  33.0997701  92.1655399  90.5603626
  38.1479885  83.8451263  97.9968407  37.8163210  84.7146674  97.7729622
  37.5525499  83.5287547  98.6762438  31.8836072  87.5846830  85.7298489
  32.0510474  88.4527066  86.0968961  31.6933241  87.7474112  84.8059779
  34.6411405  96.0463809  97.3964320  34.3412128  96.9488848  97.2880127
  34.2962464  95.7795992  98.2485473  28.0923886  92.4977606  93.4301024
  27.1674383  92.3653820  93.6378716  28.3408300  93.2771825  93.9270967
  38.0408549  88.5646349  95.0761757  37.1325426  88.4961757  94.7820518
  37.9896144  89.0418294  95.9043583  31.8625293  90.0404487  86.7145156
  31.7424918  90.4861538  87.5530637  31.1677881  90.3889805  86.1558694
  25.4532697  92.1410879  94.2644813  25.5825079  92.3945358  95.1784225
  24.7730149  92.7338587  93.9449468  39.9070195  86.7662787  96.8539631
  39.2644575  87.0595321  96.2079426  39.4025124  86.6515708  97.6592828
  37.5610359  90.5125961  87.5425490  38.4728215  90.7453347  87.3673188
  37.0520006  91.0963005  86.9800569  35.8451126  94.9350588 101.1786783
  36.2534482  94.4932999 100.4341415  35.1228388  94.3603216 101.4320976
  32.1982196  89.8723195  98.5520340  33.0443392  90.2962609  98.6954989
  32.1380834  89.2156820  99.2458903  36.1679941  95.4951779  94.9339072
  35.5388803  95.6597493  94.2315140  35.7805603  95.9093389  95.7050036
  40.0469173  96.4306217  92.2883436  39.3620211  96.8105118  91.7380469
  40.1313022  97.0401544  93.0215383  35.3481642  87.5327564 100.2101514
  35.1042574  88.2869624  99.6735789  35.6241572  87.9112911 101.0448761
  37.3020105  94.0766176  98.8878779  37.5137000  94.7197936  98.2113160
  37.2549853  93.2428492  98.4200709  34.9046333  86.6883997  95.7915351
  34.0430812  86.9865250  96.0832089  34.9308768  86.9054395  94.8596384
  31.7207903  95.2326187  92.1989157  32.1846248  95.5113890  91.4093779
  31.4564701  94.3309632  92.0162248  28.6131984  94.7797669  95.1368920
  29.1833341  95.2084937  94.4986405  29.2040096  94.4980253  95.8353106
  30.6576789  91.3549340  89.0078722  31.3600832  91.8070383  89.4752648
  30.3257417  90.7133158  89.6358615  24.4002123  89.6132892  94.3095856
  23.6101177  89.8690421  93.8335966  24.8913370  90.4281230  94.4147896
  38.4165932  96.9538131  97.0601136  39.2383376  96.5518319  96.7783818
  38.4128335  96.8506366  98.0117252  26.3516868  89.9777471  91.2679332
  25.5548032  90.0896166  91.7862828  26.1242460  90.3164124  90.4020223
  46.5071926  93.2976880  93.4086108  45.7535634  92.7284278  93.2530112
  46.6419467  93.2639544  94.3556743  31.8970554  98.1690282  89.0840827
  31.7616228  99.0141818  89.5125675  32.4380366  98.3709560  88.3206761
  25.3499951  95.6865720  89.6568752  25.8624472  96.4808970  89.8074317
  26.0022664  94.9892011  89.5902354  27.1594836  98.8031476  91.7391506
  27.3361464  99.7249441  91.5512489  27.9551669  98.4889896  92.1685885
  31.3005854  85.6639741 103.3375439  32.0415568  86.2646894 103.2579902
  31.5323777  84.9217379 102.7793482  35.6220268  99.0716649 101.2422571
  35.6038743  99.8925530 100.7502840  36.5440188  98.9470724 101.4672712
  35.2463017  81.6920844  97.6139721  34.9027287  82.5822486  97.5378831
  35.6141980  81.5022502  96.7509306  23.3148868  94.0154374  90.4328323
  24.1524090  94.4251383  90.2162031  23.4927135  93.0753817  90.4028517
  35.2113300  91.6829455  86.1212156  34.6959923  92.4534060  86.3600543
  34.9390608  91.0094591  86.7445217  32.7960411  86.5279156  91.1797394
  31.9402007  86.1386006  91.0003033  33.2087363  86.6071117  90.3197180
  34.3259558  84.0625499  95.5788954  33.8224353  84.0255634  94.7656759
  34.6190164  84.9718242  95.6385611  30.5702443  84.1464229  94.5855136
  31.4355440  83.9507038  94.2261025  30.6379952  83.9174581  95.5124492
  40.1847574  94.4361810  88.0565329  39.4077017  94.0972969  87.6120491
  40.8639055  94.4414433  87.3820294  34.9999603  89.5556547  87.9471937
  34.6949739  89.8702696  88.7982080  35.9530045  89.6337967  87.9899270
  33.4446035  95.7146771  89.5964891  32.9167396  94.9799530  89.2838128
  32.9433538  96.4921447  89.3504859  38.4238881  93.9095791  94.7131937
  37.7662555  94.5995052  94.8012066  39.2279280  94.2992223  95.0565924
  28.1764762  86.3766437  91.9571503  28.7508514  86.1541618  91.2244695
  28.7635745  86.4455131  92.7100104  37.2344340  92.2640164  92.7635879
  37.7476221  92.8970156  93.2657589  37.8845564  91.6641359  92.3979239
  28.5034350  88.4070898  85.9767388  27.6671662  88.7445584  86.2976663
  28.3639119  88.2719878  85.0394525  30.4787430  83.2507686  90.6846572
  29.8251843  82.9356703  90.0603187  30.4367904  82.6283426  91.4106395
  31.5898635  93.5326981  82.5999864  30.6825697  93.3016234  82.7991013
  32.0869667  92.7364600  82.7873846  34.4966714 102.2424488  85.5196550
  33.8228413 102.5456185  86.1281508  34.8832536 103.0453568  85.1702007
  33.7125171  89.7389619  95.0094220  32.7947732  89.9604566  94.8515908
  34.1285314  89.8135930  94.1505927  34.4960218  91.1381035  90.1396900
  35.2432037  91.6502432  89.8304022  34.7651808  90.8165088  91.0001293
  32.7686868  93.6339576  87.1223854  31.8598088  93.3498608  87.2196324
  32.7981952  94.0538654  86.2627161  38.0006136  97.2446165  90.8915022
  37.5468463  96.4037075  90.9480212  37.3700103  97.8807564  91.2289802
  36.9439055  88.1738151  92.1215689  36.2061812  87.6615537  92.4525932
  37.1965829  87.7338533  91.3098966  36.4439075  99.0822662  91.8264840
  36.7362050  99.6427719  91.1077205  36.9537696  99.3751223  92.5817999
  37.0450683  80.9514403  92.7157458  37.3509560  80.0911767  92.4283373
  37.7703288  81.5432023  92.5156452  23.3375039  91.3545090  91.1039056
  23.1399439  90.7614450  90.3790123  22.7821703  91.0497300  91.8214995
  31.3171763  91.2468196  93.2233649  31.3720372  90.2942033  93.1476126
  30.5062965  91.4027635  93.7074948  32.4662956  95.1748319  84.4611933
  32.0282386  94.4584178  84.0017570  33.2073397  95.4024434  83.8997024
  29.2564122  89.8645256  90.9824028  28.4431988  90.1639427  91.3889220
  29.7523117  89.4700945  91.6998511  31.4072700  99.8603013  92.9158293
  31.3648879 100.0863859  91.9866825  32.3235399  99.6266388  93.0644094
  34.8538334  90.3287080  99.8138922  35.2087722  90.5558554 100.6733388
  35.5010465  90.6605457  99.1916178  40.5836071  93.4505516  90.5188251
  40.4453970  93.6407112  89.5909440  40.2272290  94.2124899  90.9756302
  28.7478197  87.4363612  96.5985263  29.3877577  87.2952371  95.9008227
  27.9155728  87.1498125  96.2223865  40.6105451  95.5182043  95.5299523
  41.0441957  95.4257332  96.3782577  41.3237031  95.4939544  94.8919539
  29.5238501  96.7366042  92.7120256  30.3179100  96.2416362  92.5102831
  28.8130193  96.2083905  92.3487961  34.3433346  99.1184137  97.0632623
  34.3970368  99.6875074  97.8310339  33.4748127  99.2886023  96.6986661
  25.8321265  90.8809124  88.7880008  24.9018853  90.8193579  89.0049971
  25.9278737  90.3585076  87.9916650  25.7506814  87.4063937  91.3758250
  26.0113631  88.3209270  91.2667411  26.5723986  86.9388379  91.5254863
  27.2231739  88.8201694  98.5457075  27.8954792  88.6119056  97.8969724
  26.3961525  88.6223780  98.1062307  41.4721000  95.5605744  98.0632408
  41.6656890  96.4651555  98.3091683  41.3721618  95.1013163  98.8970993
  33.1257311  85.4463635 100.5622736  32.4785226  86.1453584 100.4687212
  33.8958326  85.8799779 100.9298984  33.3021445  93.2844400  98.6219555
  34.2313505  93.4355559  98.4488523  32.8812475  93.3728420  97.7668202
  32.1009777  97.3095064  96.3918093  31.9620863  96.9413848  97.2644031
  31.3124373  97.8242703  96.2202051  32.6957929 102.4104160  87.7343629
  32.8709685 101.9392204  88.5489252  32.0090717 103.0369927  87.9624890
  33.6514992  96.6876667  93.7806931  33.3164825  96.6477437  94.6764581
  33.1518938  96.0221383  93.3077341  36.5874184  94.0332701  84.0543990
  35.9703355  93.3079529  83.9577043  36.1190672  94.7942061  83.7111065
  30.2541537  91.8064256  98.7943191  30.9641155  91.1657448  98.7529810
  30.2110845  92.0577151  99.7169372  28.9670471  88.7929474 100.6138831
  28.4307828  88.3420212 101.2660427  28.3787179  88.9275383  99.8709295
  28.3772730  88.2518125  83.1765295  27.5002196  88.1306926  82.8127541
  28.8530483  87.4604204  82.9244183  38.2445723  96.7071193  99.9463750
  37.3572502  96.3697115 100.0690149  38.8144274  95.9754224 100.1832516
  24.7009592  87.9285482  97.6991825  24.6167781  87.3211151  96.9642235
  23.8792298  88.4194500  97.7001322  31.5636656 100.6044416  90.4227815
  30.7804178 101.1466096  90.5166040  32.2629401 101.1218395  90.8222056
  34.8733306  86.4139045  93.0662020  35.3702005  85.6609007  92.7463091
  34.1020287  86.4503362  92.5005230  42.7263063  92.1179411  94.7080312
  42.7152940  93.0004126  94.3374245  41.8580443  91.7650961  94.5134849
  35.9563087  95.1710732  90.6400444  35.0219365  95.2912195  90.4705148
  36.1339755  94.2683199  90.3760454  31.4568275  88.5556428  92.7933705
  31.0866062  88.0027468  93.4814611  31.9527367  87.9514562  92.2408705
  39.3435638  91.0128052  91.1750478  39.8096090  91.8456043  91.1010781
  39.7943138  90.5473033  91.8795736  37.4111869  97.3571873  88.1736630
  37.6871713  97.2428467  89.0830504  36.5416368  96.9589358  88.1348803
  37.3152301  83.3808639  95.2141379  36.4015381  83.6112865  95.3823586
  37.7445402  83.4647083  96.0655412  37.0858759  91.5698531  97.7141273
  36.4330209  91.8174438  97.0593726  37.4639139  90.7562669  97.3803751
  34.0465933 101.6058224  91.8169444  34.2288328 100.7879880  92.2797196
  34.8698919 101.8225916  91.3794334  34.3808099 100.5326409  89.0784492
  34.9095865 100.0218863  88.4654654  34.6436318 100.2168939  89.9430025
  26.8533608  85.9660419  99.0386811  26.9174935  86.8275250  98.6264209
  26.7900729  85.3534421  98.3059170  23.1051424  89.8459981  88.6178200
  23.4004865  88.9370659  88.5645254  22.2039459  89.8247720  88.2959203
  35.0137502 101.5667245  95.4228609  34.8888642 100.7656984  94.9139554
  35.6716594 102.0613438  94.9342579  26.6345671  87.9215977  94.6005749
  25.9132256  88.5351945  94.4613222  27.4238926  88.4573742  94.5222395
  37.0772411  99.3676265  97.0508159  36.1302746  99.2481616  96.9786485
  37.4255184  98.4798763  97.1334420  29.4371984  85.2570404 100.8746401
  29.9606386  85.5032700 101.6372710  29.2184317  86.0890438 100.4549538
  24.8339265  87.5274078  88.7417525  24.5051971  86.6471457  88.5592631
  25.1878636  87.4721747  89.6293915  34.0818844  99.1628981  93.2512511
  33.9343807  98.2345688  93.4320081  34.9072338  99.1849072  92.7669586
  27.9481088  87.8147048  89.1093003  28.2877161  88.3432969  88.3871611
  28.3953209  88.1527454  89.8851570  37.6852966  99.9857540  94.3377384
  38.6099513  99.7800401  94.2001835  37.5168269  99.7373941  95.2466725
  30.6424529  86.1984099  98.5596071  30.3021350  85.3991912  98.9616751
  29.9363535  86.4985810  97.9872904  31.2941001  83.2833411  97.0123394
  32.1167070  82.8093889  96.8902284  31.5379065  84.0623895  97.5122080
  29.9349236  86.3121670  87.3086296  30.6557598  86.6902922  86.8050013
  29.3114540  87.0310546  87.4121274  34.0780358  87.0166819  88.2444628
  34.2943973  87.8991456  87.9433456  33.5974426  86.6253032  87.5150270
  28.8179580  89.9752532  94.8215373  28.6724161  90.2892835  95.7139654
  28.3404783  90.5937432  94.2686271  30.6775963  86.9655080  94.8696262
  30.6637531  86.0696173  94.5328560  31.3948391  86.9725743  95.5034548
  32.5302093  87.3992420  96.9149390  32.2719871  88.3209491  96.9133720
  31.9987134  87.0022854  97.6049854  37.4748282 100.5043207  89.6939475
  37.6485160  99.9389630  88.9413328  37.9677173 101.3044102  89.5118965
  30.0812859  85.8469460  90.1383832  30.2028770  84.9186106  90.3374720
  29.7914901  85.8608146  89.2262148  32.9504049  83.5324370  93.2750552
  32.9725746  83.5963704  92.3202532  33.3672108  82.6928879  93.4691058
  43.3287673  93.2679630  91.3129775  43.7718819  92.5186955  90.9148898
  42.4514184  93.2589766  90.9303507  38.4623455  99.8209971  86.7936373
  39.1574359 100.4416664  87.0123688  38.8046605  98.9705323  87.0688751
  40.3614878  97.2709677  88.3223704  40.8866202  97.6096950  87.5973024
  40.2737230  96.3356692  88.1386839  32.0455539 103.3381660  92.6818957
  31.6060529 102.8458039  93.3751814  32.7963655 102.7954628  92.4411033
  29.4929411  98.8819669  94.7541259  28.8709420  98.2190374  94.4543487
  30.1634278  98.9080801  94.0714907  40.1706659  94.7535047 100.9407631
  40.2204664  94.5885054 101.8823153  40.0620582  93.8862306 100.5505511
  29.0542918  97.4323593  88.2299720  29.2031038  98.1159057  87.5766392
  29.8609361  97.4128683  88.7449175  37.4610421  90.7365975 102.2566937
  38.3620284  90.5972440 101.9650935  37.5358396  90.9020430 103.1965115
  31.7953227  88.1132830 101.1020124  30.9256536  88.4066396 100.8302712
  32.0312707  88.6973275 101.8227387  42.8720538  94.7384868  93.7052222
  43.7067429  95.1774672  93.8689783  43.0079667  94.2623522  92.8860468
  39.9212044  92.2964603  99.6529710  40.3966166  92.4892249  98.8448562
  38.9977609  92.3523789  99.4073094  26.8095551  93.4588770  89.2360788
  26.5641592  92.5551100  89.4340999  26.9791465  93.4605921  88.2940266
  34.4992260  84.3312447  98.6185544  35.0174204  85.0673474  98.2932033
  34.1447393  84.6376440  99.4532303  26.0791198  89.1917128  86.7346950
  25.3860443  89.2661483  86.0786986  25.8342950  88.4277472  87.2568467
  34.7504855  80.7512729  94.1386441  35.0306608  80.0835918  94.7646867
  35.5355462  80.9441825  93.6261105  32.5538323  99.9271723  85.7011467
  31.9812290 100.5461910  85.2481939  33.1271117 100.4771085  86.2351389
  38.6213713  89.1730363  97.8858016  39.5731136  89.2728461  97.9070240
  38.4517163  88.3808632  98.3956100  36.6428092  86.2585946  98.0717417
  36.0478025  86.5390959  97.3763905  36.3577789  86.7479847  98.8434158
  35.7735583 100.2108873  86.8320049  36.7066256 100.1454435  87.0352925
  35.6858796 101.0465140  86.3734582  38.4023600  99.5274744  83.7923997
  38.3237231  99.1934607  84.6859755  39.2233266 100.0196512  83.7915469
  41.1001791  92.3936483  97.0000315  41.0678111  91.4552484  97.1859999
  41.7102414  92.4720520  96.2666140  32.9385122  91.2632536  83.0427519
  33.8844226  91.1338744  83.1115938  32.5599367  90.5247198  83.5196948
  41.2496279  89.1847526  97.0458599  40.7335328  88.4005983  96.8588527
  42.1336228  88.8566243  97.2105118  38.9107006  82.9288542  93.0054411
  38.7131827  82.6203630  93.8897743  39.5206712  83.6550181  93.1352341
  46.9178341  93.4552490  96.1406352  47.6481729  93.1937778  96.7014056
  46.3085286  92.7181212  96.1808420  44.9993638  91.5960352  96.7380803
  44.2726801  91.4616317  96.1297295  44.5840925  91.9037181  97.5437521
  31.1228039  89.1882512  82.9782405  30.2159494  88.8915625  83.0545118
  31.4004020  88.8912330  82.1116691  22.0405979  90.5088876  93.4281451
  21.7208763  89.6554184  93.1355825  21.4939407  90.7237454  94.1839418
  32.7390104  83.7319402  89.1326646  31.9290833  83.3866487  89.5081892
  33.4274521  83.4226946  89.7214258  34.6680653  82.8097449  90.7550943
  35.2211691  83.2292902  91.4140966  34.9050739  81.8833197  90.7973899
  29.8926823  86.0469448  83.1194384  30.7545987  86.3724346  83.3790201
  30.0777168  85.2600943  82.6067450  38.0459460  84.9197974  90.2629607
  37.4658129  85.5782778  89.8807659  37.7795393  84.0975319  89.8517024
  36.4963026  84.3203032  92.4650927  36.9962805  84.4319566  91.6565246
  37.1398634  84.0164085  93.1051736  23.8230982  94.0610041  93.2740588
  23.8001670  94.1597728  92.3222471  24.1331618  94.9075192  93.5957754
  36.8284338  87.0798064  89.3185955  35.9410193  87.3647715  89.1006150
  37.2438327  86.9191828  88.4713232  40.1798874  87.1044585  93.0340294
  40.9559264  87.5941038  93.3064911  39.4547008  87.5302640  93.4912164
  42.6171433  87.8172205  94.0914235  43.2115923  87.5767941  93.3807543
  42.6898016  87.0979335  94.7187771  35.9727551  96.8442739  83.4133975
  36.6763401  97.0492742  84.0291631  35.2490200  97.4119501  83.6783059
  36.8025362  92.5952600  89.5336245  36.7460563  93.0521152  88.6943878
  37.3553704  91.8343285  89.3559088  40.6130168  88.3842332  90.3586365
  40.3567102  87.9838968  91.1894573  39.9883036  89.0986126  90.2336504
  44.9242505  91.1238405  92.8657656  44.3642063  91.1931595  93.6389218
  44.3186009  90.9479390  92.1457152  37.8814249  97.2825268  85.4632435
  38.7159853  96.8506467  85.2809910  37.7198592  97.1107282  86.3909330
  37.5360141  93.7857382  86.8288775  37.4808945  93.6201653  85.8877219
  36.9106196  94.4933414  86.9850964  30.8456266  83.2865491  86.4074093
  30.8334936  84.2307330  86.5642364  31.7379688  83.1035636  86.1133554
  30.7745830 101.9634381  94.4941850  29.8241461 101.9636243  94.3806222
  31.0778316 101.2167116  93.9777884  34.6608386  79.8808267  90.6620030
  33.8940782  79.3266754  90.8076712  35.0719091  79.9530136  91.5234181
  41.0196510 106.5210595  84.8266077  41.2722030 105.9992116  84.0649540
  40.0821069 106.3576740  84.9292760  46.0639792 105.5246373  92.6340820
  46.8502882 105.1065796  92.2831237  46.3278497 106.4292465  92.8022468
  42.7229826 102.9138748  85.7298489  42.8904228 103.7818984  86.0968961
  42.5326995 103.0766029  84.8059779  42.7019047 105.3696405  86.7145156
  42.5818672 105.8153456  87.5530637  42.0071635 105.7181723  86.1558694
  48.4004113 105.8417878  87.5425490  49.3121969 106.0745265  87.3673188
  47.8913760 106.4254922  86.9800569  45.7440088 102.0175914  95.7915351
  44.8824567 102.3157168  96.0832089  45.7702523 102.2346313  94.8596384
  41.4970543 106.6841257  89.0078722  42.1994587 107.1362301  89.4752648
  41.1651172 106.0425076  89.6358615  46.0856772  97.0212762  97.6139721
  45.7421041  97.9114403  97.5378831  46.4535734  96.8314419  96.7509306
  46.0507054 107.0121373  86.1212156  45.5353678 107.7825977  86.3600543
  45.7784363 106.3386509  86.7445217  43.6354165 101.8571074  91.1797394
  42.7795762 101.4677924  91.0003033  44.0481117 101.9363034  90.3197180
  45.1653312  99.3917417  95.5788954  44.6618108  99.3547552  94.7656759
  45.4583919 100.3010160  95.6385611  41.4096198  99.4756147  94.5855136
  42.2749195  99.2798955  94.2261025  41.4773707  99.2466498  95.5124492
  51.0241328 109.7653727  88.0565329  50.2470771 109.4264887  87.6120491
  51.7032809 109.7706351  87.3820294  45.8393357 104.8848465  87.9471937
  45.5343493 105.1994614  88.7982080  46.7923800 104.9629885  87.9899270
  39.0158517 101.7058354  91.9571503  39.5902269 101.4833536  91.2244695
  39.6029499 101.7747049  92.7100104  39.3428104 103.7362816  85.9767388
  38.5065416 104.0737502  86.2976663  39.2032874 103.6011795  85.0394525
  41.3181185  98.5799603  90.6846572  40.6645597  98.2648621  90.0603187
  41.2761659  97.9575344  91.4106395  44.5518925 105.0681537  95.0094220
  43.6341486 105.2896484  94.8515908  44.9679069 105.1427847  94.1505927
  45.3353973 106.4672953  90.1396900  46.0825792 106.9794350  89.8304022
  45.6045562 106.1457005  91.0001293  47.7832810 103.5030069  92.1215689
  47.0455567 102.9907455  92.4525932  48.0359583 103.0630450  91.3098966
  47.8844437  96.2806321  92.7157458  48.1903314  95.4203684  92.4283373
  48.6097042  96.8723941  92.5156452  42.1565517 106.5760114  93.2233649
  42.2114127 105.6233950  93.1476126  41.3456719 106.7319553  93.7074948
  40.0957877 105.1937174  90.9824028  39.2825742 105.4931344  91.3889220
  40.5916871 104.7992862  91.6998511  39.5871952 102.7655529  96.5985263
  40.2271331 102.6244288  95.9008227  38.7549482 102.4790043  96.2223865
  36.5900568 102.7355854  91.3758250  36.8507385 103.6501187  91.2667411
  37.4117740 102.2680297  91.5254863  39.2166484 103.5810043  83.1765295
  38.3395951 103.4598844  82.8127541  39.6924237 102.7896121  82.9244183
  35.5403347 103.2577399  97.6991825  35.4561535 102.6503069  96.9642235
  34.7186053 103.7486418  97.7001322  45.7127060 101.7430963  93.0662020
  46.2095760 100.9900925  92.7463091  44.9414042 101.7795279  92.5005230
  42.2962029 103.8848346  92.7933705  41.9259817 103.3319386  93.4814611
  42.7921122 103.2806479  92.2408705  50.1829392 106.3419969  91.1750478
  50.6489845 107.1747961  91.1010781  50.6336893 105.8764951  91.8795736
  48.1546055  98.7100556  95.2141379  47.2409135  98.9404783  95.3823586
  48.5839157  98.7939000  96.0655412  37.6927363 101.2952337  99.0386811
  37.7568689 102.1567167  98.6264209  37.6294483 100.6826338  98.3059170
  37.4739425 103.2507895  94.6005749  36.7526011 103.8643862  94.4613222
  38.2632681 103.7865660  94.5222395  35.6733020 102.8565996  88.7417525
  35.3445726 101.9763375  88.5592631  36.0272390 102.8013665  89.6293915
  38.7874843 103.1438966  89.1093003  39.1270915 103.6724887  88.3871611
  39.2346963 103.4819372  89.8851570  42.1334756  98.6125329  97.0123394
  42.9560825  98.1385807  96.8902284  42.3772819  99.3915813  97.5122080
  40.7742990 101.6413587  87.3086296  41.4951353 102.0194840  86.8050013
  40.1508294 102.3602464  87.4121274  44.9174113 102.3458736  88.2444628
  45.1337727 103.2283374  87.9433456  44.4368180 101.9544950  87.5150270
  39.6573334 105.3044449  94.8215373  39.5117915 105.6184753  95.7139654
  39.1798538 105.9229350  94.2686271  41.5169717 102.2946997  94.8696262
  41.5031286 101.3988091  94.5328560  42.2342145 102.3017661  95.5034548
  40.9206613 101.1761378  90.1383832  41.0422524 100.2478024  90.3374720
  40.6308655 101.1900064  89.2262148  43.7897803  98.8616288  93.2750552
  43.8119500  98.9255621  92.3202532  44.2065862  98.0220797  93.4691058
  36.9184953 104.5209046  86.7346950  36.2254198 104.5953401  86.0786986
  36.6736704 103.7569389  87.2568467  45.5898609  96.0804647  94.1386441
  45.8700363  95.4127836  94.7646867  46.3749216  96.2733743  93.6261105
  43.7778876 106.5924454  83.0427519  44.7237981 106.4630662  83.1115938
  43.3993121 105.8539116  83.5196948  49.7500761  98.2580460  93.0054411
  49.5525582  97.9495548  93.8897743  50.3600466  98.9842099  93.1352341
  41.9621793 104.5174430  82.9782405  41.0553249 104.2207543  83.0545118
  42.2397774 104.2204248  82.1116691  43.5783859  99.0611320  89.1326646
  42.7684587  98.7158405  89.5081892  44.2668276  98.7518863  89.7214258
  45.5074407  98.1389367  90.7550943  46.0605446  98.5584820  91.4140966
  45.7444494  97.2125115  90.7973899  40.7320578 101.3761365  83.1194384
  41.5939742 101.7016264  83.3790201  40.9170922 100.5892861  82.6067450
  48.8853214 100.2489892  90.2629607  48.3051883 100.9074696  89.8807659
  48.6189147  99.4267236  89.8517024  47.3356781  99.6494949  92.4650927
  47.8356559  99.7611484  91.6565246  47.9792389  99.3456002  93.1051736
  47.6678092 102.4089982  89.3185955  46.7803947 102.6939633  89.1006150
  48.0832081 102.2483745  88.4713232  51.0192628 102.4336503  93.0340294
  51.7953019 102.9232955  93.3064911  50.2940763 102.8594557  93.4912164
  47.6419116 107.9244518  89.5336245  47.5854318 108.3813069  88.6943878
  48.1947459 107.1635203  89.3559088  51.4523922 103.7134250  90.3586365
  51.1960856 103.3130886  91.1894573  50.8276790 104.4278044  90.2336504
  41.6850021  98.6157408  86.4074093  41.6728691  99.5599248  86.5642364
  42.5773443  98.4327554  86.1133554  45.5002140  95.2100185  90.6620030
  44.7334536  94.6558672  90.8076712  45.9112845  95.2822054  91.5234181
   1.3999588  28.9623243  73.5205799   0.7487568  29.5477324  73.1339813
   2.1943951  29.4929438  73.5800837   2.7064776  21.2140825  79.3586127
   3.4927865  20.7960248  79.0076544   2.9703480  22.1186917  79.5267775
   2.8774853  26.6513675  74.0574783   2.2420686  26.7248302  74.7695688
   2.5472259  27.2407274  73.3793863   8.1073203  21.1516058  80.2619105
   8.8398375  20.5815275  80.4956935   7.3512558  20.7637659  80.7025611
   5.0429096  21.5312330  74.2670797   5.9546953  21.7639717  74.0918495
   4.5338744  22.1149374  73.7045876   3.6498679  26.5138149  81.6584378
   3.0207541  26.6783863  80.9560446   3.2624341  26.9279758  82.4295342
   7.5287911  27.4492586  79.0128742   6.8438949  27.8291488  78.4625776
   7.6131760  28.0587913  79.7460690   5.8984670  27.9724501  83.7846443
   6.7202114  27.5704688  83.5029125   5.8947073  27.8692735  84.7362559
  13.9890663  24.3163249  80.1331415  13.2354372  23.7470647  79.9775419
  14.1238205  24.2825914  81.0802049   2.6932038  22.7015825  72.8457462
   2.1778661  23.4720429  73.0845850   2.4209346  22.0280961  73.4690524
   7.6666312  25.4548179  74.7810636   6.8895755  25.1159339  74.3365798
   8.3457793  25.4600802  74.1065601   2.4818341  20.5742917  74.6717244
   2.1768476  20.8889066  75.5227387   3.4348783  20.6524337  74.7144577
   5.9057619  24.9282161  81.4377244   5.2481293  25.6181422  81.5257373
   6.7098018  25.3178593  81.7811230   4.7163077  23.2826533  79.4881186
   5.2294959  23.9156525  79.9902895   5.3664301  22.6827729  79.1224546
   1.9785452  33.2610858  72.2441857   1.3047150  33.5642554  72.8526815
   2.3651274  34.0639938  71.8947314   1.9778956  22.1567405  76.8642206
   2.7250775  22.6688802  76.5549329   2.2470546  21.8351457  77.7246600
   5.4824874  28.2632535  77.6160328   5.0287201  27.4223445  77.6725519
   4.8518840  28.8993933  77.9535108   4.4257793  19.1924521  78.8460996
   3.6880550  18.6801907  79.1771238   4.6784567  18.7524902  78.0344273
   3.9257813  30.1009031  78.5510146   4.2180787  30.6614089  77.8322512
   4.4356433  30.3937592  79.3063306   8.0654809  24.4691886  77.2433558
   7.9272707  24.6593482  76.3154747   7.7091028  25.2311269  77.7001609
   8.0924188  26.5368413  82.2544829   8.5260695  26.4443702  83.1027883
   8.8055769  26.5125913  81.6164845   1.8252083  30.1370507  83.7877930
   1.8789106  30.7061443  84.5555646   0.9566865  30.3072392  83.4231967
   1.1333730  27.7063036  80.5052237   0.7983563  27.6663806  81.4009887
   0.6337676  27.0407752  80.0322647   4.0692922  25.0519071  70.7789297
   3.4522092  24.3265899  70.6822350   3.6009410  25.8128431  70.4356371
  10.2081801  23.1365780  81.4325619  10.1971677  24.0190496  81.0619552
   9.3399181  22.7837331  81.2380156   1.7164298  32.2845849  85.7928459
   2.4292270  32.9193314  85.7204360   1.2254326  32.3809715  84.9768461
   3.4381824  26.1897102  77.3645750   2.5038103  26.3098564  77.1950455
   3.6158493  25.2869569  77.1005760   6.8254376  22.0314421  77.8995785
   7.2914828  22.8642413  77.8256087   7.2761876  21.5659403  78.6041043
   4.8930607  28.3758242  74.8981937   5.1690451  28.2614837  75.8075811
   4.0235106  27.9775727  74.8594110   1.5284671  32.6244593  78.5414750
   1.7107065  31.8066249  79.0042503   2.3517657  32.8412286  78.1039640
   1.8626836  31.5512778  75.8029799   2.3914603  31.0405233  75.1899961
   2.1255056  31.2355309  76.6675332   2.4956240  32.5853614  82.1473915
   2.3707380  31.7843354  81.6384861   3.1535331  33.0799808  81.6587885
   4.5591149  30.3862634  83.7753465   3.6121484  30.2667985  83.7031792
   4.9073922  29.4985132  83.8579727   1.5637582  30.1815350  79.9757818
   1.4162544  29.2532058  80.1565388   2.3891075  30.2035441  79.4914893
   5.1671704  31.0043909  81.0622690   6.0918251  30.7986771  80.9247141
   4.9987007  30.7560310  81.9712032   1.5599096  18.0353188  74.9689935
   1.7762711  18.9177826  74.6678763   1.0793163  17.6439402  74.2395577
   4.9567020  31.5229577  76.4184782   5.1303897  30.9575999  75.6658634
   5.4495911  32.3230472  76.2364272  10.8106411  24.2866000  78.0375081
  11.2537557  23.5373325  77.6394205   9.9332921  24.2776136  77.6548813
   5.9442192  30.8396341  73.5181680   6.6393097  31.4603034  73.7368995
   6.2865343  29.9891692  73.7934058   7.8433616  28.2896047  75.0469011
   8.3684940  28.6283319  74.3218331   7.7555968  27.3543062  74.8632145
  10.3539276  25.7571238  80.4297529  11.1886167  26.1961042  80.5935089
  10.4898405  25.2809891  79.6105775   3.2554321  31.2295243  73.5565356
   4.1884994  31.1640805  73.7598231   3.1677533  32.0651510  73.0979889
   5.8842337  30.5461113  70.5169303   5.8055969  30.2120977  71.4105061
   6.7052004  31.0382881  70.5160776  14.3997078  24.4738859  82.8651659
  15.1300467  24.2124147  83.4259362  13.7904024  23.7367581  82.9053727
  12.4812375  22.6146722  83.4626110  11.7545539  22.4802687  82.8542602
  12.0659662  22.9223551  84.2682828   5.5278198  15.9384344  76.9874914
   4.9476867  16.5969148  76.6052966   5.2614130  15.1161688  76.5762331
   4.3103076  18.0984434  76.0431262   3.4228931  18.3834085  75.8251457
   4.7257065  17.9378197  75.1958539   7.6617612  18.1230955  79.7585601
   8.4378002  18.6127407  80.0310218   6.9365746  18.5489009  80.2157471
  10.0990170  18.8358574  80.8159542  10.6934661  18.5954310  80.1052850
  10.1716754  18.1165705  81.4433078   3.4546289  27.8629109  70.1379282
   4.1582139  28.0679111  70.7536937   2.7308938  28.4305871  70.4028365
   4.2844099  23.6138970  76.2581552   4.2279301  24.0707521  75.4189184
   4.8372442  22.8529654  76.0804395   8.0948905  19.4028702  77.0831671
   7.8385840  19.0025337  77.9139879   7.4701773  20.1172496  76.9581811
  12.4061243  22.1424775  79.5902963  11.8460801  22.2117964  80.3634525
  11.8004747  21.9665760  78.8702459   5.3632987  28.3011638  72.1877742
   6.1978590  27.8692836  72.0055217   5.2017329  28.1293651  73.1154636
   5.0178879  24.8043751  73.5534081   4.9627683  24.6388023  72.6122525
   4.3924934  25.5119784  73.7096271  10.8006968  38.7708717  82.2194443
  10.4625479  38.6549782  81.3314978  11.6696736  38.3699882  82.1995449
   6.6593784  40.6244193  78.2091334   6.0958649  40.5334130  77.4407622
   6.5446179  39.8044098  78.6893827  11.2826751  39.9243569  88.1780649
  11.2715392  39.5296367  87.3061152  11.4447390  39.1909641  88.7714420
   4.2058216  42.1195385  81.0475555   4.9979507  41.7786210  80.6321854
   4.4454866  42.2290360  81.9677708  12.2393342  44.2915161  73.5205799
  11.5881322  44.8769242  73.1339813  13.0337705  44.8221356  73.5800837
   6.1648969  41.3804298  73.9192933   6.9379845  40.8333285  73.7805809
   6.5174368  42.2448548  74.1307395   8.0034012  42.7080681  87.1259833
   7.7123878  43.6126311  87.0106499   8.6390996  42.7497208  87.8403902
   8.9290219  40.0857529  83.7161192   9.5253791  39.8613551  83.0018155
   8.9865190  39.3442275  84.3186640   8.5015247  37.5396964  71.5511383
   8.7540768  37.0178486  70.7894846   7.5639806  37.3763110  71.6538067
  13.5458530  36.5432743  79.3586127  14.3321619  36.1252166  79.0076544
  13.8097234  37.4478835  79.5267775  18.9466957  36.4807976  80.2619105
  19.6792129  35.9107193  80.4956935  18.1906313  36.0929576  80.7025611
   8.2211536  39.4425070  73.7535758   8.1047794  38.7669974  74.4216843
   8.3313796  38.9557444  72.9367911  10.5643077  38.9035217  77.4582448
  10.2001284  38.3765838  78.1695369  11.4210193  38.5133687  77.2848933
  16.4692378  30.1929550  84.7213714  16.1375702  31.0624961  84.4974929
  15.8737991  29.8765834  85.4007744  10.2048564  33.9325117  72.4543796
  10.3722966  34.8005354  72.8214267  10.0145733  34.0952399  71.5305085
   6.4136379  38.8455893  80.1546331   5.4886875  38.7132107  80.3624023
   6.6620792  39.6250112  80.6516273  16.3621041  34.9124636  81.8007064
  15.4537918  34.8440045  81.5065825  16.3108637  35.3896581  82.6288889
  10.1837785  36.3882775  73.4390463  10.0637410  36.8339825  74.2775943
   9.4890373  36.7368092  72.8804001   3.7745190  38.4889166  80.9890120
   3.9037571  38.7423645  81.9029532   3.0942641  39.0816874  80.6694775
   7.9444677  49.1586416  77.0880594   7.8668707  50.1094241  77.1669075
   7.3406321  48.8132289  77.7455520  10.4361907  36.3314282  89.7441961
   9.6595241  36.8908202  89.7344826  11.0752470  36.8171065  90.2656831
  18.2282687  33.1141075  83.5784938  17.5857068  33.4073608  82.9324732
  17.7237616  32.9993995  84.3838134  15.8822851  36.8604248  74.2670797
  16.7940707  37.0931635  74.0918495  15.3732498  37.4441292  73.7045876
   8.6908279  39.1399735  89.3059928   9.4322963  39.6784779  89.0294752
   7.9845264  39.7666024  89.4631480  14.1663619  41.2828876  87.9032090
  14.5746975  40.8411286  87.1586722  13.4440880  40.7081503  88.1566282
  10.5194689  36.2201482  85.2765647  11.3655884  36.6440896  85.4200296
  10.4593326  35.5635107  85.9704210  13.6694134  33.8805851  86.9346820
  13.4255066  34.6347911  86.3981096  13.9454065  34.2591198  87.7694067
  15.6232597  40.4244463  85.6124086  15.8349492  41.0676223  84.9358467
  15.5762345  39.5906780  85.1446016  13.2258826  33.0362284  82.5160658
  12.3643305  33.3343537  82.8077395  13.2521260  33.2532683  81.5841691
   6.9344476  41.1275956  81.8614227   7.5045833  41.5563224  81.2231711
   7.5252588  40.8458541  82.5598412   8.9789281  37.7027627  75.7324029
   9.6813325  38.1548670  76.1997955   8.6469910  37.0611446  76.3603922
   7.4269643  36.2939383  90.1075238   6.7968303  36.9755664  90.3410635
   7.3205731  36.1822465  89.1628376   2.7214615  35.9611179  81.0341162
   1.9313669  36.2168708  80.5581273   3.2125863  36.7759517  81.1393203
   4.6729361  36.3255759  77.9924639   3.8760524  36.4374453  78.5108135
   4.4454953  36.6642411  77.1265529  10.5035028  42.8500462  85.9407154
  10.5679461  43.3120869  86.7765325   9.7945952  42.2197827  86.0689463
   1.0052318  36.2141670  83.4656153   1.2560357  37.0988680  83.7313729
   1.5411867  36.0346271  82.6931245  10.2183046  44.5168569  75.8086134
  10.0828721  45.3620105  76.2370982  10.7592858  44.7187847  75.0452068
   3.6712443  42.0344007  76.3814059   4.1836964  42.8287258  76.5319624
   4.3235156  41.3370298  76.3147660   5.4807328  45.1509764  78.4636812
   5.6573956  46.0727728  78.2757796   6.2764161  44.8368183  78.8931192
   4.7659684  37.1974396  88.3398975   4.6513200  36.2959653  88.6406074
   3.9104202  37.4438092  87.9883792  11.8451522  45.1392136  89.9386476
  11.4015376  44.3528514  89.6207380  12.5068736  45.3271286  89.2730367
   6.6038643  46.6687937  84.4647154   7.1546069  46.5405001  83.6924148
   5.7650119  46.9682826  84.1142047  13.9432760  45.4194936  87.9667877
  13.9251236  46.2403817  87.4748146  14.8652680  45.2949011  88.1918018
  10.4005814  42.9339065  88.8091386  10.9334151  42.1727353  88.5790694
   9.8719896  42.6412717  89.5515540  13.5675509  28.0399131  84.3385027
  13.2239779  28.9300773  84.2624138  13.9354472  27.8500789  83.4754612
   1.6361360  40.3632662  77.1573630   2.4736582  40.7729670  76.9407337
   1.8139628  39.4232104  77.1273823  13.5325792  38.0307742  72.8457462
  13.0172416  38.8012347  73.0845850  13.2603101  37.3572879  73.4690524
  11.1172903  32.8757443  77.9042701  10.2614499  32.4864294  77.7248340
  11.5299855  32.9549404  77.0442486  12.6472050  30.4103786  82.3034261
  12.1436845  30.3733922  81.4902066  12.9402657  31.3196529  82.3630917
   8.8914936  30.4942516  81.3100442   9.7567932  30.2985325  80.9506332
   8.9592445  30.2652868  82.2369799  13.3212095  35.9034834  74.6717244
  13.0162231  36.2180984  75.5227387  14.2742537  35.9816254  74.7144577
   6.4977255  32.7244724  78.6816809   7.0721007  32.5019906  77.9490002
   7.0848237  32.7933419  79.4345410   6.8246842  34.7549185  72.7012694
   5.9884154  35.0923872  73.0221969   6.6851612  34.6198165  71.7639831
   8.7999922  29.5985973  77.4091879   8.1464335  29.2834990  76.7848493
   8.7580397  28.9761713  78.1351702   9.9111127  39.8805268  69.3245171
   9.0038189  39.6494521  69.5236320  10.4082159  39.0842887  69.5119152
  12.8179206  48.5902775  72.2441857  12.1440905  48.8934472  72.8526815
  13.2045028  49.3931856  71.8947314  12.0337663  36.0867906  81.7339526
  11.1160224  36.3082854  81.5761214  12.4497806  36.1614217  80.8751234
  11.0899361  39.9817863  73.8469161  10.1810580  39.6976896  73.9441631
  11.1194445  40.4016941  72.9872468  15.2651548  34.5216438  78.8460996
  14.5274305  34.0093825  79.1771238  15.5178321  34.0816820  78.0344273
  15.3663175  27.2992690  79.4402765  15.6722052  26.4390054  79.1528680
  16.0915780  27.8910311  79.2401759   1.6587531  37.7023377  77.8284363
   1.4611931  37.1092738  77.1035430   1.1034195  37.3975587  78.5460302
   9.6384255  37.5946484  79.9478956   9.6932865  36.6420320  79.8721433
   8.8275457  37.7505923  80.4320255  10.7875449  41.5226607  71.1857239
  10.3494878  40.8062465  70.7262877  11.5285889  41.7502721  70.6242331
   7.5776615  36.2123543  77.7069335   6.7644480  36.5117714  78.1134527
   8.0735609  35.8179232  78.4243817   9.7285193  46.2081300  79.6403600
   9.6861371  46.4342146  78.7112132  10.6447891  45.9744675  79.7889401
  13.1750826  36.6765368  86.5384229  13.5300214  36.9036841  87.3978695
  13.8222958  37.0083745  85.9161484   7.0690689  33.7841899  83.3230570
   7.7090069  33.6430658  82.6253533   6.2368220  33.4976412  82.9469172
   7.8450993  43.0844329  79.4365562   8.6391592  42.5894649  79.2348137
   7.1342686  42.5562192  79.0733268  12.6645838  45.4662425  83.7877930
  12.7182860  46.0353361  84.5555646  11.7960619  45.6364310  83.4231967
   4.1533757  37.2287411  75.5125315   3.2231345  37.1671866  75.7295277
   4.2491229  36.7063364  74.7161956   4.0719306  33.7542224  78.1003557
   4.3326123  34.6687557  77.9912717   4.8936478  33.2866666  78.2500170
   5.5444231  35.1679981  85.2702381   6.2167285  34.9597343  84.6215030
   4.7174018  34.9702067  84.8307614  11.4469803  31.7941922  87.2868042
  10.7997718  32.4931872  87.1932519  12.2170819  32.2278066  87.6544290
  14.8548601  42.0590774  90.3618595  14.7034108  41.8301326  89.4448679
  14.8453281  43.0161375  90.3749940  11.6233938  39.6322687  85.3464862
  12.5525998  39.7833846  85.1733829  11.2024968  39.7206708  84.4913508
  11.0170421  48.7582448  74.4588936  11.1922177  48.2870491  75.2734559
  10.3303209  49.3848214  74.6870197   5.9471728  38.4422584  86.0304818
   5.8091526  37.7102823  86.6316357   6.8576652  38.3531484  85.7489006
  14.9086676  40.3810988  70.7789297  14.2915847  39.6557816  70.6822350
  14.4403165  41.1420348  70.4356371   8.5754029  38.1542543  85.5188498
   9.2853648  37.5135735  85.4775116   8.5323337  38.4055438  86.4414679
  16.5640808  45.0909897  88.4395077  16.5053354  44.4069117  87.7725660
  16.9660326  45.8328887  87.9875703   7.2882963  35.1407761  87.3384138
   6.7520320  34.6898500  87.9905734   6.6999672  35.2753670  86.5954602
   5.5831507  51.9071810  81.2328796   5.8228105  52.5390335  81.9107815
   4.7400703  51.5559850  81.5194155   6.6985222  34.5996413  69.9010601
   5.8214688  34.4785213  69.5372848   7.1742975  33.8082491  69.6489490
  16.5658215  43.0549481  86.6709057  15.6784994  42.7175402  86.7935456
  17.1356766  42.3232512  86.9077822   3.0222084  34.2763769  84.4237132
   2.9380273  33.6689438  83.6887542   2.2004791  34.7672787  84.4246628
  10.0959369  47.7150933  83.6370300  10.0229540  48.5205904  84.1489605
   9.6536762  47.9142899  82.8118322   9.8849148  46.9522703  77.1473122
   9.1016670  47.4944383  77.2411346  10.5841893  47.4696683  77.5467363
  13.1945798  32.7617332  79.7907327  13.6914498  32.0087295  79.4708397
  12.4232780  32.7981649  79.2250536  12.5558052  47.6137767  85.7928459
  13.2686024  48.2485232  85.7204360  12.0648081  47.7101633  84.9768461
   9.7780767  34.9034715  79.5179012   9.4078555  34.3505756  80.2059917
  10.2739859  34.2992849  78.9654012  17.6648130  37.3606339  77.8995785
  18.1308582  38.1934330  77.8256087  18.1155631  36.8951320  78.6041043
   7.6069966  45.3632210  86.6134030   8.3079425  45.9968693  86.7663424
   7.1365081  45.7046942  85.8529669  15.6364793  29.7286926  81.9386686
  14.7227873  29.9591153  82.1068893  16.0657894  29.8125370  82.7900718
  15.4071252  37.9176818  84.4386580  14.7542702  38.1652725  83.7839033
  15.7851631  37.1040956  84.1049057  11.4558825  38.6596629  90.9252617
  10.7799462  38.5590758  91.5954992  12.2786458  38.5035843  91.3888614
   3.2037684  44.8968565  83.5465132   3.7891120  44.1512253  83.6793037
   3.0062522  45.2072522  84.4301796   6.0576339  47.9319813  78.5627575
   5.3886714  48.4165940  78.0791615   5.9189209  48.1789033  79.4770953
  10.1981607  49.9663556  85.1610233  10.7499915  50.1295178  85.9259318
  10.5387801  50.5567994  84.4890258   5.1746101  32.3138706  85.7632118
   5.2387427  33.1753537  85.3509515   5.1113221  31.7012708  85.0304476
  15.0492482  44.7924814  91.0158887  15.5932386  45.4054772  90.5213842
  14.4679327  45.3504392  91.5325901   1.4263916  36.1938268  75.3423507
   1.7217357  35.2848946  75.2890561   0.5251952  36.1726007  75.0204509
   4.9558163  34.2694264  81.3251055   4.2344749  34.8830232  81.1858529
   5.7451419  34.8052029  81.2467701   7.7584476  31.6048691  87.5991707
   8.2818878  31.8510987  88.3618017   7.5396810  32.4368726  87.1794845
   3.1551758  33.8752365  75.4662832   2.8264464  32.9949744  75.2837938
   3.5091128  33.8200034  76.3539221   6.2693581  34.1625335  75.8338310
   6.6089653  34.6911256  75.1116918   6.7165701  34.5005741  76.6096876
   8.9637021  32.5462386  85.2841378   8.6233842  31.7470199  85.6862058
   8.2576028  32.8464097  84.7118211   9.6153493  29.6311698  83.7368701
  10.4379563  29.1572177  83.6147591   9.8591557  30.4102182  84.2367387
   8.2561728  32.6599957  74.0331602   8.9770090  33.0381210  73.5295319
   7.6327032  33.3788834  74.1366580  12.3992851  33.3645106  74.9689935
  12.6156465  34.2469744  74.6678763  11.9186918  32.9731319  74.2395577
   7.1392072  36.3230819  81.5460679   6.9936653  36.6371122  82.4384961
   6.6617276  36.9415719  80.9931578   8.9988455  33.3133367  81.5941569
   8.9850024  32.4174460  81.2573867   9.7160883  33.3204031  82.2279855
  10.8514586  33.7470707  83.6394696  10.5932363  34.6687778  83.6379027
  10.3199626  33.3501142  84.3295160   1.6137734  38.8636163  84.4848341
   1.0691202  39.6395971  84.6168615   2.4917084  39.2106968  84.3267462
   8.4025351  32.1947747  76.8629139   8.5241262  31.2664393  77.0620027
   8.1127393  32.2086433  75.9507454  11.2716541  29.8802658  79.9995859
  11.2938238  29.9441991  79.0447838  11.6884600  29.0407166  80.1936365
   2.4003756  37.9906060  87.3778497   1.6585492  38.1388695  87.9643128
   2.0796500  38.2514325  86.5145247  10.3447419  47.5322038  87.1758887
  10.6534545  47.2871185  88.0481587  11.1422901  47.7368676  86.6877758
  10.3668031  49.6859948  79.4064264   9.9273021  49.1936326  80.0997121
  11.1176148  49.1432915  79.1656339   2.8460370  45.8771488  79.4088892
   3.6718390  45.5775260  79.0287536   2.4954422  45.1079111  79.8578681
   7.8141903  45.2297957  81.4786566   7.1921912  44.5668662  81.1788794
   8.4846770  45.2559089  80.7960213  18.3721276  44.2520868  90.3520209
  17.5816820  44.2345007  89.8124708  18.1354631  44.7909162  91.1069245
  18.4919151  41.1013334  87.6652937  18.5417156  40.9363342  88.6068460
  18.3833075  40.2340593  87.2750818   7.3755410  43.7801880  74.9545026
   7.5243530  44.4637344  74.3011699   8.1821853  43.7606970  75.4694482
  15.7822914  37.0844262  88.9812244  16.6832776  36.9450727  88.6896242
  15.8570888  37.2498717  89.9210421  10.1165719  34.4611117  87.8265430
   9.2469028  34.7544683  87.5548019  10.3525199  35.0451562  88.5472694
  19.9937348  43.5210276  87.9094959  19.7022156  43.8840256  88.7458420
  19.3809479  42.8077284  87.7308291  18.2424536  38.6442890  86.3775017
  18.7178658  38.8370537  85.5693868  17.3190102  38.7002076  86.1318400
   5.1308043  39.8067058  75.9606095   4.8854085  38.9029388  76.1586305
   5.3003957  39.8084208  75.0185573  12.8204753  30.6790734  85.3430851
  13.3386697  31.4151761  85.0177339  12.4659885  30.9854727  86.1777610
   4.4003690  35.5395415  73.4592257   3.7072935  35.6139770  72.8032293
   4.1555442  34.7755759  73.9813773  13.0717347  27.0991017  80.8631747
  13.3519101  26.4314206  81.4892174  13.8567954  27.2920112  80.3506411
  10.8750815  46.2750010  72.4256774  10.3024782  46.8940198  71.9727245
  11.4483609  46.8249372  72.9596696  16.9426205  35.5208650  84.6103322
  17.8943628  35.6206748  84.6315546  16.7729656  34.7286919  85.1201407
  14.9640585  32.6064234  84.7962723  14.3690517  32.8869246  84.1009212
  14.6790281  33.0958135  85.5679464  14.0948075  46.5587161  73.5565356
  15.0278748  46.4932722  73.7598231  14.0071288  47.3943427  73.0979889
  16.7236092  45.8753031  70.5169303  16.6449723  45.5412894  71.4105061
  17.5445759  46.3674799  70.5160776  19.4214283  38.7414770  83.7245622
  19.3890603  37.8030771  83.9105306  20.0314907  38.8198807  82.9911447
  11.2597614  37.6110823  69.7672826  12.2056719  37.4817031  69.8361244
  10.8811859  36.8725485  70.2442254  19.5708771  35.5325814  83.7703905
  19.0547820  34.7484270  83.5833834  20.4548720  35.2044530  83.9350425
  17.2319498  29.2766829  79.7299718  17.0344320  28.9681917  80.6143050
  17.8419204  30.0028468  79.8597648  25.2390833  39.8030777  82.8651659
  25.9694221  39.5416065  83.4259362  24.6297778  39.0659499  82.9053727
  23.3206130  37.9438640  83.4626110  22.5939294  37.8094605  82.8542602
  22.9053417  38.2515468  84.2682828  11.1436306  41.6628569  91.2273483
  12.0639316  41.8407168  91.4213530  11.1085889  40.7184615  91.0753182
   9.4440531  35.5360800  69.7027711   8.5371986  35.2393912  69.7790425
   9.7216512  35.2390618  68.8361998   4.1398379  39.5729604  83.8696264
   4.3584389  40.5046712  83.8884298   4.5524153  39.2137578  84.6551068
  11.0602597  30.0797689  75.8571953  10.2503325  29.7344774  76.2327199
  11.7487014  29.7705233  76.4459564  12.9893145  29.1575736  77.4796249
  13.5424184  29.5771189  78.1386272  13.2263231  28.2311484  77.5219205
   8.2139316  32.3947735  69.8439691   9.0758480  32.7202633  70.1035508
   8.3989660  31.6079231  69.3312756  16.3671952  31.2676261  76.9874914
  15.7870621  31.9261065  76.6052966  16.1007885  30.4453606  76.5762331
  14.8175518  30.6681319  79.1896234  15.3175297  30.7797853  78.3810553
  15.4611126  30.3642372  79.8297042   8.8757514  38.5759949  92.0764075
   8.3924596  39.3760309  92.2827964   8.9618453  38.5867893  91.1231519
   2.1443474  40.4088328  79.9985894   2.1214162  40.5076016  79.0467777
   2.4544110  41.2553479  80.3203060   4.8030852  42.4664483  84.1132509
   5.7574105  42.4348426  84.0462440   4.6043375  42.0055107  84.9282735
   5.3930234  41.0365599  86.6803306   6.2123123  41.5309678  86.7038144
   5.6667042  40.1197567  86.6520874  15.1496830  33.4276352  76.0431262
  14.2622685  33.7126002  75.8251457  15.5650819  33.2670115  75.1958539
  18.5011366  33.4522873  79.7585601  19.2771756  33.9419325  80.0310218
  17.7759500  33.8780927  80.2157471  20.9383925  34.1650492  80.8159542
  21.5328416  33.9246228  80.1052850  21.0110509  33.4457622  81.4433078
   3.1581081  48.0084103  81.1302706   3.0235549  47.2484504  80.5640705
   2.7413143  48.7325003  80.6631495  14.2940044  43.1921026  70.1379282
  14.9975894  43.3971029  70.7536937  13.5702692  43.7597788  70.4028365
  18.9342660  34.7320619  77.0831671  18.6779594  34.3317255  77.9139879
  18.3095528  35.4464413  76.9581811   6.3150206  48.9053420  81.3421149
   6.1982591  49.8498852  81.2399839   5.4942653  48.6026981  81.7306948
  16.2026741  43.6303555  72.1877742  17.0372345  43.1984754  72.0055217
  16.0411084  43.4585569  73.1154636  13.1718540  42.4384581  92.8787644
  14.0409700  42.6125233  92.5174279  12.6925292  43.2578997  92.7563373
   9.1668759  29.6343778  73.1319400   9.1547428  30.5785618  73.2887670
  10.0592181  29.4513923  72.8378861   7.3404721  49.5581682  84.5577078
   8.2431967  49.5905292  84.8743573   7.1142091  48.6282133  84.5723413
   9.0958323  48.3112668  81.2187156   8.1453954  48.3114530  81.1051528
   9.3990809  47.5645403  80.7023191  12.9820878  26.2286554  77.3865336
  12.2153274  25.6745041  77.5322019  13.3931583  26.3008423  78.2479488
  24.8311016  54.1473207  82.2832919  25.4689426  54.0279954  81.5796259
  24.7131859  55.0954051  82.3420871  21.6400722  54.1000635  82.2194443
  21.3019234  53.9841699  81.3314978  22.5090491  53.6991800  82.1995449
  17.4987538  55.9536111  78.2091334  16.9352403  55.8626048  77.4407622
  17.3839933  55.1336016  78.6893827  22.1220505  55.2535486  88.1780649
  22.1109146  54.8588285  87.3061152  22.2841145  54.5201559  88.7714420
  15.0451970  57.4487303  81.0475555  15.8373262  57.1078127  80.6321854
  15.2848620  57.5582278  81.9677708  23.0787097  59.6207079  73.5205799
  22.4275077  60.2061159  73.1339813  23.8731460  60.1513274  73.5800837
  17.0042724  56.7096216  73.9192933  17.7773600  56.1625203  73.7805809
  17.3568123  57.5740465  74.1307395  18.8427767  58.0372598  87.1259833
  18.5517633  58.9418229  87.0106499  19.4784751  58.0789126  87.8403902
  19.7683973  55.4149447  83.7161192  20.3647546  55.1905469  83.0018155
  19.8258945  54.6734192  84.3186640  27.3086132  45.5221468  84.7213714
  26.9769457  46.3916879  84.4974929  26.7131745  45.2057752  85.4007744
  23.8017652  57.7234014  84.1209626  23.5018375  58.6259053  84.0125434
  23.4568711  57.4566197  84.9730779  17.2530133  54.1747811  80.1546331
  16.3280630  54.0424025  80.3624023  17.5014546  54.9542030  80.6516273
  14.6138944  53.8181084  80.9890120  14.7431325  54.0715563  81.9029532
  13.9336395  54.4108792  80.6694775  18.7838431  64.4878334  77.0880594
  18.7062461  65.4386159  77.1669075  18.1800075  64.1424207  77.7455520
  21.2755661  51.6606200  89.7441961  20.4988995  52.2200120  89.7344826
  21.9146224  52.1462982  90.2656831  29.0676442  48.4432992  83.5784938
  28.4250822  48.7365525  82.9324732  28.5631370  48.3285913  84.3838134
  19.5302033  54.4691653  89.3059928  20.2716718  55.0076697  89.0294752
  18.8239019  55.0957942  89.4631480  25.0057373  56.6120793  87.9032090
  25.4140729  56.1703204  87.1586722  24.2834635  56.0373421  88.1566282
  21.3588443  51.5493400  85.2765647  22.2049638  51.9732814  85.4200296
  21.2987081  50.8927024  85.9704210  25.3286188  57.1721984  81.6584378
  24.6995050  57.3367698  80.9560446  24.9411850  57.5863594  82.4295342
  24.5087889  49.2097768  86.9346820  24.2648820  49.9639829  86.3981096
  24.7847819  49.5883116  87.7694067  26.4626351  55.7536381  85.6124086
  26.6743247  56.3968141  84.9358467  26.4156100  54.9198697  85.1446016
  20.8814150  56.9096392  78.9234464  21.3452495  57.1884095  78.1339086
  20.6170948  56.0079837  78.7407554  17.7738231  56.4567874  81.8614227
  18.3439588  56.8855142  81.2231711  18.3646343  56.1750458  82.5598412
  18.2663397  51.6231301  90.1075238  17.6362058  52.3047582  90.3410635
  18.1599485  51.5114383  89.1628376  27.5772179  58.6308336  83.7846443
  28.3989623  58.2288524  83.5029125  27.5734582  58.5276570  84.7362559
  21.3428783  58.1792380  85.9407154  21.4073215  58.6412787  86.7765325
  20.6339707  57.5489744  86.0689463  11.8446073  51.5433588  83.4656153
  12.0954111  52.4280597  83.7313729  12.3805621  51.3638189  82.6931245
  21.0576800  59.8460487  75.8086134  20.9222475  60.6912023  76.2370982
  21.5986613  60.0479765  75.0452068  17.5444140  45.9252067  92.4700489
  17.1511086  45.3718265  93.1448133  18.3610280  46.2362645  92.8607007
  14.5106198  57.3635925  76.3814059  15.0230718  58.1579175  76.5319624
  15.1628911  56.6662216  76.3147660  16.3201082  60.4801681  78.4636812
  16.4967711  61.4019646  78.2757796  17.1157916  60.1660101  78.8931192
  20.4612101  47.3409946  90.0620746  21.2021814  47.9417099  89.9825208
  20.6930024  46.5987584  89.5038788  15.6053439  52.5266313  88.3398975
  15.4906954  51.6251570  88.6406074  14.7497957  52.7730010  87.9883792
  22.6845277  60.4684054  89.9386476  22.2409131  59.6820432  89.6207380
  23.3462490  60.6563204  89.2730367  17.4432398  61.9979855  84.4647154
  17.9939823  61.8696919  83.6924148  16.6043874  62.2974744  84.1142047
  24.7826515  60.7486853  87.9667877  24.7644990  61.5695735  87.4748146
  25.7046435  60.6240929  88.1918018  21.2399569  58.2630983  88.8091386
  21.7727906  57.5019271  88.5790694  20.7113650  57.9704635  89.5515540
  24.4069264  43.3691049  84.3385027  24.0633533  44.2592691  84.2624138
  24.7748226  43.1792707  83.4754612  12.4755114  55.6924579  77.1573630
  13.3130336  56.1021588  76.9407337  12.6533382  54.7524022  77.1273823
  22.6052282  57.3916975  76.3210198  22.0773643  56.6569735  76.0083435
  22.1039784  58.1691652  76.0750166  27.5845128  55.5865996  81.4377244
  26.9268802  56.2765257  81.5257373  28.3885527  55.9762428  81.7811230
  17.6640596  50.0841103  72.7012694  16.8277909  50.4215789  73.0221969
  17.5245366  49.9490083  71.7639831  23.6572961  63.9194693  72.2441857
  22.9834659  64.2226390  72.8526815  24.0438783  64.7223773  71.8947314
  25.6045322  60.7592867  78.5510146  25.8968296  61.3197924  77.8322512
  26.1143942  61.0521428  79.3063306  12.4981286  53.0315295  77.8284363
  12.3005685  52.4384655  77.1035430  11.9427950  52.7267505  78.5460302
  21.6269203  56.8518524  71.1857239  21.1888633  56.1354383  70.7262877
  22.3679644  57.0794639  70.6242331  20.5678947  61.5373218  79.6403600
  20.5255126  61.7634064  78.7112132  21.4841646  61.3036592  79.7889401
  24.0144581  52.0057285  86.5384229  24.3693969  52.2328759  87.3978695
  24.6616712  52.3375662  85.9161484  18.6844748  58.4136247  79.4365562
  19.4785346  57.9186567  79.2348137  17.9736440  57.8854110  79.0733268
  23.5039592  60.7954342  83.7877930  23.5576615  61.3645279  84.5555646
  22.6354374  60.9656227  83.4231967  14.9927511  52.5579329  75.5125315
  14.0625099  52.4963784  75.7295277  15.0884983  52.0355281  74.7161956
  16.3837986  50.4971899  85.2702381  17.0561039  50.2889261  84.6215030
  15.5567772  50.2993985  84.8307614  30.6327247  57.2375949  84.7877715
  30.8263137  58.1421759  85.0336990  30.5327865  56.7783368  85.6216300
  22.2863558  47.1233840  87.2868042  21.6391473  47.8223789  87.1932519
  23.0564573  47.5569983  87.6544290  25.6942356  57.3882692  90.3618595
  25.5427862  57.1593243  89.4448679  25.6847035  58.3453293  90.3749940
  22.4627692  54.9614604  85.3464862  23.3919752  55.1125764  85.1733829
  22.0418722  55.0498625  84.4913508  21.2616024  58.9865269  83.1163399
  21.1227110  58.6184053  83.9889338  20.4730620  59.5012908  82.9447357
  21.8564176  64.0874365  74.4588936  22.0315932  63.6162409  75.2734559
  21.1696964  64.7140132  74.6870197  22.8121239  58.3646872  80.5052237
  22.4771072  58.3247642  81.4009887  22.3125185  57.6991587  80.0322647
  16.7865483  53.7714502  86.0304818  16.6485281  53.0394740  86.6316357
  17.6970406  53.6823402  85.7489006  19.4147784  53.4834461  85.5188498
  20.1247402  52.8427653  85.4775116  19.3717092  53.7347356  86.4414679
  27.4034562  60.4201814  88.4395077  27.3447108  59.7361034  87.7725660
  27.8054081  61.1620804  87.9875703  18.1276718  50.4699679  87.3384138
  17.5914075  50.0190417  87.9905734  17.5393426  50.6045588  86.5954602
  16.4225261  67.2363728  81.2328796  16.6621859  67.8682252  81.9107815
  15.5794458  66.8851768  81.5194155  17.5378977  49.9288330  69.9010601
  16.6608443  49.8077131  69.5372848  18.0136730  49.1374408  69.6489490
  27.4051970  58.3841398  86.6709057  26.5178748  58.0467320  86.7935456
  27.9750521  57.6524429  86.9077822   9.0581117  54.7165490  79.9952108
   9.7452157  54.4027220  79.4073124   8.9029245  55.6206855  79.7219360
  20.9353123  63.0442851  83.6370300  20.8623294  63.8497822  84.1489605
  20.4930516  63.2434816  82.8118322  20.7242903  62.2814621  77.1473122
  19.9410425  62.8236301  77.2411346  21.4235648  62.7988600  77.5467363
  31.8869310  53.7949616  81.4325619  31.8759186  54.6774331  81.0619552
  31.0186690  53.4421166  81.2380156  23.3951807  62.9429685  85.7928459
  24.1079779  63.5777149  85.7204360  22.9041835  63.0393551  84.9768461
  18.4463720  60.6924128  86.6134030  19.1473180  61.3260611  86.7663424
  17.9758835  61.0338860  85.8529669  26.2465006  53.2468735  84.4386580
  25.5936456  53.4944643  83.7839033  26.6245386  52.4332874  84.1049057
  23.2072180  63.2828429  78.5414750  23.3894574  62.4650085  79.0042503
  24.0305166  63.4996121  78.1039640  23.5414345  62.2096614  75.8029799
  24.0702112  61.6989068  75.1899961  23.8042565  61.8939144  76.6675332
  22.2952579  53.9888547  90.9252617  21.6193216  53.8882676  91.5954992
  23.1180213  53.8327760  91.3888614  14.0431438  60.2260483  83.5465132
  14.6284875  59.4804171  83.6793037  13.8456277  60.5364440  84.4301796
  16.8970093  63.2611730  78.5627575  16.2280469  63.7457858  78.0791615
  16.7582963  63.5080951  79.4770953   8.6349093  52.7966083  82.2669575
   8.6733192  52.2629674  83.0606694   8.1289386  52.2701289  81.6480553
  21.0375362  65.2955474  85.1610233  21.5893670  65.4587095  85.9259318
  21.3781555  65.8859912  84.4890258  16.0139855  47.6430624  85.7632118
  16.0781182  48.5045455  85.3509515  15.9506975  47.0304625  85.0304476
  15.4892128  49.7153756  89.4105152  16.1164166  49.3330834  90.0242676
  14.6320047  49.4967958  89.7760845  25.8886236  60.1216731  91.0158887
  26.4326140  60.7346690  90.5213842  25.3073081  60.6796310  91.5325901
  12.2657670  51.5230185  75.3423507  12.5611112  50.6140864  75.2890561
  11.3645706  51.5017925  75.0204509  24.1743749  63.2437450  82.1473915
  24.0494889  62.4427189  81.6384861  24.8322840  63.7383643  81.6587885
  26.2378658  61.0446470  83.7753465  25.2908993  60.9251821  83.7031792
  26.5861431  60.1568968  83.8579727  18.5978231  46.9340609  87.5991707
  19.1212633  47.1802905  88.3618017  18.3790564  47.7660643  87.1794845
  13.9945512  49.2044283  75.4662832  13.6658218  48.3241662  75.2837938
  14.3484883  49.1491952  76.3539221  23.2425091  60.8399186  79.9757818
  23.0950053  59.9115893  80.1565388  24.0678584  60.8619277  79.4914893
  26.8459213  61.6627745  81.0622690  27.7705760  61.4570606  80.9247141
  26.6774516  61.4144146  81.9712032  12.4531489  54.1928081  84.4848341
  11.9084957  54.9687889  84.6168615  13.3310839  54.5398886  84.3267462
  13.2397511  53.3197977  87.3778497  12.4979247  53.4680613  87.9643128
  12.9190255  53.5806243  86.5145247  21.1841173  62.8613956  87.1758887
  21.4928300  62.6163102  88.0481587  21.9816655  63.0660594  86.6877758
  21.2061785  65.0151865  79.4064264  20.7666776  64.5228244  80.0997121
  21.9569902  64.4724833  79.1656339  13.6854124  61.2063406  79.4088892
  14.5112144  60.9067178  79.0287536  13.3348176  60.4371029  79.8578681
  18.6535657  60.5589874  81.4786566  18.0315667  59.8960579  81.1788794
  19.3240524  60.5851006  80.7960213  11.8862729  59.1249733  80.3677826
  11.0494638  58.6971907  80.1861827  11.8586375  59.3182176  81.3048617
  18.7260185  49.0371662  91.0719072  18.7748340  49.9133785  90.6896841
  19.2682699  48.4949055  90.4990715  29.2115031  59.5812786  90.3520209
  28.4210574  59.5636924  89.8124708  28.9748385  60.1201079  91.1069245
  29.3312906  56.4305252  87.6652937  29.3810911  56.2655259  88.6068460
  29.2226829  55.5632511  87.2750818  18.2149164  59.1093798  74.9545026
  18.3637285  59.7929262  74.3011699  19.0215608  59.0898888  75.4694482
  26.6216668  52.4136180  88.9812244  27.5226531  52.2742645  88.6896242
  26.6964643  52.5790635  89.9210421  20.9559473  49.7903035  87.8265430
  20.0862783  50.0836601  87.5548019  21.1918954  50.3743480  88.5472694
  30.8331102  58.8502193  87.9094959  30.5415911  59.2132174  88.7458420
  30.2203234  58.1369202  87.7308291  29.0818291  53.9734808  86.3775017
  29.5572412  54.1662454  85.5693868  28.1583856  54.0293994  86.1318400
  15.9701797  55.1358975  75.9606095  15.7247839  54.2321305  76.1586305
  16.1397712  55.1376126  75.0185573  23.6598507  46.0082652  85.3430851
  24.1780451  46.7443679  85.0177339  23.3053640  46.3146645  86.1777610
  15.2397445  50.8687333  73.4592257  14.5466690  50.9431688  72.8032293
  14.9949197  50.1047676  73.9813773  21.7144570  61.6041928  72.4256774
  21.1418537  62.2232115  71.9727245  22.2877364  62.1541290  72.9596696
  27.7819960  50.8500568  84.6103322  28.7337383  50.9498666  84.6315546
  27.6123410  50.0578837  85.1201407  25.8034339  47.9356151  84.7962723
  25.2084271  48.2161164  84.1009212  25.5184036  48.4250052  85.5679464
  24.9341830  61.8879078  73.5565356  25.8672503  61.8224640  73.7598231
  24.8465042  62.7235345  73.0979889  30.2608038  54.0706688  83.7245622
  30.2284358  53.1322689  83.9105306  30.8708661  54.1490725  82.9911447
  30.4102526  50.8617731  83.7703905  29.8941575  50.0776188  83.5833834
  31.2942475  50.5336448  83.9350425  36.0784587  55.1322695  82.8651659
  36.8087976  54.8707983  83.4259362  35.4691533  54.3951417  82.9053727
  21.9830061  56.9920487  91.2273483  22.9033070  57.1699086  91.4213530
  21.9479644  56.0476532  91.0753182  11.2012226  52.1859081  80.1526758
  10.8815010  51.3324389  79.8601132  10.6545654  52.4007659  80.9084725
  14.9792133  54.9021522  83.8696264  15.1978143  55.8338629  83.8884298
  15.3917907  54.5429496  84.6551068  19.8519999  50.4754727  93.2599013
  19.7516726  51.4249084  93.1911104  19.6341541  50.1472966  92.3875083
  19.0533070  47.7239652  69.8439691  19.9152234  48.0494551  70.1035508
  19.2383414  46.9371148  69.3312756  11.0700486  55.8061992  82.1219879
  10.3763957  55.3915945  81.6089834  11.8173477  55.8482529  81.5253298
  19.7151269  53.9051866  92.0764075  19.2318351  54.7052226  92.2827964
  19.8012208  53.9159811  91.1231519  12.9837228  55.7380246  79.9985894
  12.9607917  55.8367933  79.0467777  13.2937865  56.5845397  80.3203060
  15.6424606  57.7956401  84.1132509  16.5967860  57.7640343  84.0462440
  15.4437130  57.3347025  84.9282735  16.2323988  56.3657517  86.6803306
  17.0516877  56.8601596  86.7038144  16.5060796  55.4489485  86.6520874
  13.9974835  63.3376020  81.1302706  13.8629303  62.5776421  80.5640705
  13.5806897  64.0616920  80.6631495  25.1333798  58.5212944  70.1379282
  25.8369648  58.7262946  70.7536937  24.4096447  59.0889706  70.4028365
  17.1543961  64.2345337  81.3421149  17.0376345  65.1790770  81.2399839
  16.3336407  63.9318899  81.7306948  11.4858903  50.6995651  87.3795503
  12.1317766  50.1894605  87.8682729  11.2776054  51.4364332  87.9538929
  24.0112295  57.7676498  92.8787644  24.8803454  57.9417151  92.5174279
  23.5319046  58.5870915  92.7563373  18.1798475  64.8873599  84.5577078
  19.0825722  64.9197210  84.8743573  17.9535845  63.9574050  84.5723413
  19.9352077  63.6404586  81.2187156  18.9847708  63.6406447  81.1051528
  20.2384563  62.8937320  80.7023191  15.8256394  47.8463268  91.4770518
  16.6887855  47.4900073  91.6873842  15.2521804  47.5077163  92.1645922
  35.6704771  69.4765124  82.2832919  36.3083181  69.3571872  81.5796259
  35.5525613  70.4245968  82.3420871  32.4794477  69.4292552  82.2194443
  32.1412988  69.3133617  81.3314978  33.3484245  69.0283717  82.1995449
  28.3381293  71.2828029  78.2091334  27.7746158  71.1917966  77.4407622
  28.2233688  70.4627933  78.6893827  32.9614260  70.5827404  88.1780649
  32.9502901  70.1880202  87.3061152  33.1234899  69.8493477  88.7714420
  25.8845725  72.7779220  81.0475555  26.6767016  72.4370045  80.6321854
  26.1242375  72.8874195  81.9677708  27.8436478  72.0388134  73.9192933
  28.6167354  71.4917121  73.7805809  28.1961877  72.9032383  74.1307395
  29.6821521  73.3664516  87.1259833  29.3911387  74.2710147  87.0106499
  30.3178505  73.4081044  87.8403902  30.6077728  70.7441364  83.7161192
  31.2041300  70.5197387  83.0018155  30.6652699  70.0026110  84.3186640
  30.1802756  68.1980800  71.5511383  30.4328277  67.6762321  70.7894846
  29.2427315  68.0346945  71.6538067  29.8999045  70.1008906  73.7535758
  29.7835303  69.4253809  74.4216843  30.0101305  69.6141280  72.9367911
  32.2430586  69.5619053  77.4582448  31.8788793  69.0349674  78.1695369
  33.0997702  69.1717522  77.2848933  34.6411406  73.0525931  84.1209626
  34.3412129  73.9550970  84.0125434  34.2962466  72.7858115  84.9730779
  28.0923888  69.5039728  80.1546331  27.1674384  69.3715942  80.3624023
  28.3408301  70.2833948  80.6516273  31.8625294  67.0466610  73.4390463
  31.7424919  67.4923661  74.2775943  31.1677882  67.3951928  72.8804001
  25.4532699  69.1473002  80.9890120  25.5825080  69.4007481  81.9029532
  24.7730150  69.7400710  80.6694775  29.6232186  79.8170252  77.0880594
  29.5456216  80.7678077  77.1669075  29.0193829  79.4716124  77.7455520
  32.1149416  66.9898117  89.7441961  31.3382750  67.5492037  89.7344826
  32.7539979  67.4754900  90.2656831  37.5610360  67.5188083  74.2670797
  38.4728216  67.7515470  74.0918495  37.0520007  68.1025127  73.7045876
  30.3695788  69.7983571  89.3059928  31.1110472  70.3368615  89.0294752
  29.6632773  70.4249859  89.4631480  35.8451128  71.9412711  87.9032090
  36.2534484  71.4995122  87.1586722  35.1228389  71.3665339  88.1566282
  32.1982198  66.8785318  85.2765647  33.0443393  67.3024731  85.4200296
  32.1380835  66.2218942  85.9704210  36.1679942  72.5013902  81.6584378
  35.5388805  72.6659616  80.9560446  35.7805604  72.9155511  82.4295342
  40.0469174  73.4368339  79.0128742  39.3620212  73.8167241  78.4625776
  40.1313023  74.0463666  79.7460690  35.3481643  64.5389686  86.9346820
  35.1042575  65.2931747  86.3981096  35.6241573  64.9175034  87.7694067
  37.3020106  71.0828299  85.6124086  37.5137001  71.7260058  84.9358467
  37.2549854  70.2490615  85.1446016  31.7207904  72.2388310  78.9234464
  32.1846250  72.5176013  78.1339086  31.4564702  71.3371754  78.7407554
  28.6131985  71.7859791  81.8614227  29.1833342  72.2147060  81.2231711
  29.2040097  71.5042376  82.5598412  30.6576790  68.3611462  75.7324029
  31.3600834  68.8132506  76.1997955  30.3257419  67.7195281  76.3603922
  29.1057152  66.9523219  90.1075238  28.4755812  67.6339500  90.3410635
  28.9993240  66.8406300  89.1628376  24.4002124  66.6195015  81.0341162
  23.6101178  66.8752543  80.5581273  24.8913372  67.4343353  81.1393203
  38.4165934  73.9600254  83.7846443  39.2383377  73.5580441  83.5029125
  38.4128337  73.8568488  84.7362559  26.3516870  66.9839594  77.9924639
  25.5548033  67.0958288  78.5108135  26.1242462  67.3226246  77.1265529
  32.1822537  73.5084297  85.9407154  32.2466970  73.9704704  86.7765325
  31.4733461  72.8781662  86.0689463  22.6839827  66.8725505  83.4656153
  22.9347866  67.7572515  83.7313729  23.2199376  66.6930107  82.6931245
  46.5071927  70.3039002  80.1331415  45.7535635  69.7346400  79.9775419
  46.6419468  70.2701667  81.0802049  31.8970555  75.1752405  75.8086134
  31.7616230  76.0203940  76.2370982  32.4380367  75.3771682  75.0452068
  28.3837894  61.2543985  92.4700489  27.9904840  60.7010183  93.1448133
  29.2004035  61.5654563  92.8607007  25.3499952  72.6927843  76.3814059
  25.8624473  73.4871093  76.5319624  26.0022665  71.9954133  76.3147660
  27.1594837  75.8093599  78.4636812  27.3361465  76.7311564  78.2757796
  27.9551670  75.4952018  78.8931192  31.3005855  62.6701864  90.0620746
  32.0415569  63.2709017  89.9825208  31.5323778  61.9279501  89.5038788
  26.4447193  67.8558231  88.3398975  26.3300709  66.9543488  88.6406074
  25.5891711  68.1021928  87.9883792  33.5239031  75.7975971  89.9386476
  33.0802885  75.0112350  89.6207380  34.1856245  75.9855122  89.2730367
  28.2826152  77.3271773  84.4647154  28.8333577  77.1988836  83.6924148
  27.4437628  77.6266662  84.1142047  35.6220269  76.0778771  87.9667877
  35.6038745  76.8987652  87.4748146  36.5440189  75.9532846  88.1918018
  32.0793323  73.5922901  88.8091386  32.6121660  72.8311189  88.5790694
  31.5507405  73.2996552  89.5515540  35.2463018  58.6982967  84.3385027
  34.9027288  59.5884608  84.2624138  35.6141981  58.5084624  83.4754612
  23.3148869  71.0216497  77.1573630  24.1524091  71.4313505  76.9407337
  23.4927137  70.0815939  77.1273823  35.2113301  68.6891578  72.8457462
  34.6959925  69.4596182  73.0845850  34.9390610  68.0156714  73.4690524
  34.9999604  66.5618670  74.6717244  34.6949740  66.8764819  75.5227387
  35.9530046  66.6400090  74.7144577  33.4446036  72.7208893  76.3210198
  32.9167398  71.9861653  76.0083435  32.9433539  73.4983569  76.0750166
  38.4238882  70.9157914  81.4377244  37.7662557  71.6057175  81.5257373
  39.2279281  71.3054346  81.7811230  37.2344341  69.2702286  79.4881186
  37.7476223  69.9032278  79.9902895  37.8845565  68.6703482  79.1224546
  28.5034351  65.4133020  72.7012694  27.6671663  65.7507707  73.0221969
  28.3639120  65.2782000  71.7639831  33.7125172  66.7451742  81.7339526
  32.7947733  66.9666689  81.5761214  34.1285315  66.8198052  80.8751234
  34.4960220  68.1443158  76.8642206  35.2432039  68.6564555  76.5549329
  34.7651809  67.8227210  77.7246600  32.7686870  70.6401698  73.8469161
  31.8598089  70.3560731  73.9441631  32.7981954  71.0600777  72.9872468
  36.4439076  76.0884784  78.5510146  36.7362051  76.6489842  77.8322512
  36.9537697  76.3813345  79.3063306  23.3375040  68.3607212  77.8284363
  23.1399440  67.7676573  77.1035430  22.7821704  68.0559423  78.5460302
  31.3171764  68.2530319  79.9478956  31.3720374  67.3004155  79.8721433
  30.5062966  68.4089758  80.4320255  29.2564124  66.8707379  77.7069335
  28.4431989  67.1701549  78.1134527  29.7523118  66.4763067  78.4243817
  31.4072702  76.8665136  79.6403600  31.3648880  77.0925982  78.7112132
  32.3235400  76.6328510  79.7889401  34.8538335  67.3349203  86.5384229
  35.2087723  67.5620676  87.3978695  35.5010467  67.6667580  85.9161484
  28.7478198  64.4425734  83.3230570  29.3877578  64.3014493  82.6253533
  27.9155729  64.1560248  82.9469172  40.6105452  72.5244166  82.2544829
  41.0441959  72.4319455  83.1027883  41.3237033  72.5001666  81.6164845
  29.5238502  73.7428165  79.4365562  30.3179101  73.2478485  79.2348137
  28.8130195  73.2146028  79.0733268  34.3433347  76.1246260  83.7877930
  34.3970369  76.6937196  84.5555646  33.4748128  76.2948145  83.4231967
  25.8321266  67.8871246  75.5125315  24.9018854  67.8255702  75.7295277
  25.9278738  67.3647199  74.7161956  25.7506815  64.4126059  78.1003557
  26.0113632  65.3271392  77.9912717  26.5723987  63.9450502  78.2500170
  27.2231740  65.8263816  85.2702381  27.8954794  65.6181178  84.6215030
  26.3961527  65.6285902  84.8307614  41.4721001  72.5667867  84.7877715
  41.6656892  73.4713677  85.0336990  41.3721620  72.1075286  85.6216300
  33.1257312  62.4525757  87.2868042  32.4785227  63.1515707  87.1932519
  33.8958328  62.8861901  87.6544290  36.5336110  72.7174609  90.3618595
  36.3821617  72.4885161  89.4448679  36.5240790  73.6745211  90.3749940
  33.3021447  70.2906522  85.3464862  34.2313507  70.4417682  85.1733829
  32.8812477  70.3790543  84.4913508  32.1009778  74.3157187  83.1163399
  31.9620864  73.9475971  83.9889338  31.3124375  74.8304826  82.9447357
  33.6514994  73.6938789  80.5052237  33.3164826  73.6539559  81.4009887
  33.1518939  73.0283505  80.0322647  27.6259237  69.1006419  86.0304818
  27.4879035  68.3686658  86.6316357  28.5364161  69.0115319  85.7489006
  30.2541538  68.8126379  85.5188498  30.9641157  68.1719571  85.4775116
  30.2110846  69.0639273  86.4414679  38.2428317  75.7493732  88.4395077
  38.1840863  75.0652952  87.7725660  38.6447835  76.4912722  87.9875703
  28.9670472  65.7991596  87.3384138  28.4307829  65.3482335  87.9905734
  28.3787181  65.9337505  86.5954602  27.2619016  82.5655646  81.2328796
  27.5015614  83.1974170  81.9107815  26.4188212  82.2143686  81.5194155
  28.3772731  65.2580248  69.9010601  27.5002197  65.1369049  69.5372848
  28.8530484  64.4666326  69.6489490  38.2445724  73.7133316  86.6709057
  37.3572503  73.3759238  86.7935456  38.8144275  72.9816347  86.9077822
  19.8974871  70.0457408  79.9952108  20.5845911  69.7319138  79.4073124
  19.7423000  70.9498772  79.7219360  24.7009593  64.9347604  84.4237132
  24.6167782  64.3273274  83.6887542  23.8792300  65.4256622  84.4246628
  31.7746877  78.3734768  83.6370300  31.7017049  79.1789740  84.1489605
  31.3324271  78.5726734  82.8118322  31.5636657  77.6106538  77.1473122
  30.7804179  78.1528218  77.2411346  32.2629402  78.1280518  77.5467363
  42.7263065  69.1241533  81.4325619  42.7152941  70.0066249  81.0619552
  41.8580444  68.7713084  81.2380156  34.2345561  78.2721602  85.7928459
  34.9473533  78.9069067  85.7204360  33.7435590  78.3685468  84.9768461
  29.2857475  76.0216046  86.6134030  29.9866934  76.6552529  86.7663424
  28.8152590  76.3630777  85.8529669  37.0858760  68.5760653  84.4386580
  36.4330211  68.8236561  83.7839033  37.4639140  67.7624791  84.1049057
  34.0465934  78.6120346  78.5414750  34.2288329  77.7942002  79.0042503
  34.8698920  78.8288039  78.1039640  33.1346334  69.3180464  90.9252617
  32.4586971  69.2174594  91.5954992  33.9573967  69.1619678  91.3888614
  24.8825193  75.5552401  83.5465132  25.4678629  74.8096089  83.6793037
  24.6850031  75.8656357  84.4301796  27.7363848  78.5903648  78.5627575
  27.0674223  79.0749776  78.0791615  27.5976718  78.8372869  79.4770953
  19.4742847  68.1258001  82.2669575  19.5126947  67.5921592  83.0606694
  18.9683140  67.5993206  81.6480553  31.8769116  80.6247392  85.1610233
  32.4287424  80.7879013  85.9259318  32.2175310  81.2151829  84.4890258
  26.8533610  62.9722541  85.7632118  26.9174936  63.8337372  85.3509515
  26.7900730  62.3596543  85.0304476  26.3285882  65.0445674  89.4105152
  26.9557921  64.6622751  90.0242676  25.4713801  64.8259876  89.7760845
  36.7279991  75.4508649  91.0158887  37.2719895  76.0638607  90.5213842
  36.1466836  76.0088228  91.5325901  23.1051425  66.8522103  75.3423507
  23.4004866  65.9432782  75.2890561  22.2039461  66.8309843  75.0204509
  35.0137504  78.5729367  82.1473915  34.8888643  77.7719107  81.6384861
  35.6716595  79.0675561  81.6587885  26.6345672  64.9278100  81.3251055
  25.9132258  65.5414067  81.1858529  27.4238928  65.4635865  81.2467701
  37.0772412  76.3738387  83.7753465  36.1302748  76.2543738  83.7031792
  37.4255185  75.4860885  83.8579727  29.4371985  62.2632526  87.5991707
  29.9606387  62.5094823  88.3618017  29.2184319  63.0952561  87.1794845
  24.8339266  64.5336201  75.4662832  24.5051973  63.6533580  75.2837938
  25.1878637  64.4783869  76.3539221  34.0818845  76.1691103  79.9757818
  33.9343808  75.2407811  80.1565388  34.9072339  76.1911194  79.4914893
  37.6852967  76.9919662  81.0622690  38.6099515  76.7862524  80.9247141
  37.5168271  76.7436063  81.9712032  30.6424530  63.2046221  85.2841378
  30.3021351  62.4054034  85.6862058  29.9363537  63.5047932  84.7118211
  28.8179581  66.9814654  81.5460679  28.6724162  67.2954957  82.4384961
  28.3404785  67.5999555  80.9931578  32.5302095  64.4054543  83.6394696
  32.2719872  65.3271613  83.6379027  31.9987135  64.0084977  84.3295160
  37.4748283  77.5105330  76.4184782  37.6485161  76.9451752  75.6658634
  37.9677175  78.3106225  76.2364272  23.2925243  69.5219999  84.4848341
  22.7478711  70.2979807  84.6168615  24.1704593  69.8690803  84.3267462
  24.0791265  68.6489895  87.3778497  23.3373001  68.7972530  87.9643128
  23.7584009  68.9098161  86.5145247  32.0234928  78.1905873  87.1758887
  32.3322054  77.9455020  88.0481587  32.8210410  78.3952512  86.6877758
  32.0455540  80.3443783  79.4064264  31.6060530  79.8520162  80.0997121
  32.7963657  79.8016751  79.1656339  24.5247879  76.5355324  79.4088892
  25.3505899  76.2359096  79.0287536  24.1741931  75.7662946  79.8578681
  29.4929412  75.8881792  81.4786566  28.8709421  75.2252497  81.1788794
  30.1634279  75.9142924  80.7960213  22.7256484  74.4541650  80.3677826
  21.8888392  74.0263825  80.1861827  22.6980129  74.6474094  81.3048617
  29.5653939  64.3663580  91.0719072  29.6142095  65.2425703  90.6896841
  30.1076454  63.8240973  90.4990715  40.0508785  74.9104703  90.3520209
  39.2604329  74.8928842  89.8124708  39.8142140  75.4492997  91.1069245
  40.1706660  71.7597170  87.6652937  40.2204665  71.5947177  88.6068460
  40.0620583  70.8924429  87.2750818  29.0542919  74.4385715  74.9545026
  29.2031039  75.1221180  74.3011699  29.8609362  74.4190805  75.4694482
  37.4610423  67.7428098  88.9812244  38.3620285  67.6034562  88.6896242
  37.5358397  67.9082552  89.9210421  31.7953228  65.1194952  87.8265430
  30.9256537  65.4128518  87.5548019  32.0312708  65.7035397  88.5472694
  41.6724857  74.1794111  87.9094959  41.3809665  74.5424092  88.7458420
  41.0596988  73.4661119  87.7308291  42.8720539  71.7446991  80.4297529
  43.7067431  72.1836795  80.5935089  43.0079668  71.2685644  79.6105775
  39.9212045  69.3026726  86.3775017  40.3966167  69.4954372  85.5693868
  38.9977611  69.3585912  86.1318400  26.8095552  70.4650893  75.9606095
  26.5641594  69.5613223  76.1586305  26.9791466  70.4668043  75.0185573
  34.4992262  61.3374569  85.3430851  35.0174206  62.0735596  85.0177339
  34.1447394  61.6438563  86.1777610  26.0791199  66.1979251  73.4592257
  25.3860444  66.2723606  72.8032293  25.8342951  65.4339594  73.9813773
  41.1001792  69.3998606  83.7245622  41.0678112  68.4614606  83.9105306
  41.7102416  69.4782642  82.9911447  32.9385123  68.2694659  69.7672826
  33.8844228  68.1400867  69.8361244  32.5599368  67.5309320  70.2442254
  46.9178342  70.4614612  82.8651659  47.6481730  70.1999901  83.4259362
  46.3085287  69.7243334  82.9053727  44.9993639  68.6022475  83.4626110
  44.2726803  68.4678440  82.8542602  44.5840926  68.9099304  84.2682828
  32.8223815  72.3212405  91.2273483  33.7426825  72.4991004  91.4213530
  32.7873398  71.3768450  91.0753182  22.0405980  67.5150998  80.1526758
  21.7208765  66.6616307  79.8601132  21.4939409  67.7299576  80.9084725
  25.8185888  70.2313439  83.8696264  26.0371898  71.1630547  83.8884298
  26.2311662  69.8721414  84.6551068  30.6913753  65.8046645  93.2599013
  30.5910480  66.7541002  93.1911104  30.4735295  65.4764884  92.3875083
  21.9094240  71.1353910  82.1219879  21.2157712  70.7207863  81.6089834
  22.6567231  71.1774446  81.5253298  30.5545023  69.2343784  92.0764075
  30.0712105  70.0344144  92.2827964  30.6405962  69.2451729  91.1231519
  23.8230983  71.0672164  79.9985894  23.8001671  71.1659851  79.0467777
  24.1331619  71.9137314  80.3203060  26.4818361  73.1248319  84.1132509
  27.4361614  73.0932261  84.0462440  26.2830884  72.6638942  84.9282735
  27.0717743  71.6949435  86.6803306  27.8910632  72.1893513  86.7038144
  27.3454551  70.7781403  86.6520874  24.8368590  78.6667938  81.1302706
  24.7023058  77.9068339  80.5640705  24.4200652  79.3908838  80.6631495
  36.8025363  69.6014723  76.2581552  36.7460564  70.0583274  75.4189184
  37.3553705  68.8405407  76.0804395  44.9242507  68.1300528  79.5902963
  44.3642065  68.1993717  80.3634525  44.3186010  67.9541513  78.8702459
  27.9937715  79.5637255  81.3421149  27.8770100  80.5082688  81.2399839
  27.1730162  79.2610817  81.7306948  22.3252657  66.0287569  87.3795503
  22.9711521  65.5186522  87.8682729  22.1169808  66.7656250  87.9538929
  34.8506049  73.0968416  92.8787644  35.7197209  73.2709068  92.5174279
  34.3712801  73.9162833  92.7563373  29.0192230  80.2165517  84.5577078
  29.9219476  80.2489127  84.8743573  28.7929600  79.2865968  84.5723413
  30.7745832  78.9696504  81.2187156  29.8241463  78.9698365  81.1051528
  31.0778318  78.2229238  80.7023191  26.6650148  63.1755186  91.4770518
  27.5281610  62.8191990  91.6873842  26.0915559  62.8369080  92.1645922
  46.5098525  84.8057042  82.2832919  47.1476935  84.6863789  81.5796259
  46.3919368  85.7537886  82.3420871  43.3188231  84.7584470  82.2194443
  42.9806743  84.6425535  81.3314978  44.1878000  84.3575635  82.1995449
  39.1775047  86.6119946  78.2091334  38.6139912  86.5209883  77.4407622
  39.0627442  85.7919851  78.6893827  43.8008014  85.9119322  88.1780649
  43.7896655  85.5172120  87.3061152  43.9628654  85.1785394  88.7714420
  36.7239479  88.1071138  81.0475555  37.5160771  87.7661963  80.6321854
  36.9636129  88.2166113  81.9677708  44.7574606  90.2790914  73.5205799
  44.1062586  90.8644995  73.1339813  45.5518969  90.8097109  73.5800837
  38.6830233  87.3680051  73.9192933  39.4561109  86.8209038  73.7805809
  39.0355632  88.2324301  74.1307395  40.5215276  88.6956434  87.1259833
  40.2305141  89.6002064  87.0106499  41.1572260  88.7372961  87.8403902
  41.4471482  86.0733282  83.7161192  42.0435055  85.8489305  83.0018155
  41.5046454  85.3318028  84.3186640  41.0196511  83.5272717  71.5511383
  41.2722031  83.0054239  70.7894846  40.0821070  83.3638863  71.6538067
  46.0639794  82.5308496  79.3586127  46.8502883  82.1127919  79.0076544
  46.3278498  83.4354588  79.5267775  46.2349871  87.9681346  74.0574783
  45.5995704  88.0415973  74.7695688  45.9047277  88.5574945  73.3793863
  51.4648221  82.4683729  80.2619105  52.1973393  81.8982946  80.4956935
  50.7087576  82.0805329  80.7025611  40.7392799  85.4300823  73.7535758
  40.6229058  84.7545727  74.4216843  40.8495059  84.9433197  72.9367911
  43.0824340  84.8910970  77.4582448  42.7182548  84.3641591  78.1695369
  43.9391456  84.5009440  77.2848933  48.9873641  76.1805303  84.7213714
  48.6556966  77.0500714  84.4974929  48.3919254  75.8641587  85.4007744
  42.7229827  79.9200870  72.4543796  42.8904230  80.7881107  72.8214267
  42.5326996  80.0828152  71.5305085  45.4805161  88.3817849  84.1209626
  45.1805884  89.2842888  84.0125434  45.1356220  88.1150032  84.9730779
  38.9317642  84.8331646  80.1546331  38.0068139  84.7007860  80.3624023
  39.1802055  85.6125865  80.6516273  48.8802304  80.9000389  81.8007064
  47.9719182  80.8315798  81.5065825  48.8289900  81.3772334  82.6288889
  42.7019048  82.3758528  73.4390463  42.5818673  82.8215578  74.2775943
  42.0071637  82.7243845  72.8804001  36.2926453  84.4764919  80.9890120
  36.4218834  84.7299398  81.9029532  35.6123904  85.0692627  80.6694775
  40.4625940  95.1462169  77.0880594  40.3849970  96.0969995  77.1669075
  39.8587584  94.8008042  77.7455520  42.9543170  82.3190035  89.7441961
  42.1776504  82.8783955  89.7344826  43.5933733  82.8046818  90.2656831
  50.7463951  79.1016828  83.5784938  50.1038331  79.3949361  82.9324732
  50.2418879  78.9869748  84.3838134  41.2089542  85.1275488  89.3059928
  41.9504227  85.6660532  89.0294752  40.5026528  85.7541777  89.4631480
  46.6844882  87.2704629  87.9032090  47.0928238  86.8287039  87.1586722
  45.9622144  86.6957256  88.1566282  43.0375952  82.2077235  85.2765647
  43.8837147  82.6316649  85.4200296  42.9774590  81.5510860  85.9704210
  47.0073697  87.8305819  81.6584378  46.3782559  87.9951533  80.9560446
  46.6199359  88.2447429  82.4295342  50.8862929  88.7660257  79.0128742
  50.2013967  89.1459159  78.4625776  50.9706778  89.3755584  79.7460690
  46.1875397  79.8681604  86.9346820  45.9436329  80.6223664  86.3981096
  46.4635328  80.2466951  87.7694067  48.1413860  86.4120216  85.6124086
  48.3530755  87.0551976  84.9358467  48.0943609  85.5782533  85.1446016
  45.7440089  79.0238037  82.5160658  44.8824568  79.3219290  82.8077395
  45.7702524  79.2408436  81.5841691  42.5601659  87.5680227  78.9234464
  43.0240004  87.8467930  78.1339086  42.2958457  86.6663672  78.7407554
  39.4525740  87.1151709  81.8614227  40.0227097  87.5438977  81.2231711
  40.0433852  86.8334294  82.5598412  41.4970545  83.6903380  75.7324029
  42.1994588  84.1424423  76.1997955  41.1651173  83.0487199  76.3603922
  39.9450906  82.2815136  90.1075238  39.3149567  82.9631417  90.3410635
  39.8386994  82.1698218  89.1628376  35.2395879  81.9486932  81.0341162
  34.4494933  82.2044461  80.5581273  35.7307126  82.7635270  81.1393203
  49.2559688  89.2892172  83.7846443  50.0777132  88.8872359  83.5029125
  49.2522091  89.1860406  84.7362559  37.1910624  82.3131512  77.9924639
  36.3941787  82.4250206  78.5108135  36.9636216  82.6518164  77.1265529
  43.0216292  88.8376215  85.9407154  43.0860724  89.2996622  86.7765325
  42.3127216  88.2073580  86.0689463  33.5233582  82.2017423  83.4656153
  33.7741620  83.0864433  83.7313729  34.0593130  82.0222024  82.6931245
  57.3465681  85.6330920  80.1331415  56.5929390  85.0638318  79.9775419
  57.4813222  85.5993585  81.0802049  42.7364309  90.5044322  75.8086134
  42.6009984  91.3495858  76.2370982  43.2774122  90.7063600  75.0452068
  39.2231649  76.5835902  92.4700489  38.8298595  76.0302101  93.1448133
  40.0397789  76.8946481  92.8607007  36.1893707  88.0219760  76.3814059
  36.7018227  88.8163011  76.5319624  36.8416420  87.3246051  76.3147660
  37.9988591  91.1385517  78.4636812  38.1755220  92.0603481  78.2757796
  38.7945425  90.8243936  78.8931192  42.1399610  77.9993781  90.0620746
  42.8809323  78.6000934  89.9825208  42.3717533  77.2571419  89.5038788
  37.2840948  83.1850149  88.3398975  37.1694463  82.2835406  88.6406074
  36.4285466  83.4313845  87.9883792  44.3632786  91.1267889  89.9386476
  43.9196640  90.3404267  89.6207380  45.0249999  91.3147039  89.2730367
  39.1219907  92.6563690  84.4647154  39.6727332  92.5280754  83.6924148
  38.2831383  92.9558580  84.1142047  46.4614024  91.4070689  87.9667877
  46.4432499  92.2279570  87.4748146  47.3833944  91.2824764  88.1918018
  42.9187078  88.9214818  88.8091386  43.4515415  88.1603107  88.5790694
  42.3901159  88.6288470  89.5515540  46.0856773  74.0274884  84.3385027
  45.7421042  74.9176526  84.2624138  46.4535735  73.8376542  83.4754612
  34.1542623  86.3508415  77.1573630  34.9917845  86.7605423  76.9407337
  34.3320891  85.4107857  77.1273823  46.0507056  84.0183495  72.8457462
  45.5353679  84.7888100  73.0845850  45.7784364  83.3448632  73.4690524
  43.6354167  78.8633196  77.9042701  42.7795763  78.4740047  77.7248340
  44.0481118  78.9425157  77.0442486  45.1653313  76.3979539  82.3034261
  44.6618109  76.3609675  81.4902066  45.4583920  77.3072282  82.3630917
  41.4096199  76.4818269  81.3100442  42.2749196  76.2861078  80.9506332
  41.4773708  76.2528621  82.2369799  51.0241330  86.7715850  74.7810636
  50.2470772  86.4327010  74.3365798  51.7032811  86.7768473  74.1065601
  45.8393359  81.8910587  74.6717244  45.5343494  82.2056737  75.5227387
  46.7923801  81.9692007  74.7144577  44.2839791  88.0500811  76.3210198
  43.7561152  87.3153570  76.0083435  43.7827293  88.8275487  76.0750166
  49.2632637  86.2449831  81.4377244  48.6056311  86.9349093  81.5257373
  50.0673036  86.6346263  81.7811230  39.0158518  78.7120477  78.6816809
  39.5902270  78.4895659  77.9490002  39.6029501  78.7809172  79.4345410
  48.0738095  84.5994204  79.4881186  48.5869977  85.2324196  79.9902895
  48.7239319  83.9995399  79.1224546  39.3428105  80.7424938  72.7012694
  38.5065418  81.0799625  73.0221969  39.2032875  80.6073918  71.7639831
  41.3181186  75.5861726  77.4091879  40.6645598  75.2710743  76.7848493
  41.2761660  74.9637466  78.1351702  42.4292391  85.8681021  69.3245171
  41.5219453  85.6370275  69.5236320  42.9263423  85.0718640  69.5119152
  45.3360470  94.5778528  72.2441857  44.6622168  94.8810225  72.8526815
  45.7226292  95.3807609  71.8947314  44.5518926  82.0743660  81.7339526
  43.6341488  82.2958607  81.5761214  44.9679070  82.1489970  80.8751234
  45.3353974  83.4735075  76.8642206  46.0825793  83.9856472  76.5549329
  45.6045564  83.1519128  77.7246600  43.6080624  85.9693616  73.8469161
  42.6991843  85.6852649  73.9441631  43.6375708  86.3892694  72.9872468
  48.8399892  89.5800205  77.6160328  48.3862219  88.7391115  77.6725519
  48.2093858  90.2161604  77.9535108  47.7832811  80.5092191  78.8460996
  47.0455568  79.9969578  79.1771238  48.0359585  80.0692573  78.0344273
  47.2832831  91.4176702  78.5510146  47.5755805  91.9781759  77.8322512
  47.7931451  91.7105263  79.3063306  34.1768795  83.6899130  77.8284363
  33.9793194  83.0968491  77.1035430  33.6215459  83.3851340  78.5460302
  42.1565518  83.5822237  79.9478956  42.2114128  82.6296073  79.8721433
  41.3456720  83.7381676  80.4320255  43.3056712  87.5102360  71.1857239
  42.8676142  86.7938219  70.7262877  44.0467153  87.7378474  70.6242331
  40.0957878  82.1999296  77.7069335  39.2825744  82.4993467  78.1134527
  40.5916872  81.8054985  78.4243817  42.2466456  92.1957053  79.6403600
  42.2042635  92.4217900  78.7112132  43.1629155  91.9620428  79.7889401
  45.6932090  82.6641121  86.5384229  46.0481478  82.8912594  87.3978695
  46.3404221  82.9959498  85.9161484  51.4229827  85.7859557  77.2433558
  51.2847725  85.9761153  76.3154747  51.0666046  86.5478939  77.7001609
  39.5871953  79.7717652  83.3230570  40.2271332  79.6306411  82.6253533
  38.7549483  79.4852165  82.9469172  51.4499206  87.8536084  82.2544829
  51.8835713  87.7611373  83.1027883  52.1630787  87.8293584  81.6164845
  40.3632257  89.0720082  79.4365562  41.1572855  88.5770402  79.2348137
  39.6523949  88.5437945  79.0733268  45.1827101  91.4538178  83.7877930
  45.2364124  92.0229114  84.5555646  44.3141883  91.6240063  83.4231967
  36.6715020  83.2163164  75.5125315  35.7412608  83.1547619  75.7295277
  36.7672492  82.6939117  74.7161956  36.5900569  79.7417977  78.1003557
  36.8507387  80.6563310  77.9912717  37.4117742  79.2742419  78.2500170
  38.0625495  81.1555734  85.2702381  38.7348548  80.9473096  84.6215030
  37.2355281  80.9577820  84.8307614  52.3114756  87.8959784  84.7877715
  52.5050646  88.8005595  85.0336990  52.2115374  87.4367203  85.6216300
  43.9651067  77.7817675  87.2868042  43.3178982  78.4807625  87.1932519
  44.7352082  78.2153819  87.6544290  47.3729865  88.0466527  90.3618595
  47.2215371  87.8177079  89.4448679  47.3634544  89.0037128  90.3749940
  44.1415201  85.6198440  85.3464862  45.0707261  85.7709599  85.1733829
  43.7206231  85.7082461  84.4913508  42.9403533  89.6449104  83.1163399
  42.8014619  89.2767889  83.9889338  42.1518129  90.1596744  82.9447357
  43.5351685  94.7458201  74.4588936  43.7103441  94.2746244  75.2734559
  42.8484473  95.3723967  74.6870197  44.4908748  89.0230707  80.5052237
  44.1558581  88.9831477  81.4009887  43.9912694  88.3575423  80.0322647
  38.4652992  84.4298337  86.0304818  38.3272790  83.6978576  86.6316357
  39.3757915  84.3407237  85.7489006  41.0935293  84.1418296  85.5188498
  41.8034911  83.5011488  85.4775116  41.0504601  84.3931191  86.4414679
  49.0822071  91.0785650  88.4395077  49.0234617  90.3944870  87.7725660
  49.4841590  91.8204640  87.9875703  39.8064227  81.1283514  87.3384138
  39.2701584  80.6774253  87.9905734  39.2180935  81.2629423  86.5954602
  38.1012770  97.8947563  81.2328796  38.3409368  98.5266088  81.9107815
  37.2581967  97.5435603  81.5194155  39.2166486  80.5872166  69.9010601
  38.3395952  80.4660966  69.5372848  39.6924239  79.7958244  69.6489490
  49.0839479  89.0425234  86.6709057  48.1966257  88.7051155  86.7935456
  49.6538030  88.3108265  86.9077822  30.7368626  85.3749325  79.9952108
  31.4239666  85.0611055  79.4073124  30.5816754  86.2790690  79.7219360
  35.5403348  80.2639522  84.4237132  35.4561537  79.6565191  83.6887542
  34.7186054  80.7548540  84.4246628  42.6140632  93.7026686  83.6370300
  42.5410803  94.5081657  84.1489605  42.1718025  93.9018652  82.8118322
  42.4030412  92.9398456  77.1473122  41.6197933  93.4820136  77.2411346
  43.1023157  93.4572436  77.5467363  45.7127062  78.7493085  79.7907327
  46.2095761  77.9963048  79.4708397  44.9414043  78.7857402  79.2250536
  53.5656819  84.4533451  81.4325619  53.5546695  85.3358166  81.0619552
  52.6974199  84.1005002  81.2380156  45.0739315  93.6013520  85.7928459
  45.7867288  94.2360985  85.7204360  44.5829344  93.6977386  84.9768461
  46.7956842  87.5064773  77.3645750  45.8613121  87.6266235  77.1950455
  46.9733511  86.6037239  77.1005760  42.2962030  80.8910468  79.5179012
  41.9259818  80.3381509  80.2059917  42.7921123  80.2868602  78.9654012
  50.1829394  83.3482092  77.8995785  50.6489846  84.1810083  77.8256087
  50.6336894  82.8827073  78.6041043  40.1251229  91.3507963  86.6134030
  40.8260689  91.9844446  86.7663424  39.6546344  91.6922695  85.8529669
  48.2505625  89.6925913  74.8981937  48.5265469  89.5782508  75.8075811
  47.3810124  89.2943398  74.8594110  48.1546056  75.7162679  81.9386686
  47.2409136  75.9466906  82.1068893  48.5839158  75.8001123  82.7900718
  47.9252515  83.9052571  84.4386580  47.2723965  84.1528478  83.7839033
  48.3032895  83.0916709  84.1049057  44.8859689  93.9412264  78.5414750
  45.0682083  93.1233920  79.0042503  45.7092675  94.1579956  78.1039640
  45.2201854  92.8680449  75.8029799  45.7489621  92.3572904  75.1899961
  45.4830074  92.5522979  76.6675332  43.9740088  84.6472382  90.9252617
  43.2980725  84.5466511  91.5954992  44.7967722  84.4911596  91.3888614
  35.7218947  90.8844318  83.5465132  36.3072384  90.1388006  83.6793037
  35.5243786  91.1948275  84.4301796  38.5757602  93.9195566  78.5627575
  37.9067978  94.4041693  78.0791615  38.4370472  94.1664786  79.4770953
  30.3136602  83.4549919  82.2669575  30.3520701  82.9213509  83.0606694
  29.8076895  82.9285124  81.6480553  42.7162871  95.9539309  85.1610233
  43.2681179  96.1170931  85.9259318  43.0569064  96.5443747  84.4890258
  37.6927364  78.3014459  85.7632118  37.7568691  79.1629290  85.3509515
  37.6294484  77.6888461  85.0304476  37.1679637  80.3737592  89.4105152
  37.7951675  79.9914669  90.0242676  36.3107556  80.1551794  89.7760845
  47.5673745  90.7800567  91.0158887  48.1113649  91.3930525  90.5213842
  46.9860590  91.3380145  91.5325901  33.9445179  82.1814021  75.3423507
  34.2398620  81.2724699  75.2890561  33.0433215  82.1601760  75.0204509
  45.8531258  93.9021285  82.1473915  45.7282398  93.1011025  81.6384861
  46.5110349  94.3967478  81.6587885  37.4739426  80.2570017  81.3251055
  36.7526012  80.8705985  81.1858529  38.2632682  80.7927782  81.2467701
  47.9166167  91.7030305  83.7753465  46.9696502  91.5835656  83.7031792
  48.2648940  90.8152803  83.8579727  40.2765740  77.5924444  87.5991707
  40.8000142  77.8386740  88.3618017  40.0578073  78.4244479  87.1794845
  44.9212600  91.4983021  79.9757818  44.7737562  90.5699729  80.1565388
  45.7466093  91.5203112  79.4914893  38.7874844  80.1501088  75.8338310
  39.1270917  80.6787009  75.1116918  39.2346965  80.4881494  76.6096876
  48.5246722  92.3211580  81.0622690  49.4493269  92.1154441  80.9247141
  48.3562025  92.0727981  81.9712032  41.4818285  78.5338139  85.2841378
  41.1415105  77.7345952  85.6862058  40.7757291  78.8339850  84.7118211
  42.1334757  75.6187451  83.7368701  42.9560826  75.1447930  83.6147591
  42.3772820  76.3977935  84.2367387  40.7742991  78.6475710  74.0331602
  41.4951354  79.0256963  73.5295319  40.1508295  79.3664587  74.1366580
  44.9174114  79.3520859  74.9689935  45.1337729  80.2345497  74.6678763
  44.4368181  78.9607072  74.2395577  39.6573336  82.3106572  81.5460679
  39.5117916  82.6246875  82.4384961  39.1798539  82.9291472  80.9931578
  41.5169718  79.3009120  81.5941569  41.5031287  78.4050213  81.2573867
  42.2342147  79.3079784  82.2279855  43.3695849  79.7346460  83.6394696
  43.1113627  80.6563531  83.6379027  42.8380890  79.3376895  84.3295160
  48.3142038  92.8397247  76.4184782  48.4878915  92.2743670  75.6658634
  48.8070929  93.6398142  76.2364272  34.1318998  84.8511916  84.4848341
  33.5872466  85.6271724  84.6168615  35.0098348  85.1982721  84.3267462
  40.9206614  78.1823500  76.8629139  41.0422526  77.2540146  77.0620027
  40.6308657  78.1962186  75.9507454  43.7897805  75.8678411  79.9995859
  43.8119502  75.9317744  79.0447838  44.2065864  75.0282919  80.1936365
  54.1681429  85.6033670  78.0375081  54.6112575  84.8540995  77.6394205
  53.2907939  85.5943807  77.6548813  49.3017210  92.1564012  73.5181680
  49.9968115  92.7770704  73.7368995  49.6440361  91.3059363  73.7934058
  34.9185020  83.9781813  87.3778497  34.1766756  84.1264448  87.9643128
  34.5977764  84.2390078  86.5145247  51.2008634  89.6063717  75.0469011
  51.7259958  89.9450990  74.3218331  51.1130986  88.6710733  74.8632145
  42.8628682  93.5197791  87.1758887  43.1715809  93.2746938  88.0481587
  43.6604164  93.7244429  86.6877758  42.8849294  95.6735701  79.4064264
  42.4454285  95.1812079  80.0997121  43.6357411  95.1308668  79.1656339
  35.3641633  91.8647241  79.4088892  36.1899653  91.5651013  79.0287536
  35.0135685  91.0954864  79.8578681  40.3323166  91.2173710  81.4786566
  39.7103176  90.5544415  81.1788794  41.0028033  91.2434842  80.7960213
  33.5650238  89.7833568  80.3677826  32.7282147  89.3555742  80.1861827
  33.5373884  89.9766011  81.3048617  40.4047694  79.6955498  91.0719072
  40.4535849  80.5717620  90.6896841  40.9470208  79.1532891  90.4990715
  50.8902540  90.2396621  90.3520209  50.0998083  90.2220760  89.8124708
  50.6535894  90.7784915  91.1069245  51.0100415  87.0889087  87.6652937
  51.0598420  86.9239095  88.6068460  50.9014338  86.2216346  87.2750818
  39.8936673  89.7677633  74.9545026  40.0424794  90.4513097  74.3011699
  40.7003117  89.7482723  75.4694482  48.3004177  83.0720015  88.9812244
  49.2014040  82.9326480  88.6896242  48.3752152  83.2374470  89.9210421
  42.6346982  80.4486870  87.8265430  41.7650292  80.7420436  87.5548019
  42.8706463  81.0327315  88.5472694  52.5118611  89.5086029  87.9094959
  52.2203420  89.8716009  88.7458420  51.8990743  88.7953037  87.7308291
  53.7114294  87.0738909  80.4297529  54.5461185  87.5128713  80.5935089
  53.8473423  86.5977562  79.6105775  50.7605800  84.6318643  86.3775017
  51.2359921  84.8246290  85.5693868  49.8371365  84.6877829  86.1318400
  37.6489306  85.7942811  75.9606095  37.4035348  84.8905141  76.1586305
  37.8185221  85.7959961  75.0185573  45.3386016  76.6666487  85.3430851
  45.8567960  77.4027514  85.0177339  44.9841149  76.9730480  86.1777610
  36.9184954  81.5271168  73.4592257  36.2254199  81.6015523  72.8032293
  36.6736706  80.7631512  73.9813773  45.5898610  73.0866770  80.8631747
  45.8700364  72.4189959  81.4892174  46.3749217  73.2795865  80.3506411
  43.3932079  92.2625763  72.4256774  42.8206046  92.8815951  71.9727245
  43.9664873  92.8125125  72.9596696  49.4607469  81.5084404  84.6103322
  50.4124892  81.6082501  84.6315546  49.2910919  80.7162672  85.1201407
  47.4821848  78.5939987  84.7962723  46.8871780  78.8744999  84.1009212
  47.1971545  79.0833888  85.5679464  46.6129339  92.5462914  73.5565356
  47.5460012  92.4808475  73.7598231  46.5252551  93.3819180  73.0979889
  51.9395546  84.7290523  83.7245622  51.9071867  83.7906524  83.9105306
  52.5496170  84.8074560  82.9911447  43.7778877  83.5986576  69.7672826
  44.7237982  83.4692784  69.8361244  43.3993122  82.8601238  70.2442254
  52.0890035  81.5201567  83.7703905  51.5729084  80.7360023  83.5833834
  52.9729983  81.1920283  83.9350425  57.7572096  85.7906530  82.8651659
  58.4875485  85.5291818  83.4259362  57.1479042  85.0535252  82.9053727
  55.8387393  83.9314393  83.4626110  55.1120557  83.7970358  82.8542602
  55.4234680  84.2391221  84.2682828  43.6617570  87.6504322  91.2273483
  44.5820579  87.8282921  91.4213530  43.6267153  86.7060368  91.0753182
  41.9621794  81.5236553  69.7027711  41.0553250  81.2269665  69.7790425
  42.2397776  81.2266371  68.8361998  32.8799735  82.8442916  80.1526758
  32.5602519  81.9908224  79.8601132  32.3333163  83.0591494  80.9084725
  36.6579642  85.5605357  83.8696264  36.8765652  86.4922465  83.8884298
  37.0705416  85.2013331  84.6551068  41.5307508  81.1338563  93.2599013
  41.4304235  82.0832920  93.1911104  41.3129050  80.8056802  92.3875083
  32.7487995  86.4645827  82.1219879  32.0551466  86.0499780  81.6089834
  33.4960986  86.5066364  81.5253298  47.3356782  76.6557072  79.1896234
  47.8356560  76.7673606  78.3810553  47.9792390  76.3518125  79.8297042
  41.3938778  84.5635702  92.0764075  40.9105859  85.3636062  92.2827964
  41.4799717  84.5743646  91.1231519  34.6624737  86.3964081  79.9985894
  34.6395426  86.4951769  79.0467777  34.9725374  87.2429232  80.3203060
  37.3212115  88.4540236  84.1132509  38.2755369  88.4224179  84.0462440
  37.1224639  87.9930860  84.9282735  37.9111497  87.0241352  86.6803306
  38.7304386  87.5185431  86.7038144  38.1848305  86.1073320  86.6520874
  51.0192630  79.4398626  79.7585601  51.7953020  79.9295078  80.0310218
  50.2940764  79.8656680  80.2157471  53.4565188  80.1526245  80.8159542
  54.0509679  79.9121981  80.1052850  53.5291772  79.4333375  81.4433078
  35.6762344  93.9959856  81.1302706  35.5416812  93.2360257  80.5640705
  35.2594406  94.7200756  80.6631495  47.6419117  84.9306641  76.2581552
  47.5854319  85.3875192  75.4189184  48.1947460  84.1697325  76.0804395
  55.7636261  83.4592446  79.5902963  55.2035819  83.5285635  80.3634525
  55.1579764  83.2833430  78.8702459  38.8331470  94.8929173  81.3421149
  38.7163854  95.8374605  81.2399839  38.0123916  94.5902734  81.7306948
  48.7208004  89.6179309  72.1877742  49.5553608  89.1860507  72.0055217
  48.5592347  89.4461322  73.1154636  48.3753897  86.1211422  73.5534081
  48.3202700  85.9555693  72.6122525  47.7499952  86.8287455  73.7096271
  33.1646412  81.3579486  87.3795503  33.8105275  80.8478440  87.8682729
  32.9563563  82.0948168  87.9538929  45.6899804  88.4260334  92.8787644
  46.5590963  88.6000986  92.5174279  45.2106555  89.2454751  92.7563373
  39.8585984  95.5457435  84.5577078  40.7613231  95.5781045  84.8743573
  39.6323354  94.6157886  84.5723413  41.6139586  94.2988421  81.2187156
  40.6635217  94.2990283  81.1051528  41.9172072  93.5521156  80.7023191
  37.5043903  78.5047103  91.4770518  38.3675364  78.1483908  91.6873842
  36.9309313  78.1660998  92.1645922  57.3492280 100.1348960  82.2832919
  57.9870690 100.0155707  81.5796259  57.2313122 101.0829804  82.3420871
  54.1581986 100.0876388  82.2194443  53.8200497  99.9717452  81.3314978
  55.0271754  99.6867553  82.1995449  50.0168802 101.9411864  78.2091334
  49.4533667 101.8501801  77.4407622  49.9021197 101.1211769  78.6893827
  54.6401769 101.2411239  88.1780649  54.6290410 100.8464038  87.3061152
  54.8022408 100.5077312  88.7714420  47.5633233 103.4363056  81.0475555
  48.3554525 103.0953880  80.6321854  47.8029884 103.5458031  81.9677708
  55.5968360 105.6082832  73.5205799  54.9456340 106.1936912  73.1339813
  56.3912723 106.1389027  73.5800837  49.5223987 102.6971969  73.9192933
  50.2954863 102.1500956  73.7805809  49.8749386 103.5616218  74.1307395
  51.3609030 104.0248351  87.1259833  51.0698896 104.9293982  87.0106499
  51.9966014 104.0664879  87.8403902  52.2865237 101.4025200  83.7161192
  52.8828809 101.1781222  83.0018155  52.3440208 100.6609945  84.3186640
  51.8590265  98.8564635  71.5511383  52.1115786  98.3346156  70.7894846
  50.9214824  98.6930781  71.6538067  56.9033548  97.8600413  79.3586127
  57.6896637  97.4419837  79.0076544  57.1672252  98.7646506  79.5267775
  57.0743625 103.2973264  74.0574783  56.4389458 103.3707890  74.7695688
  56.7441032 103.8866863  73.3793863  62.3041975  97.7975647  80.2619105
  63.0367147  97.2274863  80.4956935  61.5481331  97.4097247  80.7025611
  51.5786554 100.7592741  73.7535758  51.4622812 100.0837644  74.4216843
  51.6888814 100.2725115  72.9367911  53.9218095 100.2202888  77.4582448
  53.5576302  99.6933509  78.1695369  54.7785211  99.8301357  77.2848933
  59.8267396  91.5097221  84.7213714  59.4950720  92.3792632  84.4974929
  59.2313009  91.1933505  85.4007744  53.5623582  95.2492788  72.4543796
  53.7297984  96.1173024  72.8214267  53.3720751  95.4120070  71.5305085
  56.3198915 103.7109767  84.1209626  56.0199638 104.6134806  84.0125434
  55.9749975 103.4441950  84.9730779  49.7711397 100.1623564  80.1546331
  48.8461893 100.0299778  80.3624023  50.0195810 100.9417783  80.6516273
  59.7196059  96.2292307  81.8007064  58.8112936  96.1607715  81.5065825
  59.6683655  96.7064252  82.6288889  53.5412803  97.7050445  73.4390463
  53.4212428  98.1507496  74.2775943  52.8465391  98.0535763  72.8804001
  47.1320208  99.8056837  80.9890120  47.2612589 100.0591316  81.9029532
  46.4517659 100.3984545  80.6694775  53.7936925  97.6481953  89.7441961
  53.0170259  98.2075873  89.7344826  54.4327488  98.1338736  90.2656831
  61.5857705  94.4308745  83.5784938  60.9432086  94.7241279  82.9324732
  61.0812634  94.3161666  84.3838134  59.2397869  98.1771919  74.2670797
  60.1515725  98.4099305  74.0918495  58.7307516  98.7608963  73.7045876
  52.0483297 100.4567406  89.3059928  52.7897981 100.9952450  89.0294752
  51.3420282 101.0833695  89.4631480  57.5238637 102.5996546  87.9032090
  57.9321993 102.1578957  87.1586722  56.8015898 102.0249174  88.1566282
  53.8769707  97.5369153  85.2765647  54.7230902  97.9608567  85.4200296
  53.8168344  96.8802777  85.9704210  57.8467451 103.1597737  81.6584378
  57.2176314 103.3243451  80.9560446  57.4593113 103.5739347  82.4295342
  61.7256683 104.0952175  79.0128742  61.0407721 104.4751076  78.4625776
  61.8100532 104.7047502  79.7460690  57.0269152  95.1973522  86.9346820
  56.7830084  95.9515582  86.3981096  57.3029082  95.5758869  87.7694067
  58.9807615 101.7412134  85.6124086  59.1924510 102.3843894  84.9358467
  58.9337363 100.9074450  85.1446016  56.5833844  94.3529955  82.5160658
  55.7218323  94.6511208  82.8077395  56.6096278  94.5700353  81.5841691
  53.3995413 102.8972145  78.9234464  53.8633759 103.1759848  78.1339086
  53.1352211 101.9955590  78.7407554  50.2919494 102.4443627  81.8614227
  50.8620851 102.8730895  81.2231711  50.8827606 102.1626211  82.5598412
  52.3364299  99.0195297  75.7324029  53.0388343  99.4716341  76.1997955
  52.0044928  98.3779116  76.3603922  50.7844661  97.6107054  90.1075238
  50.1543321  98.2923335  90.3410635  50.6780749  97.4990136  89.1628376
  46.0789633  97.2778850  81.0341162  45.2888687  97.5336379  80.5581273
  46.5700881  98.0927188  81.1393203  60.0953443 104.6184089  83.7846443
  60.9170886 104.2164277  83.5029125  60.0915846 104.5152323  84.7362559
  48.0304379  97.6423429  77.9924639  47.2335542  97.7542124  78.5108135
  47.8029971  97.9810082  77.1265529  53.8610046 104.1668133  85.9407154
  53.9254479 104.6288540  86.7765325  53.1520970 103.5365498  86.0689463
  44.3627336  97.5309341  83.4656153  44.6135375  98.4156350  83.7313729
  44.8986885  97.3513942  82.6931245  68.1859436 100.9622838  80.1331415
  67.4323144 100.3930236  79.9775419  68.3206977 100.9285502  81.0802049
  53.5758064 105.8336240  75.8086134  53.4403739 106.6787776  76.2370982
  54.1167876 106.0355518  75.0452068  50.0625403  91.9127820  92.4700489
  49.6692349  91.3594018  93.1448133  50.8791544  92.2238398  92.8607007
  47.0287461 103.3511678  76.3814059  47.5411982 104.1454928  76.5319624
  47.6810174 102.6537969  76.3147660  48.8382346 106.4677434  78.4636812
  49.0148974 107.3895399  78.2757796  49.6339179 106.1535854  78.8931192
  52.9793364  93.3285699  90.0620746  53.7203078  93.9292852  89.9825208
  53.2111287  92.5863337  89.5038788  48.1234702  98.5142066  88.3398975
  48.0088218  97.6127324  88.6406074  47.2679220  98.7605763  87.9883792
  55.2026540 106.4559807  89.9386476  54.7590394 105.6696185  89.6207380
  55.8643754 106.6438957  89.2730367  49.9613661 107.9855608  84.4647154
  50.5121086 107.8572672  83.6924148  49.1225137 108.2850497  84.1142047
  57.3007778 106.7362607  87.9667877  57.2826254 107.5571488  87.4748146
  58.2227698 106.6116682  88.1918018  53.7580832 104.2506736  88.8091386
  54.2909169 103.4895024  88.5790694  53.2294913 103.9580388  89.5515540
  56.9250527  89.3566802  84.3385027  56.5814797  90.2468444  84.2624138
  57.2929490  89.1668460  83.4754612  44.9936378 101.6800332  77.1573630
  45.8311600 102.0897341  76.9407337  45.1714646 100.7399775  77.1273823
  56.8900810  99.3475413  72.8457462  56.3747434 100.1180018  73.0845850
  56.6178119  98.6740549  73.4690524  54.4747921  94.1925114  77.9042701
  53.6189517  93.8031964  77.7248340  54.8874873  94.2717075  77.0442486
  56.0047068  91.7271457  82.3034261  55.5011863  91.6901592  81.4902066
  56.2977675  92.6364200  82.3630917  52.2489954  91.8110187  81.3100442
  53.1142950  91.6152996  80.9506332  52.3167463  91.5820539  82.2369799
  61.8635084 102.1007768  74.7810636  61.0864527 101.7618927  74.3365798
  62.5426565 102.1060391  74.1065601  56.6787113  97.2202505  74.6717244
  56.3737249  97.5348654  75.5227387  57.6317555  97.2983925  74.7144577
  55.1233545 103.3792728  76.3210198  54.5954907 102.6445488  76.0083435
  54.6221048 104.1567405  76.0750166  60.1026391 101.5741749  81.4377244
  59.4450066 102.2641010  81.5257373  60.9066790 101.9638181  81.7811230
  49.8552273  94.0412395  78.6816809  50.4296025  93.8187576  77.9490002
  50.4423255  94.1101089  79.4345410  58.9131850  99.9286122  79.4881186
  59.4263732 100.5616113  79.9902895  59.5633074  99.3287317  79.1224546
  50.1821860  96.0716856  72.7012694  49.3459172  96.4091542  73.0221969
  50.0426629  95.9365836  71.7639831  52.1574940  90.9153644  77.4091879
  51.5039353  90.6002661  76.7848493  52.1155415  90.2929384  78.1351702
  53.2686145 101.1972939  69.3245171  52.3613207 100.9662192  69.5236320
  53.7657177 100.4010558  69.5119152  56.1754224 109.9070446  72.2441857
  55.5015923 110.2102143  72.8526815  56.5620046 110.7099526  71.8947314
  55.3912681  97.4035577  81.7339526  54.4735242  97.6250524  81.5761214
  55.8072824  97.4781888  80.8751234  56.1747729  98.8026993  76.8642206
  56.9219547  99.3148390  76.5549329  56.4439318  98.4811046  77.7246600
  54.4474379 101.2985534  73.8469161  53.5385598 101.0144566  73.9441631
  54.4769463 101.7184612  72.9872468  59.6793646 104.9092123  77.6160328
  59.2255973 104.0683033  77.6725519  59.0487613 105.5453521  77.9535108
  58.6226566  95.8384109  78.8460996  57.8849322  95.3261495  79.1771238
  58.8753339  95.3984491  78.0344273  58.1226585 106.7468620  78.5510146
  58.4149560 107.3073677  77.8322512  58.6325206 107.0397181  79.3063306
  58.7238193  88.6160361  79.4402765  59.0297070  87.7557725  79.1528680
  59.4490798  89.2077981  79.2401759  45.0162549  99.0191048  77.8284363
  44.8186949  98.4260408  77.1035430  44.4609213  98.7143258  78.5460302
  52.9959273  98.9114154  79.9478956  53.0507883  97.9587991  79.8721433
  52.1850475  99.0673593  80.4320255  54.1450467 102.8394277  71.1857239
  53.7069896 102.1230136  70.7262877  54.8860907 103.0670392  70.6242331
  50.9351633  97.5291214  77.7069335  50.1219498  97.8285385  78.1134527
  51.4310627  97.1346903  78.4243817  53.0860211 107.5248971  79.6403600
  53.0436389 107.7509817  78.7112132  54.0022909 107.2912345  79.7889401
  56.5325844  97.9933038  86.5384229  56.8875232  98.2204512  87.3978695
  57.1797976  98.3251415  85.9161484  62.2623581 101.1151474  77.2433558
  62.1241480 101.3053070  76.3154747  61.9059800 101.8770857  77.7001609
  50.4265707  95.1009569  83.3230570  51.0665087  94.9598329  82.6253533
  49.5943238  94.8144083  82.9469172  62.2892961 103.1828001  82.2544829
  62.7229468 103.0903290  83.1027883  63.0024542 103.1585502  81.6164845
  51.2026011 104.4012000  79.4365562  51.9966610 103.9062320  79.2348137
  50.4917704 103.8729863  79.0733268  56.0220856 106.7830095  83.7877930
  56.0757878 107.3521032  84.5555646  55.1535637 106.9531980  83.4231967
  47.5108775  98.5455082  75.5125315  46.5806363  98.4839537  75.7295277
  47.6066247  98.0231034  74.7161956  47.4294324  95.0709894  78.1003557
  47.6901141  95.9855228  77.9912717  48.2511496  94.6034337  78.2500170
  48.9019249  96.4847652  85.2702381  49.5742303  96.2765014  84.6215030
  48.0749036  96.2869738  84.8307614  63.1508510 103.2251702  84.7877715
  63.3444401 104.1297512  85.0336990  63.0509129 102.7659121  85.6216300
  54.8044821  93.1109593  87.2868042  54.1572736  93.8099542  87.1932519
  55.5745837  93.5445736  87.6544290  54.9808956 100.9490357  85.3464862
  55.9101016 101.1001517  85.1733829  54.5599986 101.0374378  84.4913508
  53.7797287 104.9741022  83.1163399  53.6408373 104.6059806  83.9889338
  52.9911884 105.4888661  82.9447357  54.3745439 110.0750118  74.4588936
  54.5497195 109.6038162  75.2734559  53.6878227 110.7015885  74.6870197
  55.3302502 104.3522625  80.5052237  54.9952335 104.3123395  81.4009887
  54.8306448 103.6867341  80.0322647  49.3046746  99.7590255  86.0304818
  49.1666544  99.0270493  86.6316357  50.2151670  99.6699155  85.7489006
  58.2661694 101.6978659  70.7789297  57.6490865 100.9725487  70.6822350
  57.7978183 102.4588019  70.4356371  51.9329047  99.4710214  85.5188498
  52.6428666  98.8303406  85.4775116  51.8898355  99.7223109  86.4414679
  50.6457981  96.4575432  87.3384138  50.1095338  96.0066170  87.9905734
  50.0574690  96.5921341  86.5954602  50.0560240  95.9164083  69.9010601
  49.1789706  95.7952884  69.5372848  50.5317993  95.1250162  69.6489490
  59.9233233 104.3717151  86.6709057  59.0360012 104.0343073  86.7935456
  60.4931784 103.6400182  86.9077822  41.5762380 100.7041243  79.9952108
  42.2633420 100.3902973  79.4073124  41.4210509 101.6082608  79.7219360
  46.3797102  95.5931440  84.4237132  46.2955291  94.9857109  83.6887542
  45.5579809  96.0840458  84.4246628  53.4534386 109.0318604  83.6370300
  53.3804558 109.8373575  84.1489605  53.0111780 109.2310569  82.8118322
  53.2424166 108.2690374  77.1473122  52.4591688 108.8112054  77.2411346
  53.9416911 108.7864353  77.5467363  56.5520816  94.0785003  79.7907327
  57.0489516  93.3254965  79.4708397  55.7807798  94.1149320  79.2250536
  64.4050574  99.7825369  81.4325619  64.3940450 100.6650084  81.0619552
  63.5367953  99.4296919  81.2380156  55.9133070 108.9305438  85.7928459
  56.6261042 109.5652902  85.7204360  55.4223099 109.0269304  84.9768461
  57.6350597 102.8356690  77.3645750  56.7006876 102.9558153  77.1950455
  57.8127265 101.9329157  77.1005760  53.1355785  96.2202386  79.5179012
  52.7653572  95.6673426  80.2059917  53.6314877  95.6160520  78.9654012
  61.0223148  98.6774010  77.8995785  61.4883600  99.5102001  77.8256087
  61.4730649  98.2118991  78.6041043  50.9644984 106.6799881  86.6134030
  51.6654443 107.3136364  86.7663424  50.4940099 107.0214613  85.8529669
  59.0899379 105.0217831  74.8981937  59.3659223 104.9074425  75.8075811
  58.2203878 104.6235316  74.8594110  58.9939811  91.0454597  81.9386686
  58.0802891  91.2758823  82.1068893  59.4232912  91.1293041  82.7900718
  58.7646269  99.2344489  84.4386580  58.1117720  99.4820396  83.7839033
  59.1426649  98.4208627  84.1049057  55.7253443 109.2704182  78.5414750
  55.9075838 108.4525838  79.0042503  56.5486429 109.4871874  78.1039640
  56.0595609 108.1972367  75.8029799  56.5883375 107.6864821  75.1899961
  56.3223828 107.8814897  76.6675332  54.8133842  99.9764300  90.9252617
  54.1374480  99.8758429  91.5954992  55.6361476  99.8203513  91.3888614
  46.5612702 106.2136236  83.5465132  47.1466138 105.4679924  83.6793037
  46.3637540 106.5240193  84.4301796  41.1530356  98.7841836  82.2669575
  41.1914456  98.2505427  83.0606694  40.6470649  98.2577042  81.6480553
  48.5321119  93.6306377  85.7632118  48.5962445  94.4921208  85.3509515
  48.4688239  93.0180378  85.0304476  48.0073391  95.7029509  89.4105152
  48.6345430  95.3206587  90.0242676  47.1501310  95.4843711  89.7760845
  44.7838934  97.5105938  75.3423507  45.0792375  96.6016617  75.2890561
  43.8826970  97.4893678  75.0204509  56.6925013 109.2313203  82.1473915
  56.5676152 108.4302942  81.6384861  57.3504104 109.7259396  81.6587885
  48.3133181  95.5861935  81.3251055  47.5919767  96.1997903  81.1858529
  49.1026437  96.1219700  81.2467701  58.7559921 107.0322223  83.7753465
  57.8090257 106.9127574  83.7031792  59.1042694 106.1444721  83.8579727
  51.1159494  92.9216362  87.5991707  51.6393896  93.1678658  88.3618017
  50.8971828  93.7536396  87.1794845  46.5126775  95.1920036  75.4662832
  46.1839482  94.3117415  75.2837938  46.8666146  95.1367705  76.3539221
  55.7606354 106.8274939  79.9757818  55.6131317 105.8991646  80.1565388
  56.5859848 106.8495030  79.4914893  49.6268599  95.4793006  75.8338310
  49.9664671  96.0078927  75.1116918  50.0740719  95.8173412  76.6096876
  59.3640476 107.6503498  81.0622690  60.2887024 107.4446359  80.9247141
  59.1955780 107.4019899  81.9712032  52.3212039  93.8630057  85.2841378
  51.9808860  93.0637870  85.6862058  51.6151046  94.1631767  84.7118211
  52.9728511  90.9479369  83.7368701  53.7954581  90.4739847  83.6147591
  53.2166575  91.7269853  84.2367387  51.6136746  93.9767628  74.0331602
  52.3345108  94.3548880  73.5295319  50.9902050  94.6956504  74.1366580
  55.7567869  94.6812776  74.9689935  55.9731483  95.5637414  74.6678763
  55.2761936  94.2898990  74.2395577  50.4967090  97.6398490  81.5460679
  50.3511671  97.9538793  82.4384961  50.0192294  98.2583390  80.9931578
  52.3563473  94.6301038  81.5941569  52.3425042  93.7342131  81.2573867
  53.0735901  94.6371701  82.2279855  54.2089604  95.0638378  83.6394696
  53.9507381  95.9855449  83.6379027  53.6774644  94.6668812  84.3295160
  59.1535792 108.1689165  76.4184782  59.3272670 107.6035588  75.6658634
  59.6464684 108.9690060  76.2364272  44.9712752 100.1803834  84.4848341
  44.4266220 100.9563642  84.6168615  45.8492102 100.5274639  84.3267462
  51.7600369  93.5115418  76.8629139  51.8816280  92.5832064  77.0620027
  51.4702411  93.5254104  75.9507454  54.6291559  91.1970328  79.9995859
  54.6513256  91.2609662  79.0447838  55.0459618  90.3574837  80.1936365
  65.0075184 100.9325588  78.0375081  65.4506330 100.1832913  77.6394205
  64.1301694 100.9235724  77.6548813  60.1410965 107.4855929  73.5181680
  60.8361870 108.1062622  73.7368995  60.4834115 106.6351281  73.7934058
  45.7578774  99.3073730  87.3778497  45.0160510  99.4556366  87.9643128
  45.4371518  99.5681996  86.5145247  62.0402388 104.9355635  75.0469011
  62.5653712 105.2742908  74.3218331  61.9524741 104.0002650  74.8632145
  53.7022437 108.8489709  87.1758887  54.0109563 108.6038855  88.0481587
  54.4997919 109.0536347  86.6877758  53.7243049 111.0027618  79.4064264
  53.2848039 110.5103997  80.0997121  54.4751166 110.4600586  79.1656339
  46.2035388 107.1939159  79.4088892  47.0293408 106.8942931  79.0287536
  45.8529440 106.4246782  79.8578681  51.1716921 106.5465627  81.4786566
  50.5496930 105.8836332  81.1788794  51.8421788 106.5726759  80.7960213
  44.4043993 105.1125486  80.3677826  43.5675901 104.6847660  80.1861827
  44.3767638 105.3057929  81.3048617  51.2441448  95.0247415  91.0719072
  51.2929604  95.9009538  90.6896841  51.7863963  94.4824808  90.4990715
  61.8494169 102.4181005  87.6652937  61.8992174 102.2531012  88.6068460
  61.7408092 101.5508264  87.2750818  50.7330428 105.0969551  74.9545026
  50.8818548 105.7805015  74.3011699  51.5396871 105.0774641  75.4694482
  59.1397932  98.4011933  88.9812244  60.0407794  98.2618398  88.6896242
  59.2145906  98.5666388  89.9210421  53.4740737  95.7778788  87.8265430
  52.6044046  96.0712354  87.5548019  53.7100217  96.3619233  88.5472694
  64.5508048 102.4030826  80.4297529  65.3854940 102.8420630  80.5935089
  64.6867177 101.9269479  79.6105775  61.5999554  99.9610561  86.3775017
  62.0753676 100.1538207  85.5693868  60.6765120 100.0169747  86.1318400
  48.4883061 101.1234728  75.9606095  48.2429103 100.2197058  76.1586305
  48.6578975 101.1251879  75.0185573  56.1779771  91.9958405  85.3430851
  56.6961715  92.7319432  85.0177339  55.8234903  92.3022398  86.1777610
  47.7578708  96.8563086  73.4592257  47.0647953  96.9307441  72.8032293
  47.5130460  96.0923430  73.9813773  56.4292365  88.4158687  80.8631747
  56.7094119  87.7481876  81.4892174  57.2142972  88.6087783  80.3506411
  54.2325833 107.5917681  72.4256774  53.6599800 108.2107868  71.9727245
  54.8058627 108.1417043  72.9596696  60.3001223  96.8376321  84.6103322
  61.2518646  96.9374419  84.6315546  60.1304674  96.0454590  85.1201407
  58.3215603  93.9231904  84.7962723  57.7265535  94.2036917  84.1009212
  58.0365299  94.4125805  85.5679464  57.4523093 107.8754831  73.5565356
  58.3853766 107.8100393  73.7598231  57.3646306 108.7111098  73.0979889
  60.0811110 107.1920702  70.5169303  60.0024741 106.8580565  71.4105061
  60.9020777 107.6842469  70.5160776  62.7789301 100.0582441  83.7245622
  62.7465621  99.1198442  83.9105306  63.3889925 100.1366478  82.9911447
  54.6172632  98.9278494  69.7672826  55.5631737  98.7984702  69.8361244
  54.2386877  98.1893156  70.2442254  62.9283789  96.8493484  83.7703905
  62.4122838  96.0651941  83.5833834  63.8123738  96.5212201  83.9350425
  60.5894516  90.5934500  79.7299718  60.3919338  90.2849588  80.6143050
  61.1994222  91.3196139  79.8597648  68.5965851 101.1198448  82.8651659
  69.3269239 100.8583736  83.4259362  67.9872796 100.3827170  82.9053727
  66.6781148  99.2606310  83.4626110  65.9514312  99.1262275  82.8542602
  66.2628435  99.5683139  84.2682828  54.5011324 102.9796240  91.2273483
  55.4214334 103.1574839  91.4213530  54.4660907 102.0352285  91.0753182
  52.8015549  96.8528470  69.7027711  51.8947004  96.5561583  69.7790425
  53.0791530  96.5558288  68.8361998  43.7193489  98.1734834  80.1526758
  43.3996274  97.3200142  79.8601132  43.1726918  98.3883412  80.9084725
  47.4973397 100.8897275  83.8696264  47.7159407 101.8214382  83.8884298
  47.9099171 100.5305249  84.6551068  54.4177615  91.3965360  75.8571953
  53.6078343  91.0512445  76.2327199  55.1062032  91.0872904  76.4459564
  56.3468163  90.4743407  77.4796249  56.8999202  90.8938860  78.1386272
  56.5838249  89.5479155  77.5219205  52.3701262  96.4630480  93.2599013
  52.2697989  97.4124837  93.1911104  52.1522804  96.1348719  92.3875083
  51.5714334  93.7115405  69.8439691  52.4333498  94.0370304  70.1035508
  51.7564678  92.9246901  69.3312756  43.5881749 101.7937745  82.1219879
  42.8945221 101.3791698  81.6089834  44.3354740 101.8358282  81.5253298
  59.7246970  92.5843932  76.9874914  59.1445639  93.2428736  76.6052966
  59.4582903  91.7621277  76.5762331  58.1750536  91.9848990  79.1896234
  58.6750315  92.0965524  78.3810553  58.8186144  91.6810042  79.8297042
  52.2332532  99.8927619  92.0764075  51.7499614 100.6927979  92.2827964
  52.3193471  99.9035564  91.1231519  45.5018492 101.7255999  79.9985894
  45.4789180 101.8243686  79.0467777  45.8119128 102.5721150  80.3203060
  48.1605870 103.7832154  84.1132509  49.1149123 103.7516096  84.0462440
  47.9618393 103.3222778  84.9282735  48.7505252 102.3533270  86.6803306
  49.5698141 102.8477349  86.7038144  49.0242060 101.4365238  86.6520874
  58.5071848  94.7444022  76.0431262  57.6197703  95.0293673  75.8251457
  58.9225837  94.5837786  75.1958539  61.8586384  94.7690543  79.7585601
  62.6346774  95.2586996  80.0310218  61.1334518  95.1948597  80.2157471
  64.2958943  95.4818163  80.8159542  64.8903434  95.2413898  80.1052850
  64.3685527  94.7625293  81.4433078  57.6515062 104.5088697  70.1379282
  58.3550912 104.7138699  70.7536937  56.9277710 105.0765459  70.4028365
  58.4812872 100.2598558  76.2581552  58.4248073 100.7167110  75.4189184
  59.0341214  99.4989243  76.0804395  62.2917678  96.0488290  77.0831671
  62.0354612  95.6484926  77.9139879  61.6670546  96.7632084  76.9581811
  66.6030016  98.7884363  79.5902963  66.0429574  98.8577553  80.3634525
  65.9973519  98.6125348  78.8702459  59.5601759 104.9471226  72.1877742
  60.3947363 104.5152425  72.0055217  59.3986102 104.7753240  73.1154636
  59.2147651 101.4503339  73.5534081  59.1596455 101.2847611  72.6122525
  58.5893706 102.1579372  73.7096271  44.0040166  96.6871404  87.3795503
  44.6499030  96.1770358  87.8682729  43.7957317  97.4240086  87.9538929
  52.5243777  90.9511449  73.1319400  52.5122446  91.8953288  73.2887670
  53.4167198  90.7681594  72.8378861  52.4533341 109.6280339  81.2187156
  51.5028972 109.6282201  81.1051528  52.7565827 108.8813073  80.7023191
  56.3395896  87.5454225  77.3865336  55.5728292  86.9912712  77.5322019
  56.7506601  87.6176094  78.2479488  48.3437657  93.8339021  91.4770518
  49.2069119  93.4775826  91.6873842  47.7703068  93.4952916  92.1645922
  62.6984020 114.1856553  71.5511383  62.9509540 113.6638074  70.7894846
  61.7608579 114.0222698  71.6538067  67.7427303 113.1892331  79.3586127
  68.5290392 112.7711754  79.0076544  68.0066007 114.0938423  79.5267775
  64.4017336 110.5784706  72.4543796  64.5691739 111.4464942  72.8214267
  64.2114505 110.7411987  71.5305085  64.3806557 113.0342363  73.4390463
  64.2606182 113.4799414  74.2775943  63.6859146 113.3827681  72.8804001
  70.0791623 113.5063836  74.2670797  70.9909480 113.7391223  74.0918495
  69.5701270 114.0900880  73.7045876  67.4227598 109.6821872  82.5160658
  66.5612077 109.9803126  82.8077395  67.4490033 109.8992271  81.5841691
  63.1758054 114.3487215  75.7324029  63.8782097 114.8008259  76.1997955
  62.8438682 113.7071034  76.3603922  67.7644282 104.6858720  84.3385027
  67.4208551 105.5760361  84.2624138  68.1323244 104.4960377  83.4754612
  67.7294565 114.6767331  72.8457462  67.2141188 115.4471935  73.0845850
  67.4571873 114.0032467  73.4690524  65.3141676 109.5217032  77.9042701
  64.4583272 109.1323882  77.7248340  65.7268627 109.6008992  77.0442486
  66.8440822 107.0563375  82.3034261  66.3405618 107.0193510  81.4902066
  67.1371429 107.9656118  82.3630917  63.0883708 107.1402105  81.3100442
  63.9536705 106.9444913  80.9506332  63.1561217 106.9112456  82.2369799
  67.5180868 112.5494423  74.6717244  67.2131003 112.8640572  75.5227387
  68.4711310 112.6275843  74.7144577  60.6946027 109.3704312  78.6816809
  61.2689779 109.1479494  77.9490002  61.2817010 109.4393007  79.4345410
  61.0215614 111.4008773  72.7012694  60.1852927 111.7383460  73.0221969
  60.8820384 111.2657753  71.7639831  62.9968695 106.2445561  77.4091879
  62.3433107 105.9294579  76.7848493  62.9549169 105.6221302  78.1351702
  66.2306435 112.7327495  81.7339526  65.3128997 112.9542442  81.5761214
  66.6466579 112.8073805  80.8751234  67.0141483 114.1318911  76.8642206
  67.7613302 114.6440308  76.5549329  67.2833073 113.8102963  77.7246600
  69.4620320 111.1676027  78.8460996  68.7243077 110.6553413  79.1771238
  69.7147094 110.7276408  78.0344273  69.5631947 103.9452279  79.4402765
  69.8690824 103.0849642  79.1528680  70.2884552 104.5369899  79.2401759
  63.8353027 114.2406072  79.9478956  63.8901637 113.2879908  79.8721433
  63.0244229 114.3965511  80.4320255  61.7745387 112.8583132  77.7069335
  60.9613253 113.1577302  78.1134527  62.2704381 112.4638820  78.4243817
  61.2659462 110.4301487  83.3230570  61.9058841 110.2890246  82.6253533
  60.4336992 110.1436001  82.9469172  58.2688078 110.4001812  78.1003557
  58.5294896 111.3147145  77.9912717  59.0905251 109.9326255  78.2500170
  60.8953995 111.2456001  69.9010601  60.0183461 111.1244802  69.5372848
  61.3711748 110.4542079  69.6489490  57.2190857 110.9223357  84.4237132
  57.1349046 110.3149027  83.6887542  56.3973563 111.4132376  84.4246628
  67.3914571 109.4076921  79.7907327  67.8883270 108.6546883  79.4708397
  66.6201552 109.4441237  79.2250536  63.9749539 111.5494304  79.5179012
  63.6047327 110.9965344  80.2059917  64.4708632 110.9452437  78.9654012
  71.8616903 114.0065927  77.8995785  72.3277355 114.8393919  77.8256087
  72.3124403 113.5410909  78.6041043  69.8333565 106.3746514  81.9386686
  68.9196645 106.6050741  82.1068893  70.2626667 106.4584958  82.7900718
  59.3714873 108.9598294  85.7632118  59.4356200 109.8213125  85.3509515
  59.3081993 108.3472296  85.0304476  59.1526935 110.9153853  81.3251055
  58.4313521 111.5289820  81.1858529  59.9420191 111.4511618  81.2467701
  57.3520530 110.5211954  75.4662832  57.0233236 109.6409333  75.2837938
  57.7059901 110.4659622  76.3539221  60.4662353 110.8084924  75.8338310
  60.8058426 111.3370845  75.1116918  60.9134474 111.1465330  76.6096876
  63.8122266 106.2771287  83.7368701  64.6348335 105.8031765  83.6147591
  64.0560329 107.0561771  84.2367387  62.4530500 109.3059545  74.0331602
  63.1738863 109.6840798  73.5295319  61.8295804 110.0248422  74.1366580
  66.5961623 110.0104694  74.9689935  66.8125238 110.8929332  74.6678763
  66.1155690 109.6190908  74.2395577  61.3360845 112.9690407  81.5460679
  61.1905425 113.2830710  82.4384961  60.8586048 113.5875308  80.9931578
  63.1957227 109.9592955  81.5941569  63.1818796 109.0634049  81.2573867
  63.9129656 109.9663619  82.2279855  62.5994123 108.8407336  76.8629139
  62.7210035 107.9123982  77.0620027  62.3096166 108.8546022  75.9507454
  65.4685314 106.5262246  79.9995859  65.4907011 106.5901579  79.0447838
  65.8853373 105.6866755  80.1936365  58.5972463 112.1855004  73.4592257
  57.9041708 112.2599359  72.8032293  58.3524215 111.4215347  73.9813773
  67.2686119 103.7450605  80.8631747  67.5487873 103.0773794  81.4892174
  68.0536726 103.9379701  80.3506411  65.4566386 114.2570412  69.7672826
  66.4025491 114.1276620  69.8361244  65.0780631 113.5185073  70.2442254
  71.4288271 105.9226418  79.7299718  71.2313092 105.6141506  80.6143050
  72.0387976 106.6488056  79.8597648  63.6409303 112.1820388  69.7027711
  62.7340759 111.8853501  69.7790425  63.9185284 111.8850206  68.8361998
  65.2571369 106.7257278  75.8571953  64.4472098 106.3804363  76.2327199
  65.9455786 106.4164821  76.4459564  67.1861917 105.8035324  77.4796249
  67.7392956 106.2230778  78.1386272  67.4232004 104.8771073  77.5219205
  62.4108088 109.0407323  69.8439691  63.2727252 109.3662221  70.1035508
  62.5958432 108.2538819  69.3312756  70.5640725 107.9135850  76.9874914
  69.9839394 108.5720654  76.6052966  70.2976657 107.0913194  76.5762331
  69.0144291 107.3140907  79.1896234  69.5144069 107.4257442  78.3810553
  69.6579899 107.0101960  79.8297042  69.3465603 110.0735940  76.0431262
  68.4591458 110.3585591  75.8251457  69.7619592 109.9129703  75.1958539
  72.6980139 110.0982461  79.7585601  73.4740529 110.5878913  80.0310218
  71.9728273 110.5240515  80.2157471  69.3206626 115.5890476  76.2581552
  69.2641828 116.0459027  75.4189184  69.8734969 114.8281161  76.0804395
  73.1311432 111.3780208  77.0831671  72.8748366 110.9776843  77.9139879
  72.5064300 112.0924002  76.9581811  63.3637531 106.2803366  73.1319400
  63.3516201 107.2245206  73.2887670  64.2560953 106.0973512  72.8378861
  67.1789651 102.8746143  77.3865336  66.4122046 102.3204630  77.5322019
  67.5900356 102.9468012  78.2479488  13.9917263  15.8243412  69.0078225
  14.6295673  15.7050159  68.3041565  13.8738106  16.7724255  69.0666177
  10.8006969  15.7770840  68.9439750  10.4625481  15.6611904  68.0560285
  11.6696737  15.3762005  68.9240756   6.6593785  17.6306316  64.9336641
   6.0958650  17.5396253  64.1652929   6.5446180  16.8106220  65.4139133
  11.2826752  16.9305691  74.9025955  11.2715393  16.5358490  74.0306459
  11.4447392  16.1971764  75.4959727   4.2058217  19.1257508  67.7720861
   4.9979509  18.7848332  67.3567161   4.4454867  19.2352483  68.6923015
  12.2393344  21.2977284  60.2451106  11.5881323  21.8831364  59.8585120
  13.0337706  21.8283479  60.3046143   6.1648971  18.3866421  60.6438240
   6.9379847  17.8395408  60.5051116   6.5174370  19.2510670  60.8552702
   8.0034013  19.7142803  73.8505139   7.7123879  20.6188434  73.7351806
   8.6390998  19.7559331  74.5649209   8.9290220  17.0919652  70.4406499
   9.5253792  16.8675674  69.7263462   8.9865192  16.3504397  71.0431947
   8.5015249  14.5459087  58.2756690   8.7540769  14.0240608  57.5140153
   7.5639808  14.3825232  58.3783374  13.5458531  13.5494865  66.0831433
  14.3321621  13.1314289  65.7321850  13.8097236  14.4540958  66.2513082
  13.7168609  18.9867716  60.7820090  13.0814442  19.0602342  61.4940995
  13.3866015  19.5761315  60.1039169  18.9466959  13.4870099  66.9864412
  19.6792130  12.9169315  67.2202241  18.1906314  13.0991699  67.4270917
   8.2211537  16.4487193  60.4781065   8.1047795  15.7732096  61.1462149
   8.3313797  15.9619567  59.6613218  10.5643078  15.9097340  64.1827754
  10.2001285  15.3827961  64.8940676  11.4210194  15.5195809  64.0094240
  16.4692379   7.1991673  71.4459020  16.1375704   8.0687084  71.2220235
  15.8737992   6.8827957  72.1253051  10.2048565  10.9387240  59.1789103
  10.3722968  11.8067476  59.5459574  10.0145734  11.1014521  58.2550392
  12.9623898  19.4004219  70.8454933  12.6624621  20.3029257  70.7370740
  12.6174958  19.1336402  71.6976086   6.4136380  15.8518016  66.8791638
   5.4886876  15.7194230  67.0869329   6.6620793  16.6312235  67.3761580
  16.3621042  11.9186759  68.5252370  15.4537920  11.8502167  68.2311131
  16.3108638  12.3958704  69.3534196  10.1837786  13.3944897  60.1635770
  10.0637411  13.8401948  61.0021250   9.4890374  13.7430215  59.6049308
   3.7745191  15.4951289  67.7135427   3.9037572  15.7485768  68.6274838
   3.0942642  16.0878997  67.3940082   7.9444678  26.1648539  63.8125901
   7.8668708  27.1156364  63.8914381   7.3406322  25.8194412  64.4700827
  10.4361908  13.3376404  76.4687268   9.6595242  13.8970325  76.4590132
  11.0752471  13.8233187  76.9902138  18.2282689  10.1203197  70.3030244
  17.5857069  10.4135730  69.6570039  17.7237617  10.0056118  71.1083441
  15.8822852  13.8666370  60.9916104  16.7940708  14.0993757  60.8163801
  15.3732499  14.4503415  60.4291182   8.6908280  16.1461858  76.0305235
   9.4322965  16.6846902  75.7540058   7.9845266  16.7728147  76.1876786
  14.1663620  18.2890998  74.6277396  14.5746976  17.8473409  73.8832029
  13.4440881  17.7143626  74.8811589  10.5194690  13.2263605  72.0010953
  11.3655885  13.6503019  72.1445602  10.4593328  12.5697229  72.6949516
  14.4892435  18.8492189  68.3829685  13.8601297  19.0137903  67.6805753
  14.1018097  19.2633798  69.1540649  18.3681666  19.7846627  65.7374049
  17.6832705  20.1645528  65.1871082  18.4525516  20.3941953  66.4705997
  13.6694135  10.8867973  73.6592127  13.4255067  11.6410034  73.1226402
  13.9454066  11.2653321  74.4939374  15.6232598  17.4306586  72.3369392
  15.8349493  18.0738346  71.6603773  15.5762346  16.5968902  71.8691322
  13.2258827  10.0424406  69.2405964  12.3643306  10.3405660  69.5322702
  13.2521262  10.2594805  68.3086997  10.0420396  18.5866597  65.6479770
  10.5058742  18.8654300  64.8584393   9.7777195  17.6850042  65.4652861
   6.9344477  18.1338079  68.5859533   7.5045835  18.5625347  67.9477018
   7.5252589  17.8520663  69.2843719   8.9789282  14.7089749  62.4569335
   9.6813326  15.1610793  62.9243262   8.6469911  14.0673568  63.0849228
   7.4269644  13.3001506  76.8320545   6.7968305  13.9817787  77.0655942
   7.3205732  13.1884588  75.8873683  16.7378426  20.3078541  70.5091750
  17.5595870  19.9058728  70.2274431  16.7340829  20.2046775  71.4607865
  10.5035029  19.8562584  72.6652460  10.5679462  20.3182992  73.5010632
   9.7945953  19.2259949  72.7934770  24.8284419  16.6517290  66.8576721
  24.0748127  16.0824688  66.7020726  24.9631960  16.6179954  67.8047356
  10.2183047  21.5230692  62.5331441  10.0828722  22.3682228  62.9616288
  10.7592860  21.7249970  61.7697374   3.6712444  19.0406130  63.1059366
   4.1836965  19.8349380  63.2564930   4.3235157  18.3432420  63.0392967
   5.4807329  22.1571886  65.1882119   5.6573958  23.0789851  65.0003103
   6.2764163  21.8430305  65.6176499   4.7659686  14.2036518  75.0644282
   4.6513201  13.3021775  75.3651381   3.9104203  14.4500215  74.7129099
  11.8451523  22.1454258  76.6631783  11.4015378  21.3590637  76.3452687
  12.5068737  22.3333409  75.9975673   6.6038645  23.6750060  71.1892461
   7.1546070  23.5467123  70.4169455   5.7650121  23.9744949  70.8387354
  13.9432762  22.4257058  74.6913184  13.9251237  23.2465939  74.1993453
  14.8652682  22.3011134  74.9163325  10.4005816  19.9401188  75.5336692
  10.9334152  19.1789476  75.3036000   9.8719897  19.6474840  76.2760847
   1.6361361  17.3694784  63.8818936   2.4736583  17.7791793  63.6652644
   1.8139629  16.4294226  63.8519130  13.5325793  15.0369865  59.5702769
  13.0172417  15.8074470  59.8091157  13.2603102  14.3635001  60.1935831
  11.1172904   9.8819566  64.6288007  10.2614501   9.4926416  64.4493646
  11.5299856   9.9611527  63.7687793  18.5060068  17.7902220  61.5055943
  17.7289510  17.4513379  61.0611105  19.1851548  17.7954843  60.8310908
  13.3212097  12.9096957  61.3962550  13.0162232  13.2243106  62.2472693
  14.2742539  12.9878377  61.4389883  11.7658528  19.0687180  63.0455504
  11.2379890  18.3339940  62.7328742  11.2646031  19.8461857  62.7995473
  16.7451374  17.2636201  68.1622551  16.0875049  17.9535462  68.2502679
  17.5491774  17.6532633  68.5056537  15.5556833  15.6180574  66.2126492
  16.0688715  16.2510565  66.7148202  16.2058057  15.0181769  65.8469852
   9.9111129  16.8867391  56.0490477   9.0038190  16.6556644  56.2481626
  10.4082161  16.0905010  56.2364459  12.8179207  25.5964898  58.9687163
  12.1440906  25.8996595  59.5772121  13.2045029  26.3993978  58.6192621
  12.0337664  13.0930029  68.4584833  11.1160225  13.3144976  68.3006521
  12.4497808  13.1676340  67.5996540  12.8172712  14.4921445  63.5887513
  13.5644531  15.0042842  63.2794635  13.0864301  14.1705498  64.4491907
  11.0899362  16.9879986  60.5714467  10.1810581  16.7039018  60.6686937
  11.1194446  17.4079064  59.7117774  16.3218629  20.5986575  64.3405635
  15.8680957  19.7577485  64.3970825  15.6912596  21.2347973  64.6780415
  15.2651549  11.5278561  65.5706302  14.5274306  11.0155947  65.9016545
  15.5178323  11.0878943  64.7589579  14.7651569  22.4363072  65.2755453
  15.0574543  22.9968129  64.5567819  15.2750189  22.7291633  66.0308612
   9.6384256  14.6008606  66.6724263   9.6932866  13.6482443  66.5966739
   8.8275458  14.7568045  67.1565561  10.7875450  18.5288729  57.9102546
  10.3494880  17.8124588  57.4508183  11.5285891  18.7564844  57.3487637
   7.5776616  13.2185666  64.4314642   6.7644482  13.5179836  64.8379834
   8.0735610  12.8241355  65.1489124   9.7285194  23.2143423  66.3648906
   9.6861373  23.4404269  65.4357438  10.6447893  22.9806797  66.5134707
  13.1750828  13.6827490  73.2629536  13.5300215  13.9098963  74.1224001
  13.8222959  14.0145867  72.6406791  18.9048565  16.8045926  63.9678865
  18.7666463  16.9947522  63.0400054  18.5484783  17.5665309  64.4246916
  18.9317944  18.8722453  68.9790136  19.3654451  18.7797742  69.8273190
  19.6449525  18.8479954  68.3410152   7.8450995  20.0906452  66.1610869
   8.6391593  19.5956772  65.9593444   7.1342687  19.5624315  65.7978575
  12.6645839  22.4724547  70.5123237  12.7182861  23.0415484  71.2800953
  11.7960620  22.6426432  70.1477274  19.7933494  18.9146154  71.5123021
  19.9869384  19.8191964  71.7582296  19.6934112  18.4553573  72.3461606
  11.4469804   8.8004044  74.0113349  10.7997720   9.4993994  73.9177825
  12.2170820   9.2340188  74.3789597  14.8548602  19.0652897  77.0863902
  14.7034109  18.8363448  76.1693986  14.8453282  20.0223498  77.0995247
  11.6233939  16.6384809  72.0710168  12.5525999  16.7895969  71.8979136
  11.2024969  16.7268830  71.2158815  10.4222271  20.6635474  69.8408706
  10.2833356  20.2954258  70.7134644   9.6336867  21.1783113  69.6692664
  11.0170423  25.7644570  61.1834243  11.1922178  25.2932613  61.9979865
  10.3303211  26.3910336  61.4115503  11.9727486  20.0417076  67.2297544
  11.6377318  20.0017846  68.1255194  11.4731431  19.3761792  66.7567954
   5.9471730  15.4484707  72.7550125   5.8091528  14.7164945  73.3561664
   6.8576653  15.3593607  72.4734313  14.9086677  17.3873111  57.5034604
  14.2915848  16.6619939  57.4067656  14.4403166  18.1482471  57.1601678
   8.5754030  15.1604666  72.2433805   9.2853649  14.5197858  72.2020423
   8.5323339  15.4117561  73.1659985  16.5640809  22.0972019  75.1640384
  16.5053355  21.4131239  74.4970967  16.9660327  22.8391009  74.7121010
   7.2882964  12.1469884  74.0629444   6.7520321  11.6960622  74.7151041
   6.6999673  12.2815793  73.3199909   5.5831508  28.9133933  67.9574103
   5.8228106  29.5452457  68.6353121   4.7400704  28.5621973  68.2439462
  16.5658216  20.0611603  73.3954364  15.6784995  19.7237525  73.5180762
  17.1356767  19.3294634  73.6323129  10.0959370  24.7213055  70.3615607
  10.0229541  25.5268027  70.8734911   9.6536763  24.9205021  69.5363628
   9.8849149  23.9584825  63.8718428   9.1016671  24.5006506  63.9656653
  10.5841895  24.4758805  64.2712670  13.1945799   9.7679455  66.5152634
  13.6914499   9.0149417  66.1953704  12.4232781   9.8043772  65.9495843
  21.0475557  15.4719820  68.1570925  21.0365433  16.3544536  67.7864858
  20.1792936  15.1191371  67.9625462  12.5558053  24.6199889  72.5173765
  13.2686025  25.2547354  72.4449667  12.0648082  24.7163755  71.7013767
  14.2775580  18.5251142  64.0891057  13.3431859  18.6452605  63.9195761
  14.4552249  17.6223609  63.8251067   9.7780768  11.9096838  66.2424318
   9.4078556  11.3567878  66.9305224  10.2739861  11.3054971  65.6899318
  17.6648132  14.3668461  64.6241091  18.1308584  15.1996453  64.5501394
  18.1155632  13.9013443  65.3286350   7.6069967  22.3694333  73.3379336
   8.3079426  23.0030816  73.4908730   7.1365082  22.7109064  72.5774976
  15.7324363  20.7112283  61.6227243  16.0084207  20.5968877  62.5321117
  14.8628861  20.3129768  61.5839416  15.6364794   6.7349048  68.6631993
  14.7227874   6.9653275  68.8314200  16.0657896   6.8187492  69.5146025
  15.4071253  14.9238940  71.1631887  14.7542703  15.1714848  70.5084339
  15.7851633  14.1103079  70.8294364  12.3678427  24.9598634  65.2660057
  12.5500821  24.1420290  65.7287809  13.1911413  25.1766326  64.8284947
  12.7020592  23.8866819  62.5275105  13.2308359  23.3759273  61.9145268
  12.9648812  23.5709349  63.3920638  11.4558826  15.6658751  77.6497924
  10.7799463  15.5652881  78.3200299  12.2786460  15.5097965  78.1133921
   3.2037685  21.9030688  70.2710439   3.7891122  21.1574376  70.4038343
   3.0062523  22.2134645  71.1547103   6.0576340  24.9381935  65.2872881
   5.3886715  25.4228063  64.8036921   5.9189210  25.1851156  66.2016260
  10.1981609  26.9725679  71.8855540  10.7499917  27.1357300  72.6504625
  10.5387802  27.5630117  71.2135565  15.0492483  21.7986936  77.7404194
  15.5932387  22.4116895  77.2459149  14.4679328  22.3566515  78.2571207
  13.3349996  24.9207654  68.8719222  13.2101135  24.1197394  68.3630167
  13.9929087  25.4153848  68.3833192  15.3984904  22.7216675  70.4998772
  14.4515240  22.6022026  70.4277099  15.7467677  21.8339173  70.5825033
  12.4031338  22.5169391  66.7003124  12.2556300  21.5886098  66.8810694
  13.2284831  22.5389481  66.2160199  16.0065459  23.3397949  67.7867997
  16.9312007  23.1340811  67.6492448  15.8380763  23.0914351  68.6957338
  12.3992852  10.3707228  61.6935241  12.6156466  11.2531866  61.3924070
  11.9186919   9.9793442  60.9640883   7.1392073  13.3292942  68.2705986
   6.9936654  13.6433245  69.1630268   6.6617277  13.9477842  67.7176885
  10.8514587  10.7532830  70.3640003  10.5932365  11.6749900  70.3624333
  10.3199627  10.3563264  71.0540467  15.7960776  23.8583617  63.1430088
  15.9697653  23.2930039  62.3903941  16.2889667  24.6584512  62.9609578
   1.6137735  15.8698286  71.2093647   1.0691204  16.6458094  71.3413922
   2.4917085  16.2169090  71.0512769  21.6500167  16.6220040  64.7620388
  22.0931313  15.8727365  64.3639511  20.7726677  16.6130176  64.3794120
  16.7835948  23.1750381  60.2426987  17.4786853  23.7957074  60.4614301
  17.1259098  22.3245733  60.5179365  18.6827371  20.6250087  61.7714317
  19.2078695  20.9637360  61.0463637  18.5949724  19.6897102  61.5877452
  10.3447420  24.5384160  73.9004194  10.6534546  24.2933307  74.7726894
  11.1422902  24.7430799  73.4123064  10.3668032  26.6922070  66.1309571
   9.9273022  26.1998449  66.8242427  11.1176149  26.1495038  65.8901646
   2.8460371  22.8833611  66.1334199   3.6718391  22.5837383  65.7532842
   2.4954423  22.1141233  66.5823987   7.8141904  22.2360079  68.2031872
   7.1921913  21.5730784  67.9034100   8.4846771  22.2621211  67.5205520
  18.3721277  21.2582990  77.0765515  17.5816821  21.2407129  76.5370015
  18.1354632  21.7971284  77.8314552  18.4919152  18.1075457  74.3898244
  18.5417157  17.9425464  75.3313767  18.3833076  17.2402716  73.9996125
   7.3755411  20.7864003  61.6790333   7.5243531  21.4699467  61.0257006
   8.1821855  20.7669093  62.1939789  15.7822915  14.0906385  75.7057551
  16.6832778  13.9512850  75.4141548  15.8570889  14.2560840  76.6455728
  10.1165720  11.4673240  74.5510737   9.2469030  11.7606806  74.2793326
  10.3525200  12.0513685  75.2718001  19.9937349  20.5272398  74.6340265
  19.7022158  20.8902379  75.4703726  19.3809481  19.8139407  74.4553598
  21.1933032  18.0925278  67.1542836  22.0279923  18.5315082  67.3180396
  21.3292160  17.6163931  66.3351081  18.2424537  15.6505013  73.1020323
  18.7178659  15.8432659  72.2939175  17.3190103  15.7064199  72.8563707
   5.1308044  16.8129180  62.6851402   4.8854086  15.9091510  62.8831612
   5.3003959  16.8146331  61.7430880  12.8204754   7.6852857  72.0676157
  13.3386698   8.4213883  71.7422646  12.4659887   7.9916850  72.9022916
  10.8750817  23.2812133  59.1502080  10.3024784  23.9002320  58.6972552
  11.4483610  23.8311495  59.6842002  16.9426206  12.5270773  71.3348629
  17.8943629  12.6268871  71.3560853  16.7729657  11.7349042  71.8446713
  14.9640586   9.6126356  71.5208030  14.3690518   9.8931369  70.8254519
  14.6790283  10.1020257  72.2924771  14.0948076  23.5649283  60.2810663
  15.0278750  23.4994845  60.4843538  14.0071289  24.4005550  59.8225195
  16.7236093  22.8815153  57.2414610  16.6449725  22.5475017  58.1350368
  17.5445760  23.3736921  57.2406082  19.4214284  15.7476893  70.4490929
  19.3890604  14.8092894  70.6350613  20.0314908  15.8260929  69.7156754
  11.2597615  14.6172946  56.4918133  12.2056720  14.4879154  56.5606551
  10.8811860  13.8787608  56.9687561  19.5708773  12.5387936  70.4949212
  19.0547821  11.7546393  70.3079141  20.4548721  12.2106653  70.6595731
  17.2319500   6.2828952  66.4545025  17.0344321   5.9744040  67.3388357
  17.8419205   7.0090591  66.5842954  25.2390834  16.8092900  69.5896966
  25.9694223  16.5478188  70.1504669  24.6297780  16.0721622  69.6299033
  23.3206131  14.9500762  70.1871417  22.5939295  14.8156727  69.5787908
  22.9053418  15.2577591  70.9928135  11.1436308  18.6690692  77.9518790
  12.0639317  18.8469291  78.1458836  11.1085891  17.7246737  77.7998489
   9.4440532  12.5422922  56.4273018   8.5371988  12.2456035  56.5035732
   9.7216513  12.2452740  55.5607304   4.1398380  16.5791727  70.5941571
   4.3584390  17.5108834  70.6129605   4.5524154  16.2199701  71.3796375
  16.3671953   8.2738384  63.7120220  15.7870622   8.9323188  63.3298273
  16.1007886   7.4515728  63.3007638  14.8175520   7.6743442  65.9141540
  15.3175298   7.7859976  65.1055859  15.4611128   7.3704494  66.5542349
   8.8757516  15.5822071  78.8009381   8.3924597  16.3822431  79.0073271
   8.9618455  15.5930016  77.8476825   2.1443475  17.4150451  66.7231201
   2.1214163  17.5138138  65.7713084   2.4544112  18.2615602  67.0448367
   4.8030853  19.4726606  70.8377815   5.7574107  19.4410548  70.7707747
   4.6043377  19.0117230  71.6528041   5.3930235  18.0427722  73.4048613
   6.2123124  18.5371801  73.4283450   5.6667043  17.1259690  73.3766180
  15.1496831  10.4338474  62.7676568  14.2622686  10.7188125  62.5496763
  15.5650820  10.2732238  61.9203845  18.5011368  10.4584995  66.4830908
  19.2771758  10.9481448  66.7555524  17.7759502  10.8843049  66.9402777
  20.9383926  11.1712614  67.5404848  21.5328417  10.9308350  66.8298157
  21.0110510  10.4519745  68.1678385   3.1581082  25.0146225  67.8548013
   3.0235550  24.2546626  67.2886011   2.7413144  25.7387125  67.3876802
  14.2940045  20.1983149  56.8624588  14.9975895  20.4033151  57.4782244
  13.5702694  20.7659911  57.1273672  15.1237855  15.9493010  62.9826859
  15.0673057  16.4061562  62.1434491  15.6766198  15.1883695  62.8049701
  18.9342661  11.7382742  63.8076978  18.6779595  11.3379378  64.6385186
  18.3095529  12.4526536  63.6827117  23.2454999  14.4778815  66.3148269
  22.6854557  14.5472005  67.0879832  22.6398502  14.3019800  65.5947766
   6.3150208  25.9115542  68.0666456   6.1982592  26.8560975  67.9645146
   5.4942654  25.6089104  68.4552255  16.2026742  20.6365678  58.9123048
  17.0372346  20.2046877  58.7300523  16.0411085  20.4647692  59.8399943
  15.8572634  17.1397791  60.2779388  15.8021438  16.9742063  59.3367832
  15.2318690  17.8473824  60.4341577  13.1718542  19.4446703  79.6032951
  14.0409701  19.6187356  79.2419585  12.6925293  20.2641120  79.4808680
   7.3404722  26.5643804  71.2822384   8.2431969  26.5967415  71.5988879
   7.1142092  25.6344255  71.2968720   9.0958324  25.3174791  67.9432463
   8.1453955  25.3176652  67.8296835   9.3990810  24.5707525  67.4268497
  24.8311017  31.1535329  69.0078225  25.4689427  31.0342077  68.3041565
  24.7131860  32.1016173  69.0666177  21.6400724  31.1062757  68.9439750
  21.3019235  30.9903822  68.0560285  22.5090492  30.7053922  68.9240756
  17.4987539  32.9598234  64.9336641  16.9352404  32.8688171  64.1652929
  17.3839934  32.1398138  65.4139133  22.1220507  32.2597609  74.9025955
  22.1109147  31.8650407  74.0306459  22.2841146  31.5263682  75.4959727
  15.0451971  34.4549425  67.7720861  15.8373263  34.1140250  67.3567161
  15.2848621  34.5644400  68.6923015  23.0787098  36.6269201  60.2451106
  22.4275078  37.2123282  59.8585120  23.8731461  37.1575396  60.3046143
  17.0042725  33.7158339  60.6438240  17.7773601  33.1687326  60.5051116
  17.3568124  34.5802588  60.8552702  18.8427768  35.0434721  73.8505139
  18.5517634  35.9480352  73.7351806  19.4784752  35.0851248  74.5649209
  19.7683975  32.4211569  70.4406499  20.3647547  32.1967592  69.7263462
  19.8258946  31.6796315  71.0431947  19.3409003  29.8751005  58.2756690
  19.5934524  29.3532526  57.5140153  18.4033562  29.7117150  58.3783374
  24.3852286  28.8786783  66.0831433  25.1715375  28.4606206  65.7321850
  24.6490990  29.7832875  66.2513082  24.5562363  34.3159633  60.7820090
  23.9208196  34.3894260  61.4940995  24.2259770  34.9053232  60.1039169
  29.7860713  28.8162016  66.9864412  30.5185885  28.2461233  67.2202241
  29.0300069  28.4283617  67.4270917  19.0605292  31.7779111  60.4781065
  18.9441550  31.1024014  61.1462149  19.1707552  31.2911485  59.6613218
  21.4036833  31.2389258  64.1827754  21.0395040  30.7119879  64.8940676
  22.2603949  30.8487727  64.0094240  27.3086133  22.5283590  71.4459020
  26.9769458  23.3979001  71.2220235  26.7131747  22.2119874  72.1253051
  21.0442320  26.2679157  59.1789103  21.2116722  27.1359394  59.5459574
  20.8539489  26.4306439  58.2550392  23.8017653  34.7296136  70.8454933
  23.5018376  35.6321175  70.7370740  23.4568712  34.4628320  71.6976086
  17.2530134  31.1809933  66.8791638  16.3280631  31.0486147  67.0869329
  17.5014548  31.9604152  67.3761580  27.2014797  27.2478677  68.5252370
  26.2931674  27.1794085  68.2311131  27.1502392  27.7250621  69.3534196
  21.0231541  28.7236815  60.1635770  20.9031166  29.1693866  61.0021250
  20.3284129  29.0722133  59.6049308  14.6138945  30.8243207  67.7135427
  14.7431327  31.0777686  68.6274838  13.9336397  31.4170915  67.3940082
  18.7838433  41.4940457  63.8125901  18.7062462  42.4448282  63.8914381
  18.1800076  41.1486329  64.4700827  21.2755662  28.6668322  76.4687268
  20.4988996  29.2262242  76.4590132  21.9146225  29.1525105  76.9902138
  29.0676443  25.4495115  70.3030244  28.4250823  25.7427648  69.6570039
  28.5631372  25.3348035  71.1083441  26.7216607  29.1958288  60.9916104
  27.6334463  29.4285675  60.8163801  26.2126254  29.7795332  60.4291182
  19.5302035  31.4753775  76.0305235  20.2716719  32.0138819  75.7540058
  18.8239020  32.1020064  76.1876786  25.0057374  33.6182916  74.6277396
  25.4140730  33.1765326  73.8832029  24.2834636  33.0435543  74.8811589
  21.3588444  28.5555523  72.0010953  22.2049640  28.9794936  72.1445602
  21.2987082  27.8989147  72.6949516  25.3286189  34.1784107  68.3829685
  24.6995051  34.3429821  67.6805753  24.9411851  34.5925716  69.1540649
  29.2075421  35.1138544  65.7374049  28.5226459  35.4937446  65.1871082
  29.2919270  35.7233871  66.4705997  24.5087890  26.2159891  73.6592127
  24.2648822  26.9701952  73.1226402  24.7847820  26.5945239  74.4939374
  26.4626353  32.7598503  72.3369392  26.6743248  33.4030263  71.6603773
  26.4156101  31.9260820  71.8691322  24.0652581  25.3716324  69.2405964
  23.2037061  25.6697578  69.5322702  24.0915016  25.5886723  68.3086997
  20.8814151  33.9158515  65.6479770  21.3452496  34.1946218  64.8584393
  20.6170949  33.0141959  65.4652861  17.7738232  33.4629996  68.5859533
  18.3439589  33.8917265  67.9477018  18.3646344  33.1812581  69.2843719
  19.8183037  30.0381667  62.4569335  20.5207080  30.4902711  62.9243262
  19.4863665  29.3965486  63.0849228  18.2663398  28.6293424  76.8320545
  17.6362059  29.3109705  77.0655942  18.1599486  28.5176505  75.8873683
  13.5608371  28.2965220  67.7586469  12.7707425  28.5522748  67.2826579
  14.0519618  29.1113558  67.8638509  27.5772180  35.6370459  70.5091750
  28.3989624  35.2350646  70.2274431  27.5734583  35.5338693  71.4607865
  15.5123116  28.6609799  64.7169946  14.7154280  28.7728493  65.2353441
  15.2848708  28.9996451  63.8510836  21.3428784  35.1854502  72.6652460
  21.4073216  35.6474909  73.5010632  20.6339708  34.5551867  72.7934770
  11.8446074  28.5495710  70.1901460  12.0954112  29.4342720  70.4559036
  12.3805622  28.3700312  69.4176551  35.6678174  31.9809207  66.8576721
  34.9141882  31.4116605  66.7020726  35.8025715  31.9471872  67.8047356
  21.0576802  36.8522610  62.5331441  20.9222476  37.6974145  62.9616288
  21.5986614  37.0541887  61.7697374  17.5444141  22.9314189  79.1945796
  17.1511087  22.3780388  79.8693440  18.3610282  23.2424768  79.5852313
  14.5106199  34.3698048  63.1059366  15.0230720  35.1641298  63.2564930
  15.1628912  33.6724338  63.0392967  16.3201084  37.4863804  65.1882119
  16.4967712  38.4081769  65.0003103  17.1157917  37.1722223  65.6176499
  20.4612102  24.3472069  76.7866052  21.2021816  24.9479222  76.7070515
  20.6930025  23.6049706  76.2284095  15.6053440  29.5328436  75.0644282
  15.4906955  28.6313693  75.3651381  14.7497958  29.7792133  74.7129099
  17.4432399  39.0041978  71.1892461  17.9939824  38.8759041  70.4169455
  16.6043875  39.3036867  70.8387354  24.7826516  37.7548976  74.6913184
  24.7644991  38.5757857  74.1993453  25.7046436  37.6303051  74.9163325
  21.2399570  35.2693106  75.5336692  21.7727907  34.5081394  75.3036000
  20.7113651  34.9766757  76.2760847  24.4069265  20.3753172  71.0630334
  24.0633535  21.2654813  70.9869445  24.7748228  20.1854829  70.1999919
  12.4755116  32.6986702  63.8818936  13.3130338  33.1083710  63.6652644
  12.6533383  31.7586144  63.8519130  24.3719548  30.3661783  59.5702769
  23.8566171  31.1366387  59.8091157  24.0996856  29.6926919  60.1935831
  21.9566659  25.2111483  64.6288007  21.1008255  24.8218334  64.4493646
  22.3693611  25.2903444  63.7687793  23.4865806  22.7457827  69.0279567
  22.9830601  22.7087962  68.2147373  23.7796412  23.6550569  69.0876224
  19.7308691  22.8296556  68.0345749  20.5961688  22.6339365  67.6751638
  19.7986200  22.6006908  68.9615106  29.3453822  33.1194137  61.5055943
  28.5683265  32.7805297  61.0611105  30.0245303  33.1246760  60.8310908
  24.1605851  28.2388875  61.3962550  23.8555987  28.5535024  62.2472693
  25.1136293  28.3170295  61.4389883  22.6052283  34.3979098  63.0455504
  22.0773644  33.6631858  62.7328742  22.1039786  35.1753774  62.7995473
  27.5845129  32.5928119  68.1622551  26.9268803  33.2827380  68.2502679
  28.3885528  32.9824550  68.5056537  17.3371010  25.0598764  65.4062116
  17.9114762  24.8373946  64.6735309  17.9241993  25.1287459  66.1590717
  26.3950588  30.9472491  66.2126492  26.9082469  31.5802483  66.7148202
  27.0451812  30.3473687  65.8469852  17.6640598  27.0903225  59.4258001
  16.8277910  27.4277912  59.7467276  17.5245367  26.9552205  58.4885138
  19.6393678  21.9340013  64.1337185  18.9858091  21.6189030  63.5093800
  19.5974152  21.3115754  64.8597008  20.7504883  32.2159308  56.0490477
  19.8431945  31.9848562  56.2481626  21.2475915  31.4196928  56.2364459
  23.6572962  40.9256815  58.9687163  22.9834661  41.2288512  59.5772121
  24.0438784  41.7285896  58.6192621  22.8731419  28.4221947  68.4584833
  21.9553980  28.6436894  68.3006521  23.2891562  28.4968257  67.5996540
  23.6566466  29.8213362  63.5887513  24.4038285  30.3334760  63.2794635
  23.9258056  29.4997415  64.4491907  21.9293117  32.3171903  60.5714467
  21.0204336  32.0330936  60.6686937  21.9588200  32.7370982  59.7117774
  27.1612384  35.9278493  64.3405635  26.7074711  35.0869403  64.3970825
  26.5306351  36.5639891  64.6780415  26.1045303  26.8570479  65.5706302
  25.3668060  26.3447865  65.9016545  26.3572077  26.4170860  64.7589579
  25.6045323  37.7654989  65.2755453  25.8968298  38.3260046  64.5567819
  26.1143944  38.0583550  66.0308612  26.2056931  19.6346731  66.1648072
  26.5115808  18.7744094  65.8773987  26.9309536  20.2264351  65.9647066
  12.4981287  30.0377417  64.5529670  12.3005687  29.4446778  63.8280736
  11.9427951  29.7329627  65.2705608  20.4778011  29.9300524  66.6724263
  20.5326620  28.9774360  66.5966739  19.6669213  30.0859963  67.1565561
  21.6269204  33.8580647  57.9102546  21.1888634  33.1416506  57.4508183
  22.3679645  34.0856762  57.3487637  18.4170370  28.5477584  64.4314642
  17.6038236  28.8471754  64.8379834  18.9129365  28.1533272  65.1489124
  20.5678948  38.5435340  66.3648906  20.5255127  38.7696187  65.4357438
  21.4841647  38.3098715  66.5134707  24.0144582  29.0119408  73.2629536
  24.3693970  29.2390881  74.1224001  24.6616713  29.3437785  72.6406791
  29.7442319  32.1337844  63.9678865  29.6060218  32.3239440  63.0400054
  29.3878538  32.8957227  64.4246916  17.9084445  26.1195939  70.0475877
  18.5483825  25.9784698  69.3498840  17.0761976  25.8330452  69.6714479
  29.7711699  34.2014371  68.9790136  30.2048205  34.1089660  69.8273190
  30.4843279  34.1771871  68.3410152  18.6844749  35.4198369  66.1610869
  19.4785348  34.9248690  65.9593444  17.9736442  34.8916233  65.7978575
  23.5039594  37.8016465  70.5123237  23.5576616  38.3707401  71.2800953
  22.6354375  37.9718350  70.1477274  14.9927513  29.5641451  62.2370622
  14.0625101  29.5025907  62.4540584  15.0884985  29.0417404  61.4407263
  14.9113062  26.0896264  64.8248863  15.1719879  27.0041597  64.7158024
  15.7330234  25.6220707  64.9745476  16.3837987  27.5034021  71.9947688
  17.0561040  27.2951383  71.3460337  15.5567774  27.3056107  71.5552920
  30.6327248  34.2438072  71.5123021  30.8263138  35.1483882  71.7582296
  30.5327866  33.7845491  72.3461606  22.2863559  24.1295962  74.0113349
  21.6391474  24.8285912  73.9177825  23.0564574  24.5632106  74.3789597
  25.6942357  34.3944814  77.0863902  25.5427863  34.1655366  76.1693986
  25.6847036  35.3515416  77.0995247  22.4627693  31.9676727  72.0710168
  23.3919753  32.1187887  71.8979136  22.0418723  32.0560748  71.2158815
  21.2616025  35.9927391  69.8408706  21.1227111  35.6246176  70.7134644
  20.4730621  36.5075031  69.6692664  21.8564177  41.0936488  61.1834243
  22.0315933  40.6224531  61.9979865  21.1696965  41.7202254  61.4115503
  22.8121240  35.3708994  67.2297544  22.4771073  35.3309764  68.1255194
  22.3125186  34.7053710  66.7567954  16.7865484  30.7776624  72.7550125
  16.6485282  30.0456863  73.3561664  17.6970408  30.6885524  72.4734313
  25.7480432  32.7165028  57.5034604  25.1309603  31.9911857  57.4067656
  25.2796920  33.4774389  57.1601678  19.4147785  30.4896584  72.2433805
  20.1247403  29.8489776  72.2020423  19.3717093  30.7409478  73.1659985
  27.4034564  37.4263937  75.1640384  27.3447110  36.7423157  74.4970967
  27.8054082  38.1682927  74.7121010  18.1276719  27.4761801  74.0629444
  17.5914076  27.0252540  74.7151041  17.5393427  27.6107710  73.3199909
  16.4225262  44.2425851  67.9574103  16.6621861  44.8744375  68.6353121
  15.5794459  43.8913891  68.2439462  17.5378978  26.9350453  56.6255908
  16.6608444  26.8139254  56.2618154  18.0136731  26.1436531  56.3734796
  27.4051971  35.3903521  73.3954364  26.5178750  35.0529443  73.5180762
  27.9750522  34.6586552  73.6323129   9.0581118  31.7227613  66.7197415
   9.7452158  31.4089343  66.1318430   8.9029247  32.6268977  66.4464666
  13.8615840  26.6117809  71.1482439  13.7774029  26.0043479  70.4132849
  13.0398547  27.1026827  71.1491935  20.9353124  40.0504973  70.3615607
  20.8623296  40.8559945  70.8734911  20.4930517  40.2496939  69.5363628
  20.7242904  39.2876743  63.8718428  19.9410426  39.8298423  63.9656653
  21.4235649  39.8050723  64.2712670  24.0339554  25.0971373  66.5152634
  24.5308254  24.3441335  66.1953704  23.2626535  25.1335689  65.9495843
  31.8869311  30.8011738  68.1570925  31.8759188  31.6836454  67.7864858
  31.0186691  30.4483289  67.9625462  25.1169335  33.8543060  64.0891057
  24.1825613  33.9744522  63.9195761  25.2946003  32.9515527  63.8251067
  20.6174523  27.2388756  66.2424318  20.2472310  26.6859796  66.9305224
  21.1133615  26.6346889  65.6899318  28.5041886  29.6960379  64.6241091
  28.9702338  30.5288371  64.5501394  28.9549387  29.2305361  65.3286350
  18.4463721  37.6986251  73.3379336  19.1473181  38.3322734  73.4908730
  17.9758836  38.0400982  72.5774976  26.5718117  36.0404200  61.6227243
  26.8477961  35.9260795  62.5321117  25.7022616  35.6421685  61.5839416
  26.4758549  22.0640966  68.6631993  25.5621629  22.2945193  68.8314200
  26.9051650  22.1479410  69.5146025  26.2465007  30.2530858  71.1631887
  25.5936458  30.5006766  70.5084339  26.6245387  29.4394996  70.8294364
  23.5414347  39.2158736  62.5275105  24.0702113  38.7051191  61.9145268
  23.8042566  38.9001267  63.3920638  22.2952580  30.9950669  77.6497924
  21.6193217  30.8944798  78.3200299  23.1180214  30.8389883  78.1133921
  14.0431439  37.2322606  70.2710439  14.6284876  36.4866294  70.4038343
  13.8456278  37.5426562  71.1547103  16.8970095  40.2673853  65.2872881
  16.2280470  40.7519981  64.8036921  16.7582964  40.5143074  66.2016260
   8.6349094  29.8028206  68.9914882   8.6733194  29.2691797  69.7852000
   8.1289387  29.2763411  68.3725859  16.0139856  24.6492746  72.4877424
  16.0781183  25.5107577  72.0754822  15.9506977  24.0366748  71.7549783
  15.4892129  26.7215879  76.1350459  16.1164168  26.3392956  76.7487983
  14.6320048  26.5030081  76.5006151  25.8886237  37.1278854  77.7404194
  26.4326141  37.7408812  77.2459149  25.3073082  37.6858433  78.2571207
  12.2657672  28.5292308  62.0668813  12.5611113  27.6202986  62.0135867
  11.3645707  28.5080047  61.7449816  15.7951919  26.6048305  68.0496362
  15.0738504  27.2184272  67.9103835  16.5845174  27.1406069  67.9713008
  26.2378659  38.0508592  70.4998772  25.2908994  37.9313943  70.4277099
  26.5861432  37.1631090  70.5825033  18.5978232  23.9402731  74.3237014
  19.1212634  24.1865028  75.0863323  18.3790565  24.7722766  73.9040151
  13.9945513  26.2106406  62.1908139  13.6658219  25.3303785  62.0083245
  14.3484884  26.1554074  63.0784528  23.2425092  37.8461308  66.7003124
  23.0950055  36.9178016  66.8810694  24.0678586  37.8681399  66.2160199
  17.1087336  26.4979375  62.5583616  17.4483409  27.0265297  61.8362225
  17.5559457  26.8359782  63.3342183  26.8459214  38.6689867  67.7867997
  27.7705761  38.4632728  67.6492448  26.6774517  38.4206268  68.6957338
  19.8030777  24.8816426  72.0086684  19.4627598  24.0824239  72.4107364
  19.0969784  25.1818137  71.4363518  20.4547249  21.9665739  70.4614007
  21.2773318  21.4926217  70.3392898  20.6985313  22.7456222  70.9612694
  19.0955484  24.9953997  60.7576909  19.8163846  25.3735250  60.2540626
  18.4720788  25.7142874  60.8611887  23.2386606  25.6999146  61.6935241
  23.4550221  26.5823784  61.3924070  22.7580674  25.3085359  60.9640883
  17.9785828  28.6584859  68.2705986  17.8330409  28.9725162  69.1630268
  17.5011031  29.2769760  67.7176885  19.8382211  25.6487407  68.3186876
  19.8243779  24.7528501  67.9819174  20.5554639  25.6558071  68.9525162
  21.6908341  26.0824747  70.3640003  21.4326119  27.0041818  70.3624333
  21.1593382  25.6855182  71.0540467  26.6354530  39.1875535  63.1430088
  26.8091408  38.6221957  62.3903941  27.1283421  39.9876429  62.9609578
  12.4531490  31.1990204  71.2093647  11.9084958  31.9750012  71.3413922
  13.3310840  31.5461008  71.0512769  19.2419107  24.5301788  63.5874446
  19.3635018  23.6018434  63.7865333  18.9521149  24.5440474  62.6752761
  22.1110297  22.2156698  66.7241166  22.1331994  22.2796031  65.7693145
  22.5278356  21.3761207  66.9181672  32.4893921  31.9511958  64.7620388
  32.9325067  31.2019283  64.3639511  31.6120432  31.9422094  64.3794120
  27.6229703  38.5042299  60.2426987  28.3180607  39.1248992  60.4614301
  27.9652853  37.6537650  60.5179365  13.2397512  30.3260100  74.1023804
  12.4979248  30.4742735  74.6888434  12.9190256  30.5868366  73.2390553
  29.5221126  35.9542005  61.7714317  30.0472450  36.2929277  61.0463637
  29.4343478  35.0189020  61.5877452  13.6854126  38.2125529  66.1334199
  14.5112145  37.9129301  65.7532842  13.3348178  37.4433151  66.5823987
  18.6535659  37.5651997  68.2031872  18.0315668  36.9022702  67.9034100
  19.3240526  37.5913129  67.5205520  11.8862731  36.1311855  67.0923132
  11.0494639  35.7034029  66.9107134  11.8586376  36.3244298  68.0293923
  18.7260186  26.0433785  77.7964378  18.7748342  26.9195908  77.4142148
  19.2682700  25.5011178  77.2236022  29.2115032  36.5874908  77.0765515
  28.4210576  36.5699047  76.5370015  28.9748386  37.1263202  77.8314552
  29.3312907  33.4367375  74.3898244  29.3810912  33.2717382  75.3313767
  29.2226830  32.5694634  73.9996125  18.2149166  36.1155920  61.6790333
  18.3637286  36.7991385  61.0257006  19.0215609  36.0961010  62.1939789
  26.6216669  29.4198303  75.7057551  27.5226532  29.2804767  75.4141548
  26.6964644  29.5852757  76.6455728  20.9559475  26.7965157  74.5510737
  20.0862784  27.0898723  74.2793326  21.1918955  27.3805602  75.2718001
  30.8331104  35.8564316  74.6340265  30.5415912  36.2194297  75.4703726
  30.2203235  35.1431324  74.4553598  32.0326786  33.4217196  67.1542836
  32.8673677  33.8607000  67.3180396  32.1685915  32.9455849  66.3351081
  29.0818292  30.9796931  73.1020323  29.5572414  31.1724577  72.2939175
  28.1583857  31.0356117  72.8563707  15.9701799  32.1421098  62.6851402
  15.7247841  31.2383428  62.8831612  16.1397713  32.1438248  61.7430880
  23.6598508  23.0144774  72.0676157  24.1780452  23.7505801  71.7422646
  23.3053641  23.3208768  72.9022916  15.2397446  27.8749455  60.1837563
  14.5466691  27.9493810  59.5277599  14.9949198  27.1109799  60.7059080
  23.9111103  19.4345057  67.5877054  24.1912856  18.7668246  68.2137480
  24.6961710  19.6274152  67.0751718  21.7144571  38.6104051  59.1502080
  21.1418538  39.2294238  58.6972552  22.2877365  39.1603412  59.6842002
  27.7819961  27.8562691  71.3348629  28.7337384  27.9560788  71.3560853
  27.6123411  27.0640959  71.8446713  25.8034340  24.9418274  71.5208030
  25.2084273  25.2223287  70.8254519  25.5184037  25.4312175  72.2924771
  24.9341831  38.8941201  60.2810663  25.8672504  38.8286762  60.4843538
  24.8465044  39.7297468  59.8225195  27.5629848  38.2107071  57.2414610
  27.4843479  37.8766935  58.1350368  28.3839514  38.7028839  57.2406082
  30.2608039  31.0768810  70.4490929  30.2284359  30.1384811  70.6350613
  30.8708662  31.1552847  69.7156754  22.0991370  29.9464863  56.4918133
  23.0450474  29.8171072  56.5606551  21.7205615  29.2079525  56.9687561
  30.4102527  27.8679854  70.4949212  29.8941576  27.0838311  70.3079141
  31.2942476  27.5398571  70.6595731  28.0713254  21.6120869  66.4545025
  27.8738075  21.3035958  67.3388357  28.6812960  22.3382508  66.5842954
  36.0784589  32.1384817  69.5896966  36.8087977  31.8770105  70.1504669
  35.4691534  31.4013539  69.6299033  34.1599886  30.2792680  70.1871417
  33.4333049  30.1448645  69.5787908  33.7447173  30.5869508  70.9928135
  21.9830062  33.9982610  77.9518790  22.9033072  34.1761209  78.1458836
  21.9479645  33.0538655  77.7998489  20.2834287  27.8714840  56.4273018
  19.3765742  27.5747953  56.5035732  20.5610268  27.5744658  55.5607304
  11.2012227  29.1921203  66.8772064  10.8815012  28.3386511  66.5846438
  10.6545655  29.4069781  67.6330032  14.9792135  31.9083644  70.5941571
  15.1978144  32.8400752  70.6129605  15.3917909  31.5491619  71.3796375
  21.8996352  22.4151730  62.5817259  21.0897081  22.0698815  62.9572505
  22.5880769  22.1059273  63.1704871  23.8286901  21.4929776  64.2041556
  24.3817939  21.9125230  64.8631579  24.0656987  20.5665524  64.2464512
  19.8520000  27.4816850  79.9844320  19.7516727  28.4311207  79.9156411
  19.6341542  27.1535089  79.1120390  19.0533071  24.7301775  56.5684997
  19.9152235  25.0556673  56.8280815  19.2383416  23.9433271  56.0558063
  11.0700487  32.8124115  68.8465186  10.3763959  32.3978068  68.3335140
  11.8173478  32.8544651  68.2498605  27.2065708  23.6030301  63.7120220
  26.6264377  24.2615106  63.3298273  26.9401641  22.7807646  63.3007638
  25.6569274  23.0035359  65.9141540  26.1569053  23.1151894  65.1055859
  26.3004882  22.6996412  66.5542349  19.7151270  30.9113989  78.8009381
  19.2318352  31.7114349  79.0073271  19.8012209  30.9221934  77.8476825
  12.9837230  32.7442369  66.7231201  12.9607918  32.8430056  65.7713084
  13.2937866  33.5907519  67.0448367  15.6424608  34.8018524  70.8377815
  16.5967861  34.7702466  70.7707747  15.4437131  34.3409147  71.6528041
  16.2323990  33.3719640  73.4048613  17.0516879  33.8663718  73.4283450
  16.5060797  32.4551608  73.3766180  25.9890586  25.7630392  62.7676568
  25.1016441  26.0480043  62.5496763  26.4044575  25.6024155  61.9203845
  29.3405122  25.7876913  66.4830908  30.1165512  26.2773365  66.7555524
  28.6153256  26.2134967  66.9402777  31.7777681  26.5004532  67.5404848
  32.3722171  26.2600268  66.8298157  31.8504264  25.7811663  68.1678385
  13.9974836  40.3438143  67.8548013  13.8629304  39.5838544  67.2886011
  13.5806899  41.0679043  67.3876802  25.1333799  35.5275067  56.8624588
  25.8369649  35.7325069  57.4782244  24.4096448  36.0951828  57.1273672
  25.9631610  31.2784928  62.9826859  25.9066811  31.7353479  62.1434491
  26.5159952  30.5175612  62.8049701  29.7736416  27.0674660  63.8076978
  29.5173350  26.6671295  64.6385186  29.1489284  27.7818454  63.6827117
  34.0848753  29.8070733  66.3148269  33.5248311  29.8763922  67.0879832
  33.4792257  29.6311718  65.5947766  17.1543962  41.2407460  68.0666456
  17.0376346  42.1852893  67.9645146  16.3336408  40.9381022  68.4552255
  27.0420497  35.9657596  58.9123048  27.8766101  35.5338794  58.7300523
  26.8804840  35.7939609  59.8399943  26.6966389  32.4689709  60.2779388
  26.6415193  32.3033980  59.3367832  26.0712444  33.1765742  60.4341577
  11.4858904  27.7057773  74.1040810  12.1317768  27.1956727  74.5928035
  11.2776055  28.4426455  74.6784235  24.0112296  34.7738621  79.6032951
  24.8803456  34.9479273  79.2419585  23.5319048  35.5933038  79.4808680
  20.0062514  21.9697818  59.8564706  19.9941184  22.9139658  60.0132977
  20.8985936  21.7867963  59.5624167  18.1798476  41.8935722  71.2822384
  19.0825723  41.9259332  71.5988879  17.9535846  40.9636173  71.2968720
  19.9352078  40.6466708  67.9432463  18.9847709  40.6468570  67.8296835
  20.2384565  39.8999443  67.4268497  23.8214634  18.5640595  64.1110643
  23.0547030  18.0099081  64.2567325  24.2325339  18.6362463  64.9724795
  15.8256395  24.8525391  78.2015824  16.6887856  24.4962195  78.4119149
  15.2521806  24.5139285  78.8891228  38.1479888  37.8575508  71.4459020
  37.8163213  38.7270919  71.2220235  37.5525501  37.5411792  72.1253051
  31.8625295  44.0528733  60.1635770  31.7424920  44.4985783  61.0021250
  31.1677883  44.4014050  59.6049308  32.1149417  43.9960240  76.4687268
  31.3382751  44.5554160  76.4590132  32.7539980  44.4817023  76.9902138
  39.9070198  40.7787033  70.3030244  39.2644578  41.0719566  69.6570039
  39.4025126  40.6639953  71.1083441  32.1982199  43.8847440  72.0010953
  33.0443394  44.3086854  72.1445602  32.1380837  43.2281065  72.6949516
  35.3481644  41.5451809  73.6592127  35.1042576  42.2993869  73.1226402
  35.6241575  41.9237156  74.4939374  34.9046336  40.7008242  69.2405964
  34.0430815  40.9989495  69.5322702  34.9308771  40.9178641  68.3086997
  30.6576791  45.3673585  62.4569335  31.3600835  45.8194628  62.9243262
  30.3257420  44.7257404  63.0849228  26.3516871  43.9901717  64.7169946
  25.5548034  44.1020411  65.2353441  26.1242463  44.3288369  63.8510836
  28.3837896  38.2606107  79.1945796  27.9904841  37.7072306  79.8693440
  29.2004036  38.5716686  79.5852313  31.3005857  39.6763986  76.7866052
  32.0415570  40.2771139  76.7070515  31.5323780  38.9341624  76.2284095
  35.2463020  35.7045089  71.0630334  34.9027289  36.5946731  70.9869445
  35.6141982  35.5146747  70.1999919  23.3148870  48.0278620  63.8818936
  24.1524092  48.4375628  63.6652644  23.4927138  47.0878062  63.8519130
  32.7960413  40.5403401  64.6288007  31.9402010  40.1510251  64.4493646
  33.2087365  40.6195362  63.7687793  34.3259560  38.0749744  69.0279567
  33.8224356  38.0379880  68.2147373  34.6190167  38.9842487  69.0876224
  30.5702446  38.1588474  68.0345749  31.4355443  37.9631283  67.6751638
  30.6379955  37.9298826  68.9615106  28.1764765  40.3890682  65.4062116
  28.7508517  40.1665863  64.6735309  28.7635747  40.4579377  66.1590717
  28.5034352  42.4195143  59.4258001  27.6671664  42.7569830  59.7467276
  28.3639122  42.2844123  58.4885138  30.4787433  37.2631931  64.1337185
  29.8251845  36.9480948  63.5093800  30.4367907  36.6407671  64.8597008
  33.7125173  43.7513864  68.4584833  32.7947734  43.9728811  68.3006521
  34.1285317  43.8260175  67.5996540  37.0450685  34.9638648  66.1648072
  37.3509562  34.1036012  65.8773987  37.7703290  35.5556269  65.9647066
  23.3375041  45.3669335  64.5529670  23.1399441  44.7738696  63.8280736
  22.7821705  45.0621545  65.2705608  31.3171765  45.2592441  66.6724263
  31.3720375  44.3066278  66.5966739  30.5062967  45.4151881  67.1565561
  29.2564125  43.8769501  64.4314642  28.4431990  44.1763672  64.8379834
  29.7523119  43.4825190  65.1489124  34.8538337  44.3411326  73.2629536
  35.2087724  44.5682799  74.1224001  35.5010468  44.6729702  72.6406791
  25.8321267  44.8933369  62.2370622  24.9018855  44.8317824  62.4540584
  25.9278739  44.3709322  61.4407263  25.7506816  41.4188182  64.8248863
  26.0113633  42.3333515  64.7158024  26.5723988  40.9512624  64.9745476
  33.1257313  39.4587880  74.0113349  32.4785229  40.1577829  73.9177825
  33.8958329  39.8924024  74.3789597  28.9670473  42.8053719  74.0629444
  28.4307830  42.3544458  74.7151041  28.3787182  42.9399628  73.3199909
  19.8974872  47.0519530  66.7197415  20.5845912  46.7381260  66.1318430
  19.7423001  47.9560895  66.4464666  34.8733308  40.4263290  66.5152634
  35.3702008  39.6733253  66.1953704  34.1020290  40.4627607  65.9495843
  31.4568277  42.5680673  66.2424318  31.0866065  42.0151714  66.9305224
  31.9527370  41.9638807  65.6899318  37.3152303  37.3932884  68.6631993
  36.4015383  37.6237111  68.8314200  37.7445405  37.4771328  69.5146025
  19.4742849  45.1320124  68.9914882  19.5126948  44.5983714  69.7852000
  18.9683141  44.6055329  68.3725859  26.8533611  39.9784664  72.4877424
  26.9174937  40.8399495  72.0754822  26.7900731  39.3658666  71.7549783
  26.3285883  42.0507797  76.1350459  26.9557922  41.6684874  76.7487983
  25.4713802  41.8321999  76.5006151  23.1051426  43.8584226  62.0668813
  23.4004867  42.9494904  62.0135867  22.2039462  43.8371965  61.7449816
  29.4371987  39.2694649  74.3237014  29.9606388  39.5156945  75.0863323
  29.2184320  40.1014684  73.9040151  24.8339268  41.5398323  62.1908139
  24.5051974  40.6595702  62.0083245  25.1878638  41.4845992  63.0784528
  27.9481091  41.8271293  62.5583616  28.2877163  42.3557214  61.8362225
  28.3953211  42.1651699  63.3342183  30.6424532  40.2108344  72.0086684
  30.3021352  39.4116157  72.4107364  29.9363538  40.5110055  71.4363518
  31.2941004  37.2957656  70.4614007  32.1167073  36.8218135  70.3392898
  31.5379067  38.0748140  70.9612694  29.9349238  40.3245915  60.7576909
  30.6557601  40.7027168  60.2540626  29.3114542  41.0434792  60.8611887
  28.8179582  43.9876777  68.2705986  28.6724163  44.3017080  69.1630268
  28.3404786  44.6061677  67.7176885  30.6775965  40.9779325  68.3186876
  30.6637534  40.0820418  67.9819174  31.3948393  40.9849989  68.9525162
  32.5302096  41.4116665  70.3640003  32.2719874  42.3333736  70.3624333
  31.9987136  41.0147100  71.0540467  30.0812861  39.8593705  63.5874446
  30.2028772  38.9310351  63.7865333  29.7914903  39.8732391  62.6752761
  32.9504052  37.5448616  66.7241166  32.9725748  37.6087949  65.7693145
  33.3672111  36.7053124  66.9181672  29.5653941  41.3725703  77.7964378
  29.6142096  42.2487825  77.4142148  30.1076455  40.8303096  77.2236022
  31.7953229  42.1257075  74.5510737  30.9256539  42.4190641  74.2793326
  32.0312709  42.7097520  75.2718001  26.8095553  47.4713016  62.6851402
  26.5641595  46.5675346  62.8831612  26.9791468  47.4730166  61.7430880
  34.4992263  38.3436692  72.0676157  35.0174207  39.0797719  71.7422646
  34.1447396  38.6500685  72.9022916  26.0791201  43.2041373  60.1837563
  25.3860446  43.2785728  59.5277599  25.8342953  42.4401717  60.7059080
  34.7504857  34.7636974  67.5877054  35.0306611  34.0960164  68.2137480
  35.5355464  34.9566070  67.0751718  36.6428095  40.2710192  71.5208030
  36.0478027  40.5515204  70.8254519  36.3577792  40.7604093  72.2924771
  32.7390107  37.7443647  62.5817259  31.9290835  37.3990732  62.9572505
  33.4274524  37.4351191  63.1704871  34.6680655  36.8221694  64.2041556
  35.2211694  37.2417147  64.8631579  34.9050742  35.8957442  64.2464512
  30.6913755  42.8108768  79.9844320  30.5910481  43.7603125  79.9156411
  30.4735297  42.4827007  79.1120390  21.9094242  48.1416032  68.8465186
  21.2157713  47.7269985  68.3335140  22.6567233  48.1836569  68.2498605
  36.4963029  38.3327277  65.9141540  36.9962807  38.4443811  65.1055859
  37.1398637  38.0288330  66.5542349  30.8456269  37.2989736  59.8564706
  30.8334939  38.2431576  60.0132977  31.7379691  37.1159881  59.5624167
  34.6608388  33.8932512  64.1110643  33.8940784  33.3390999  64.2567325
  35.0719093  33.9654381  64.9724795  26.6650149  40.1817308  78.2015824
  27.5281611  39.8254113  78.4119149  26.0915560  39.8431203  78.8891228
  42.6346984  57.4548993  74.5510737  41.7650293  57.7482559  74.2793326
  42.8706464  58.0389438  75.2718001  55.2026541  83.4621929  76.6631783
  54.7590396  82.6758308  76.3452687  55.8643755  83.6501080  75.9975673
  53.5556627  88.2893350  71.8855540  54.1074935  88.4524971  72.6504625
  53.8962820  88.8797787  71.2135565  68.1886035  92.4703000  69.0078225
  68.8264445  92.3509747  68.3041565  68.0706878  93.4183844  69.0666177
  64.9975742  92.4230428  68.9439750  64.6594253  92.3071493  68.0560285
  65.8665510  92.0221593  68.9240756  60.8562557  94.2765904  64.9336641
  60.2927422  94.1855841  64.1652929  60.7414952  93.4565809  65.4139133
  65.4795525  93.5765280  74.9025955  65.4684165  93.1818078  74.0306459
  65.6416164  92.8431352  75.4959727  58.4026989  95.7717096  67.7720861
  59.1948281  95.4307921  67.3567161  58.6423639  95.8812071  68.6923015
  66.4362116  97.9436872  60.2451106  65.7850096  98.5290953  59.8585120
  67.2306479  98.4743067  60.3046143  60.3617743  95.0326009  60.6438240
  61.1348619  94.4854996  60.5051116  60.7143142  95.8970259  60.8552702
  62.2002786  96.3602392  73.8505139  61.9092652  97.2648022  73.7351806
  62.8359770  96.4018919  74.5649209  63.1258993  93.7379240  70.4406499
  63.7222565  93.5135262  69.7263462  63.1833964  92.9963986  71.0431947
  62.6984021  91.1918675  58.2756690  62.9509542  90.6700197  57.5140153
  61.7608580  91.0284821  58.3783374  67.9137381  95.6327304  60.7820090
  67.2783214  95.7061931  61.4940995  67.5834788  96.2220903  60.1039169
  73.1435731  90.1329687  66.9864412  73.8760903  89.5628904  67.2202241
  72.3875087  89.7451287  67.4270917  62.4180310  93.0946781  60.4781065
  62.3016568  92.4191685  61.1462149  62.5282570  92.6079155  59.6613218
  64.7611851  92.5556928  64.1827754  64.3970058  92.0287549  64.8940676
  65.6178967  92.1655397  64.0094240  70.6661151  83.8451261  71.4459020
  70.3344476  84.7146672  71.2220235  70.0706765  83.5287545  72.1253051
  67.1592671  96.0463807  70.8454933  66.8593394  96.9488846  70.7370740
  66.8143730  95.7795990  71.6976086  60.6105152  92.4977604  66.8791638
  59.6855649  92.3653818  67.0869329  60.8589566  93.2771823  67.3761580
  70.5589815  88.5646347  68.5252370  69.6506692  88.4961756  68.2311131
  70.5077410  89.0418292  69.3534196  64.3806559  90.0404486  60.1635770
  64.2606184  90.4861536  61.0021250  63.6859147  90.3889803  59.6049308
  57.9713963  92.1410877  67.7135427  58.1006345  92.3945356  68.6274838
  57.2911415  92.7338585  67.3940082  62.1413451 102.8108127  63.8125901
  62.0637480 103.7615952  63.8914381  61.5375094 102.4654000  64.4700827
  64.6330680  89.9835993  76.4687268  63.8564014  90.5429913  76.4590132
  65.2721243  90.4692776  76.9902138  72.4251461  86.7662786  70.3030244
  71.7825841  87.0595319  69.6570039  71.9206390  86.6515706  71.1083441
  70.0791625  90.5125959  60.9916104  70.9909481  90.7453346  60.8163801
  69.5701272  91.0963003  60.4291182  62.8877053  92.7921446  76.0305235
  63.6291737  93.3306490  75.7540058  62.1814038  93.4187735  76.1876786
  68.3632392  94.9350587  74.6277396  68.7715748  94.4932997  73.8832029
  67.6409654  94.3603214  74.8811589  64.7163462  89.8723193  72.0010953
  65.5624658  90.2962607  72.1445602  64.6562100  89.2156818  72.6949516
  68.6861207  95.4951777  68.3829685  68.0570069  95.6597491  67.6805753
  68.2986869  95.9093387  69.1540649  72.5650439  96.4306215  65.7374049
  71.8801477  96.8105116  65.1871082  72.6494288  97.0401542  66.4705997
  67.8662908  87.5327562  73.6592127  67.6223840  88.2869622  73.1226402
  68.1422838  87.9112909  74.4939374  69.8201370  94.0766174  72.3369392
  70.0318266  94.7197934  71.6603773  69.7731119  93.2428491  71.8691322
  64.2389169  95.2326185  65.6479770  64.7027514  95.5113888  64.8584393
  63.9745967  94.3309630  65.4652861  61.1313250  94.7797667  68.5859533
  61.7014607  95.2084935  67.9477018  61.7221362  94.4980252  69.2843719
  63.1758055  91.3549338  62.4569335  63.8782098  91.8070381  62.9243262
  62.8438683  90.7133157  63.0849228  61.6238416  89.9461094  76.8320545
  60.9937077  90.6277375  77.0655942  61.5174504  89.8344176  75.8873683
  56.9183389  89.6132890  67.7586469  56.1282443  89.8690419  67.2826579
  57.4094636  90.4281228  67.8638509  70.9347198  96.9538130  70.5091750
  71.7564642  96.5518317  70.2274431  70.9309601  96.8506364  71.4607865
  64.7003802  96.5022173  72.6652460  64.7648234  96.9642580  73.5010632
  63.9914726  95.8719538  72.7934770  55.2021092  89.8663381  70.1901460
  55.4529130  90.7510391  70.4559036  55.7380640  89.6867982  69.4176551
  79.0253191  93.2976878  66.8576721  78.2716900  92.7284276  66.7020726
  79.1600733  93.2639543  67.8047356  64.4151820  98.1690280  62.5331441
  64.2797494  99.0141816  62.9616288  64.9561632  98.3709558  61.7697374
  60.9019159  84.2481860  79.1945796  60.5086105  83.6948059  79.8693440
  61.7185299  84.5592439  79.5852313  57.8681217  95.6865718  63.1059366
  58.3805737  96.4808969  63.2564930  58.5203930  94.9892009  63.0392967
  59.6776102  98.8031475  65.1882119  59.8542730  99.7249439  65.0003103
  60.4732935  98.4889894  65.6176499  63.8187120  85.6639739  76.7866052
  64.5596834  86.2646892  76.7070515  64.0505043  84.9217377  76.2284095
  58.9628458  90.8496107  75.0644282  58.8481973  89.9481364  75.3651381
  58.1072976  91.0959803  74.7129099  66.0420296  98.7913847  76.6631783
  65.5984150  98.0050225  76.3452687  66.7037509  98.9792997  75.9975673
  60.8007417 100.3209648  71.1892461  61.3514842 100.1926712  70.4169455
  59.9618893 100.6204537  70.8387354  68.1401534  99.0716647  74.6913184
  68.1220009  99.8925528  74.1993453  69.0621454  98.9470722  74.9163325
  64.5974588  96.5860776  75.5336692  65.1302925  95.8249064  75.3036000
  64.0688669  96.2934428  76.2760847  55.8330134  94.0154373  63.8818936
  56.6705356  94.4251381  63.6652644  56.0108401  93.0753815  63.8519130
  67.7294566  91.6829453  59.5702769  67.2141189  92.4534058  59.8091157
  67.4571874  91.0094589  60.1935831  72.7028840  94.4361808  61.5055943
  71.9258283  94.0972967  61.0611105  73.3820321  94.4414431  60.8310908
  67.5180869  89.5556545  61.3962550  67.2131005  89.8702695  62.2472693
  68.4711311  89.6337965  61.4389883  65.9627301  95.7146769  63.0455504
  65.4348662  94.9799528  62.7328742  65.4614804  96.4921445  62.7995473
  70.9420147  93.9095789  68.1622551  70.2843821  94.5995051  68.2502679
  71.7460546  94.2992221  68.5056537  69.7525606  92.2640162  66.2126492
  70.2657487  92.8970154  66.7148202  70.4026830  91.6641357  65.8469852
  64.1079901  93.5326979  56.0490477  63.2006963  93.3016232  56.2481626
  64.6050933  92.7364598  56.2364459  67.0147980 102.2424486  58.9687163
  66.3409679 102.5456183  59.5772121  67.4013802 103.0453567  58.6192621
  67.0141484  91.1381033  63.5887513  67.7613303  91.6502430  63.2794635
  67.2833074  90.8165086  64.4491907  65.2868134  93.6339574  60.5714467
  64.3779354  93.3498607  60.6686937  65.3163218  94.0538652  59.7117774
  70.5187402  97.2446163  64.3405635  70.0649729  96.4037073  64.3970825
  69.8881369  97.8807562  64.6780415  68.9620341  99.0822660  65.2755453
  69.2543315  99.6427717  64.5567819  69.4718962  99.3751221  66.0308612
  69.5631949  80.9514401  66.1648072  69.8690826  80.0911765  65.8773987
  70.2884554  81.5432022  65.9647066  63.8353029  91.2468194  66.6724263
  63.8901638  90.2942031  66.5966739  63.0244231  91.4027634  67.1565561
  64.9844222  95.1748318  57.9102546  64.5463652  94.4584176  57.4508183
  65.7254663  95.4024432  57.3487637  61.7745388  89.8645254  64.4314642
  60.9613254  90.1639425  64.8379834  62.2704383  89.4700943  65.1489124
  63.9253966  99.8603011  66.3648906  63.8830145 100.0863857  65.4357438
  64.8416665  99.6266386  66.5134707  67.3719600  90.3287079  73.2629536
  67.7268988  90.5558552  74.1224001  68.0191731  90.6605455  72.6406791
  73.1017337  93.4505515  63.9678865  72.9635236  93.6407111  63.0400054
  72.7453556  94.2124897  64.4246916  61.2659463  87.4363610  70.0475877
  61.9058843  87.2952369  69.3498840  60.4336994  87.1498123  69.6714479
  73.1286717  95.5182042  68.9790136  73.5623223  95.4257331  69.8273190
  73.8418297  95.4939542  68.3410152  62.0419767  96.7366040  66.1610869
  62.8360366  96.2416360  65.9593444  61.3311459  96.2083903  65.7978575
  66.8614612  99.1184136  70.5123237  66.9151634  99.6875072  71.2800953
  65.9929393  99.2886021  70.1477274  59.7413005  88.8201692  71.9947688
  60.4136058  88.6119054  71.3460337  58.9142791  88.6223778  71.5552920
  73.9902266  95.5605742  71.5123021  74.1838156  96.4651553  71.7582296
  73.8902884  95.1013161  72.3461606  65.6438577  85.4463633  74.0113349
  64.9966492  86.1453582  73.9177825  66.4139592  85.8799777  74.3789597
  69.0517375  95.7112485  77.0863902  68.9002881  95.4823037  76.1693986
  69.0422054  96.6683086  77.0995247  65.8202711  93.2844398  72.0710168
  66.7494771  93.4355557  71.8979136  65.3993741  93.3728419  71.2158815
  64.6191043  97.3095062  69.8408706  64.4802129  96.9413847  70.7134644
  63.8305639  97.8242702  69.6692664  65.2139195 102.4104159  61.1834243
  65.3890951 101.9392202  61.9979865  64.5271983 103.0369925  61.4115503
  66.1696258  96.6876665  67.2297544  65.8346091  96.6477435  68.1255194
  65.6700204  96.0221381  66.7567954  60.1440502  92.0944295  72.7550125
  60.0060300  91.3624534  73.3561664  61.0545426  92.0053195  72.4734313
  69.1055450  94.0332699  57.5034604  68.4884621  93.3079527  57.4067656
  68.6371938  94.7942059  57.1601678  62.7722803  91.8064254  72.2433805
  63.4822421  91.1657446  72.2020423  62.7292111  92.0577149  73.1659985
  70.7609582  98.7431608  75.1640384  70.7022128  98.0590828  74.4970967
  71.1629100  99.4850598  74.7121010  61.4851737  88.7929472  74.0629444
  60.9489094  88.3420211  74.7151041  60.8968445  88.9275381  73.3199909
  59.7800280 105.5593521  67.9574103  60.0196879 106.1912046  68.6353121
  58.9369477 105.2081561  68.2439462  60.8953996  88.2518124  56.6255908
  60.0183462  88.1306924  56.2618154  61.3711749  87.4604202  56.3734796
  70.7626989  96.7071191  73.3954364  69.8753768  96.3697113  73.5180762
  71.3325540  95.9754223  73.6323129  52.4156136  93.0395283  66.7197415
  53.1027176  92.7257013  66.1318430  52.2604265  93.9436648  66.4464666
  64.2928142 101.3672644  70.3615607  64.2198314 102.1727615  70.8734911
  63.8505535 101.5664610  69.5363628  64.0817922 100.6044414  63.8718428
  63.2985444 101.1466094  63.9656653  64.7810667 101.1218394  64.2712670
  75.2444329  92.1179409  68.1570925  75.2334206  93.0004124  67.7864858
  74.3761709  91.7650960  67.9625462  66.7526826 101.2659478  72.5173765
  67.4654798 101.9006943  72.4449667  66.2616854 101.3623344  71.7013767
  68.4744353  95.1710731  64.0891057  67.5400631  95.2912193  63.9195761
  68.6521021  94.2683197  63.8251067  71.8616904  91.0128050  64.6241091
  72.3277356  91.8456041  64.5501394  72.3124404  90.5473031  65.3286350
  61.8038739  99.0153921  73.3379336  62.5048199  99.6490404  73.4908730
  61.3333854  99.3568653  72.5774976  69.9293135  97.3571871  61.6227243
  70.2052979  97.2428466  62.5321117  69.0597634  96.9589356  61.5839416
  69.8333567  83.3808637  68.6631993  68.9196647  83.6112864  68.8314200
  70.2626668  83.4647081  69.5146025  69.6040025  91.5698529  71.1631887
  68.9511475  91.8174436  70.5084339  69.9820405  90.7562667  70.8294364
  66.5647199 101.6058222  65.2660057  66.7469594 100.7879878  65.7287809
  67.3880185 101.8225914  64.8284947  66.8989365 100.5326407  62.5275105
  67.4277131 100.0218862  61.9145268  67.1617584 100.2168937  63.3920638
  65.6527598  92.3118340  77.6497924  64.9768235  92.2112469  78.3200299
  66.4755232  92.1557554  78.1133921  57.4006457  98.5490276  70.2710439
  57.9859894  97.8033964  70.4038343  57.2031296  98.8594233  71.1547103
  60.2545113 101.5841524  65.2872881  59.5855488 102.0687651  64.8036921
  60.1157982 101.8310744  66.2016260  64.3950381 103.6185267  71.8855540
  64.9468689 103.7816889  72.6504625  64.7356575 104.2089705  71.2135565
  58.8467147  88.0383550  76.1350459  59.4739186  87.6560627  76.7487983
  57.9895066  87.8197752  76.5006151  69.2461255  98.4446525  77.7404194
  69.7901159  99.0576483  77.2459149  68.6648100  99.0026103  78.2571207
  67.5318768 101.5667243  68.8719222  67.4069908 100.7656983  68.3630167
  68.1897860 102.0613436  68.3833192  69.5953677  99.3676263  70.4998772
  68.6484012  99.2481614  70.4277099  69.9436450  98.4798761  70.5825033
  66.6000110  99.1628979  66.7003124  66.4525073  98.2345687  66.8810694
  67.4253604  99.1849070  66.2160199  70.2034232  99.9857538  67.7867997
  71.1280779  99.7800399  67.6492448  70.0349535  99.7373939  68.6957338
  66.5961624  87.0166817  61.6935241  66.8125239  87.8991455  61.3924070
  66.1155692  86.6253030  60.9640883  61.3360846  89.9752530  68.2705986
  61.1905426  90.2892833  69.1630268  60.8586049  90.5937430  67.7176885
  69.9929548 100.5043205  63.1430088  70.1666426  99.9389628  62.3903941
  70.4858439 101.3044100  62.9609578  55.8106508  92.5157874  71.2093647
  55.2659976  93.2917682  71.3413922  56.6885858  92.8628679  71.0512769
  75.8468939  93.2679628  64.7620388  76.2900085  92.5186953  64.3639511
  74.9695450  93.2589765  64.3794120  70.9804721  99.8209970  60.2426987
  71.6755625 100.4416662  60.4614301  71.3227871  98.9705321  60.5179365
  56.5972530  91.6427771  74.1023804  55.8554266  91.7910406  74.6888434
  56.2765274  91.9036036  73.2390553  72.8796144  97.2709675  61.7714317
  73.4047468  97.6096948  61.0463637  72.7918496  96.3356691  61.5877452
  64.5416192 101.1843749  73.9004194  64.8503319 100.9392896  74.7726894
  65.3391674 101.3890387  73.4123064  64.5636804 103.3381659  66.1309571
  64.1241795 102.8458037  66.8242427  65.3144921 102.7954626  65.8901646
  57.0429143  99.5293199  66.1334199  57.8687163  99.2296971  65.7532842
  56.6923195  98.7600822  66.5823987  62.0110677  98.8819668  68.2031872
  61.3890686  98.2190373  67.9034100  62.6815544  98.9080799  67.5205520
  55.2437749  97.4479526  67.0923132  54.4069657  97.0201700  66.9107134
  55.2161394  97.6411969  68.0293923  62.0835204  87.3601456  77.7964378
  62.1323360  88.2363578  77.4142148  62.6257718  86.8178849  77.2236022
  72.5690050  97.9042579  77.0765515  71.7785594  97.8866718  76.5370015
  72.3323404  98.4430873  77.8314552  72.6887925  94.7535045  74.3898244
  72.7385930  94.5885053  75.3313767  72.5801848  93.8862304  73.9996125
  61.5724184  97.4323591  61.6790333  61.7212304  98.1159055  61.0257006
  62.3790627  97.4128681  62.1939789  69.9791687  90.7365973  75.7057551
  70.8801550  90.5972438  75.4141548  70.0539662  90.9020428  76.6455728
  64.3134493  88.1132828  74.5510737  63.4437802  88.4066394  74.2793326
  64.5493973  88.6973273  75.2718001  74.1906122  97.1731987  74.6340265
  73.8990930  97.5361967  75.4703726  73.5778253  96.4598995  74.4553598
  75.3901804  94.7384867  67.1542836  76.2248695  95.1774671  67.3180396
  75.5260933  94.2623520  66.3351081  72.4393310  92.2964601  73.1020323
  72.9147432  92.4892248  72.2939175  71.5158875  92.3523787  72.8563707
  59.3276817  93.4588769  62.6851402  59.0822858  92.5551099  62.8831612
  59.4972731  93.4605919  61.7430880  65.0719589  99.9271721  59.1502080
  64.4993556 100.5461909  58.6972552  65.6452383 100.4771083  59.6842002
  71.1394979  89.1730361  71.3348629  72.0912402  89.2728459  71.3560853
  70.9698429  88.3808630  71.8446713  69.1609358  86.2585945  71.5208030
  68.5659291  86.5390957  70.8254519  68.8759055  86.7479846  72.2924771
  68.2916849 100.2108872  60.2810663  69.2247522 100.1454433  60.4843538
  68.2040062 101.0465138  59.8225195  70.9204866  99.5274742  57.2414610
  70.8418497  99.1934605  58.1350368  71.7414532 100.0196510  57.2406082
  73.6183057  92.3936481  70.4490929  73.5859377  91.4552482  70.6350613
  74.2283680  92.4720518  69.7156754  65.4566388  91.2632534  56.4918133
  66.4025492  91.1338742  56.5606551  65.0780633  90.5247196  56.9687561
  73.7677545  89.1847525  70.4949212  73.2516594  88.4005981  70.3079141
  74.6517494  88.8566241  70.6595731  71.4288272  82.9288540  66.4545025
  71.2313093  82.6203628  67.3388357  72.0387978  83.6550179  66.5842954
  79.4359607  93.4552488  69.5896966  80.1662995  93.1937776  70.1504669
  78.8266552  92.7181210  69.6299033  77.5174904  91.5960351  70.1871417
  76.7908067  91.4616316  69.5787908  77.1022191  91.9037179  70.9928135
  65.3405080  95.3150280  77.9518790  66.2608090  95.4928879  78.1458836
  65.3054663  94.3706326  77.7998489  63.6409305  89.1882511  56.4273018
  62.7340760  88.8915623  56.5035732  63.9185286  88.8912329  55.5607304
  58.3367153  93.2251315  70.5941571  58.5553162  94.1568423  70.6129605
  58.7492926  92.8659289  71.3796375  63.2095018  88.7984521  79.9844320
  63.1091745  89.7478878  79.9156411  62.9916560  88.4702760  79.1120390
  54.4275505  94.1291785  68.8465186  53.7338977  93.7145738  68.3335140
  55.1748496  94.1712322  68.2498605  70.5640726  84.9197972  63.7120220
  69.9839395  85.5782776  63.3298273  70.2976659  84.0975317  63.3007638
  63.0726288  92.2281660  78.8009381  62.5893370  93.0282020  79.0073271
  63.1587227  92.2389604  77.8476825  56.3412248  94.0610039  66.7231201
  56.3182936  94.1597726  65.7713084  56.6512884  94.9075190  67.0448367
  58.9999626  96.1186194  70.8377815  59.9542879  96.0870137  70.7707747
  58.8012149  95.6576818  71.6528041  59.5899008  94.6887310  73.4048613
  60.4091897  95.1831389  73.4283450  59.8635815  93.7719278  73.3766180
  72.6980140  87.1044584  66.4830908  73.4740530  87.5941036  66.7555524
  71.9728274  87.5302638  66.9402777  75.1352699  87.8172203  67.5404848
  75.7297189  87.5767939  66.8298157  75.2079282  87.0979333  68.1678385
  57.3549854 101.6605814  67.8548013  57.2204322 100.9006215  67.2886011
  56.9381917 102.3846714  67.3876802  68.4908817  96.8442737  56.8624588
  69.1944667  97.0492740  57.4782244  67.7671466  97.4119499  57.1273672
  69.3206628  92.5952599  62.9826859  69.2641829  93.0521150  62.1434491
  69.8734970  91.8343283  62.8049701  73.1311434  88.3842330  63.8076978
  72.8748368  87.9838966  64.6385186  72.5064302  89.0986124  63.6827117
  77.4423771  91.1238404  66.3148269  76.8823329  91.1931593  67.0879832
  76.8367275  90.9479388  65.5947766  60.5118980 102.5575131  68.0666456
  60.3951364 103.5020563  67.9645146  59.6911426 102.2548692  68.4552255
  70.3995515  97.2825266  58.9123048  71.2341119  96.8506465  58.7300523
  70.2379858  97.1107280  59.8399943  70.0541407  93.7857380  60.2779388
  69.9990211  93.6201651  59.3367832  69.4287462  94.4933413  60.4341577
  54.8433922  89.0225444  74.1040810  55.4892785  88.5124398  74.5928035
  54.6351073  89.7594126  74.6784235  67.3687314  96.0906292  79.6032951
  68.2378474  96.2646944  79.2419585  66.8894066  96.9100708  79.4808680
  61.5373494 103.2103393  71.2822384  62.4400741 103.2427003  71.5988879
  61.3110864 102.2803844  71.2968720  63.2927096 101.9634379  67.9432463
  62.3422727 101.9636241  67.8296835  63.5959582 101.2167114  67.4268497
  59.1831413  86.1693061  78.2015824  60.0462874  85.8129866  78.4119149
  58.6096824  85.8306956  78.8891228  79.0279790 107.7994918  69.0078225
  79.6658200 107.6801665  68.3041565  78.9100633 108.7475762  69.0666177
  75.8369496 107.7522346  68.9439750  75.4988008 107.6363410  68.0560285
  76.7059264 107.3513511  68.9240756  71.6956312 109.6057822  64.9336641
  71.1321177 109.5147759  64.1652929  71.5808707 108.7857727  65.4139133
  76.3189279 108.9057197  74.9025955  76.3077920 108.5109996  74.0306459
  76.4809919 108.1723270  75.4959727  69.2420744 111.1009014  67.7720861
  70.0342036 110.7599838  67.3567161  69.4817394 111.2103989  68.6923015
  77.2755871 113.2728790  60.2451106  76.6243850 113.8582870  59.8585120
  78.0700233 113.8034985  60.3046143  71.2011498 110.3617927  60.6438240
  71.9742374 109.8146914  60.5051116  71.5536897 111.2262176  60.8552702
  73.0396540 111.6894309  73.8505139  72.7486406 112.5939940  73.7351806
  73.6753525 111.7310837  74.5649209  73.9652747 109.0671158  70.4406499
  74.5616319 108.8427180  69.7263462  74.0227719 108.3255903  71.0431947
  73.5377775 106.5210593  58.2756690  73.7903296 105.9992114  57.5140153
  72.6002335 106.3576739  58.3783374  78.5821058 105.5246371  66.0831433
  79.3684148 105.1065795  65.7321850  78.8459763 106.4292464  66.2513082
  78.7531136 110.9619222  60.7820090  78.1176969 111.0353848  61.4940995
  78.4228542 111.5512821  60.1039169  83.9829485 105.4621605  66.9864412
  84.7154657 104.8920821  67.2202241  83.2268841 105.0743205  67.4270917
  73.2574064 108.4238699  60.4781065  73.1410322 107.7483602  61.1462149
  73.3676324 107.9371073  59.6613218  75.6005605 107.8848846  64.1827754
  75.2363812 107.3579467  64.8940676  76.4572721 107.4947315  64.0094240
  81.5054906  99.1743179  71.4459020  81.1738231 100.0438590  71.2220235
  80.9100519  98.8579463  72.1253051  75.2411092 102.9138746  59.1789103
  75.4085494 103.7818982  59.5459574  75.0508261 103.0766028  58.2550392
  77.9986425 111.3755725  70.8454933  77.6987148 112.2780764  70.7370740
  77.6537485 111.1087908  71.6976086  71.4498907 107.8269522  66.8791638
  70.5249403 107.6945736  67.0869329  71.6983320 108.6063741  67.3761580
  81.3983569 103.8938265  68.5252370  80.4900446 103.8253673  68.2311131
  81.3471165 104.3710210  69.3534196  75.2200313 105.3696403  60.1635770
  75.0999938 105.8153454  61.0021250  74.5252901 105.7181721  59.6049308
  68.8107718 107.4702795  67.7135427  68.9400099 107.7237274  68.6274838
  68.1305169 108.0630503  67.3940082  75.4724435 105.3127910  76.4687268
  74.6957769 105.8721831  76.4590132  76.1114998 105.7984693  76.9902138
  83.2645216 102.0954703  70.3030244  82.6219596 102.3887236  69.6570039
  82.7600144 101.9807624  71.1083441  80.9185379 105.8417876  60.9916104
  81.8303235 106.0745263  60.8163801  80.4095026 106.4254921  60.4291182
  73.7270807 108.1213364  76.0305235  74.4685492 108.6598408  75.7540058
  73.0207793 108.7479653  76.1876786  79.2026147 110.2642504  74.6277396
  79.6109503 109.8224915  73.8832029  78.4803408 109.6895132  74.8811589
  75.5557217 105.2015111  72.0010953  76.4018412 105.6254525  72.1445602
  75.4955855 104.5448735  72.6949516  79.5254961 110.8243695  68.3829685
  78.8963824 110.9889409  67.6805753  79.1380624 111.2385305  69.1540649
  78.7056662 102.8619479  73.6592127  78.4617594 103.6161540  73.1226402
  78.9816593 103.2404827  74.4939374  80.6595125 109.4058092  72.3369392
  80.8712020 110.0489852  71.6603773  80.6124873 108.5720408  71.8691322
  78.2621354 102.0175912  69.2405964  77.4005833 102.3157166  69.5322702
  78.2883789 102.2346311  68.3086997  75.0782923 110.5618103  65.6479770
  75.5421269 110.8405806  64.8584393  74.8139721 109.6601548  65.4652861
  71.9707004 110.1089585  68.5859533  72.5408361 110.5376853  67.9477018
  72.5615116 109.8272169  69.2843719  74.0151809 106.6841255  62.4569335
  74.7175853 107.1362299  62.9243262  73.6832438 106.0425074  63.0849228
  72.4632171 105.2753012  76.8320545  71.8330832 105.9569293  77.0655942
  72.3568259 105.1636094  75.8873683  67.7577143 104.9424808  67.7586469
  66.9676197 105.1982337  67.2826579  68.2488391 105.7573146  67.8638509
  69.7091889 105.3069387  64.7169946  68.9123052 105.4188082  65.2353441
  69.4817481 105.6456040  63.8510836  75.5397556 111.8314091  72.6652460
  75.6041989 112.2934498  73.5010632  74.8308480 111.2011455  72.7934770
  66.0414846 105.1955299  70.1901460  66.2922885 106.0802308  70.4559036
  66.5774395 105.0159900  69.4176551  75.2545574 113.4982198  62.5331441
  75.1191249 114.3433734  62.9616288  75.7955387 113.7001476  61.7697374
  71.7412914  99.5773778  79.1945796  71.3479859  99.0239976  79.8693440
  72.5579054  99.8884356  79.5852313  68.7074971 111.0157636  63.1059366
  69.2199492 111.8100886  63.2564930  69.3597684 110.3183927  63.0392967
  70.5169856 114.1323392  65.1882119  70.6936484 115.0541357  65.0003103
  71.3126690 113.8181812  65.6176499  74.6580875 100.9931657  76.7866052
  75.3990588 101.5938810  76.7070515  74.8898797 100.2509295  76.2284095
  69.8022213 106.1788024  75.0644282  69.6875728 105.2773281  75.3651381
  68.9466730 106.4251721  74.7129099  71.6401172 115.6501566  71.1892461
  72.1908597 115.5218629  70.4169455  70.8012647 115.9496455  70.8387354
  75.4368343 111.9152694  75.5336692  75.9696679 111.1540982  75.3036000
  74.9082424 111.6226346  76.2760847  78.6038038  97.0212760  71.0630334
  78.2602307  97.9114402  70.9869445  78.9717000  96.8314418  70.1999919
  66.6723888 109.3446290  63.8818936  67.5099110 109.7543299  63.6652644
  66.8502156 108.4045733  63.8519130  78.5688320 107.0121371  59.5702769
  78.0534944 107.7825976  59.8091157  78.2965629 106.3386507  60.1935831
  76.1535431 101.8571072  64.6288007  75.2977028 101.4677922  64.4493646
  76.5662383 101.9363033  63.7687793  77.6834578  99.3917415  69.0279567
  77.1799374  99.3547550  68.2147373  77.9765185 100.3010158  69.0876224
  73.9277464  99.4756145  68.0345749  74.7930461  99.2798953  67.6751638
  73.9954973  99.2466497  68.9615106  78.3574623 104.8848463  61.3962550
  78.0524759 105.1994612  62.2472693  79.3105066 104.9629883  61.4389883
  76.8021055 111.0438686  63.0455504  76.2742417 110.3091446  62.7328742
  76.3008558 111.8213363  62.7995473  81.7813901 109.2387707  68.1622551
  81.1237576 109.9286968  68.2502679  82.5854301 109.6284139  68.5056537
  71.5339783 101.7058353  65.4062116  72.1083535 101.4833534  64.6735309
  72.1210765 101.7747047  66.1590717  80.5919360 107.5932080  66.2126492
  81.1051242 108.2262071  66.7148202  81.2420584 106.9933275  65.8469852
  71.8609370 103.7362814  59.4258001  71.0246682 104.0737500  59.7467276
  71.7214140 103.6011794  58.4885138  73.8362451  98.5799602  64.1337185
  73.1826863  98.2648619  63.5093800  73.7942925  97.9575342  64.8597008
  74.9473656 108.8618897  56.0490477  74.0400717 108.6308150  56.2481626
  75.4444687 108.0656516  56.2364459  77.0700191 105.0681535  68.4584833
  76.1522752 105.2896482  68.3006521  77.4860335 105.1427846  67.5996540
  77.8535239 106.4672951  63.5887513  78.6007058 106.9794348  63.2794635
  78.1226828 106.1457004  64.4491907  76.1261889 108.9631492  60.5714467
  75.2173108 108.6790524  60.6686937  76.1556973 109.3830570  59.7117774
  80.3014076 103.5030067  65.5706302  79.5636833 102.9907453  65.9016545
  80.5540849 103.0630449  64.7589579  80.4025703  96.2806319  66.1648072
  80.7084580  95.4203683  65.8773987  81.1278308  96.8723939  65.9647066
  66.6950059 106.6837006  64.5529670  66.4974459 106.0906366  63.8280736
  66.1396723 106.3789216  65.2705608  74.6746783 106.5760112  66.6724263
  74.7295393 105.6233949  66.5966739  73.8637985 106.7319551  67.1565561
  75.8237977 110.5040235  57.9102546  75.3857407 109.7876094  57.4508183
  76.5648418 110.7316350  57.3487637  72.6139143 105.1937172  64.4314642
  71.8007008 105.4931342  64.8379834  73.1098137 104.7992861  65.1489124
  74.7647721 115.1894929  66.3648906  74.7223900 115.4155775  65.4357438
  75.6810420 114.9558303  66.5134707  78.2113355 105.6578996  73.2629536
  78.5662742 105.8850470  74.1224001  78.8585486 105.9897373  72.6406791
  83.9411092 108.7797432  63.9678865  83.8028990 108.9699028  63.0400054
  83.5847310 109.5416815  64.4246916  72.1053218 102.7655527  70.0475877
  72.7452597 102.6244287  69.3498840  71.2730748 102.4790041  69.6714479
  72.8813522 112.0657958  66.1610869  73.6754120 111.5708278  65.9593444
  72.1705214 111.5375821  65.7978575  69.1896285 106.2101040  62.2370622
  68.2593873 106.1485495  62.4540584  69.2853757 105.6876992  61.4407263
  69.1081834 102.7355852  64.8248863  69.3688651 103.6501186  64.7158024
  69.9299006 102.2680295  64.9745476  70.5806759 104.1493610  71.9947688
  71.2529813 103.9410972  71.3460337  69.7536546 103.9515696  71.5552920
  76.4832331 100.7755551  74.0113349  75.8360246 101.4745500  73.9177825
  77.2533347 101.2091694  74.3789597  76.6596466 108.6136315  72.0710168
  77.5888526 108.7647475  71.8979136  76.2387496 108.7020336  71.2158815
  75.4584798 112.6386980  69.8408706  75.3195883 112.2705764  70.7134644
  74.6699394 113.1534619  69.6692664  77.0090013 112.0168583  67.2297544
  76.6739845 111.9769352  68.1255194  76.5093958 111.3513298  66.7567954
  70.9834257 107.4236213  72.7550125  70.8454055 106.6916451  73.3561664
  71.8939180 107.3345113  72.4734313  79.9449204 109.3624617  57.5034604
  79.3278375 108.6371445  57.4067656  79.4765693 110.1233977  57.1601678
  73.6116557 107.1356172  72.2433805  74.3216176 106.4949364  72.2020423
  73.5685866 107.3869067  73.1659985  72.3245491 104.1221390  74.0629444
  71.7882848 103.6712128  74.7151041  71.7362200 104.2567299  73.3199909
  71.7347750 103.5810041  56.6255908  70.8577217 103.4598842  56.2618154
  72.2105503 102.7896119  56.3734796  63.2549890 108.3687201  66.7197415
  63.9420930 108.0548931  66.1318430  63.0998019 109.2728566  66.4464666
  68.0584613 103.2577397  71.1482439  67.9742801 102.6503067  70.4132849
  67.2367319 103.7486416  71.1491935  78.2308326 101.7430961  66.5152634
  78.7277026 100.9900923  66.1953704  77.4595308 101.7795278  65.9495843
  79.3138107 110.5002648  64.0891057  78.3794386 110.6204111  63.9195761
  79.4914776 109.5975115  63.8251067  74.8143295 103.8848344  66.2424318
  74.4441083 103.3319384  66.9305224  75.3102388 103.2806477  65.6899318
  82.7010658 106.3419967  64.6241091  83.1671111 107.1747959  64.5501394
  83.1518159 105.8764949  65.3286350  72.6432494 114.3445839  73.3379336
  73.3441953 114.9782322  73.4908730  72.1727609 114.6860571  72.5774976
  80.6727321  98.7100554  68.6631993  79.7590401  98.9404781  68.8314200
  81.1020423  98.7938999  69.5146025  80.4433780 106.8990446  71.1631887
  79.7905230 107.1466354  70.5084339  80.8214160 106.0854585  70.8294364
  76.4921353 107.6410258  77.6497924  75.8161990 107.5404387  78.3200299
  77.3148987 107.4849471  78.1133921  68.2400212 113.8782194  70.2710439
  68.8253649 113.1325882  70.4038343  68.0425050 114.1886151  71.1547103
  62.8317867 106.4487794  68.9914882  62.8701966 105.9151385  69.7852000
  62.3258159 105.9223000  68.3725859  70.2108629 101.2952335  72.4877424
  70.2749955 102.1567166  72.0754822  70.1475749 100.6826336  71.7549783
  69.6860901 103.3675467  76.1350459  70.3132940 102.9852545  76.7487983
  68.8288820 103.1489669  76.5006151  66.4626444 105.1751896  62.0668813
  66.7579885 104.2662575  62.0135867  65.5614480 105.1539636  61.7449816
  69.9920691 103.2507893  68.0496362  69.2707277 103.8643861  67.9103835
  70.7813947 103.7865658  67.9713008  72.7947005 100.5862319  74.3237014
  73.3181406 100.8324616  75.0863323  72.5759338 101.4182354  73.9040151
  68.1914286 102.8565994  62.1908139  67.8626992 101.9763373  62.0083245
  68.5453656 102.8013663  63.0784528  71.3056109 103.1438964  62.5583616
  71.6452181 103.6724885  61.8362225  71.7528229 103.4819370  63.3342183
  73.9999550 101.5276015  72.0086684  73.6596370 100.7283828  72.4107364
  73.2938556 101.8277725  71.4363518  74.6516022  98.6125327  70.4614007
  75.4742091  98.1385805  70.3392898  74.8954085  99.3915811  70.9612694
  73.2924256 101.6413585  60.7576909  74.0132619 102.0194838  60.2540626
  72.6689560 102.3602462  60.8611887  77.4355379 102.3458734  61.6935241
  77.6518993 103.2283372  61.3924070  76.9549446 101.9544948  60.9640883
  72.1754600 105.3044448  68.2705986  72.0299181 105.6184751  69.1630268
  71.6979804 105.9229348  67.7176885  74.0350983 102.2946996  68.3186876
  74.0212552 101.3988089  67.9819174  74.7523411 102.3017659  68.9525162
  75.8877114 102.7284336  70.3640003  75.6294892 103.6501406  70.3624333
  75.3562154 102.3314770  71.0540467  66.6500262 107.8449792  71.2093647
  66.1053731 108.6209600  71.3413922  67.5279612 108.1920597  71.0512769
  73.4387879 101.1761376  63.5874446  73.5603790 100.2478022  63.7865333
  73.1489921 101.1900062  62.6752761  76.3079069  98.8616286  66.7241166
  76.3300766  98.9255619  65.7693145  76.7247128  98.0220795  66.9181672
  67.4366284 106.9719688  74.1023804  66.6948020 107.1202324  74.6888434
  67.1159029 107.2327954  73.2390553  67.8822898 114.8585117  66.1334199
  68.7080918 114.5588889  65.7532842  67.5316950 114.0892739  66.5823987
  72.8504431 114.2111585  68.2031872  72.2284440 113.5482290  67.9034100
  73.5209298 114.2372717  67.5205520  66.0831503 112.7771444  67.0923132
  65.2463411 112.3493618  66.9107134  66.0555148 112.9703887  68.0293923
  72.9228959 102.6893373  77.7964378  72.9717114 103.5655496  77.4142148
  73.4651473 102.1470766  77.2236022  72.4117938 112.7615509  61.6790333
  72.5606058 113.4450973  61.0257006  73.2184381 112.7420599  62.1939789
  80.8185442 106.0657891  75.7057551  81.7195304 105.9264356  75.4141548
  80.8933416 106.2312346  76.6455728  75.1528247 103.4424746  74.5510737
  74.2831556 103.7358312  74.2793326  75.3887727 104.0265191  75.2718001
  83.2787064 107.6256519  73.1020323  83.7541186 107.8184165  72.2939175
  82.3552630 107.6815705  72.8563707  70.1670571 108.7880686  62.6851402
  69.9216613 107.8843016  62.8831612  70.3366486 108.7897837  61.7430880
  77.8567281  99.6604363  72.0676157  78.3749225 100.3965390  71.7422646
  77.5022414  99.9668356  72.9022916  69.4366219 104.5209044  60.1837563
  68.7435463 104.5953399  59.5277599  69.1917970 103.7569387  60.7059080
  78.1079875  96.0804645  67.5877054  78.3881629  95.4127834  68.2137480
  78.8930482  96.2733741  67.0751718  81.9788733 104.5022279  71.3348629
  82.9306156 104.6020377  71.3560853  81.8092184 103.7100548  71.8446713
  80.0003113 101.5877862  71.5208030  79.4053045 101.8682875  70.8254519
  79.7152810 102.0771763  72.2924771  84.4576811 107.7228399  70.4490929
  84.4253131 106.7844400  70.6350613  85.0677435 107.8012436  69.7156754
  76.2960142 106.5924452  56.4918133  77.2419247 106.4630660  56.5606551
  75.9174387 105.8539114  56.9687561  84.6071300 104.5139442  70.4949212
  84.0910348 103.7297899  70.3079141  85.4911248 104.1858159  70.6595731
  82.2682027  98.2580458  66.4545025  82.0706848  97.9495546  67.3388357
  82.8781732  98.9842097  66.5842954  76.1798835 110.6442198  77.9518790
  77.1001844 110.8220797  78.1458836  76.1448418 109.6998243  77.7998489
  74.4803059 104.5174428  56.4273018  73.5734515 104.2207541  56.5035732
  74.7579040 104.2204246  55.5607304  65.3981000 105.8380792  66.8772064
  65.0783784 104.9846100  66.5846438  64.8514428 106.0529370  67.6330032
  69.1760907 108.5543233  70.5941571  69.3946917 109.4860340  70.6129605
  69.5886681 108.1951207  71.3796375  76.0965125  99.0611318  62.5817259
  75.2865853  98.7158403  62.9572505  76.7849542  98.7518862  63.1704871
  78.0255673  98.1389365  64.2041556  78.5786712  98.5584818  64.8631579
  78.2625760  97.2125113  64.2464512  74.0488772 104.1276438  79.9844320
  73.9485499 105.0770795  79.9156411  73.8310315 103.7994677  79.1120390
  73.2501844 101.3761363  56.5684997  74.1121008 101.7016262  56.8280815
  73.4352188 100.5892859  56.0558063  65.2669260 109.4583703  68.8465186
  64.5732731 109.0437656  68.3335140  66.0142251 109.5004240  68.2498605
  81.4034480 100.2489890  63.7120220  80.8233149 100.9074694  63.3298273
  81.1370413  99.4267234  63.3007638  79.8538047  99.6494948  65.9141540
  80.3537825  99.7611482  65.1055859  80.4973655  99.3456000  66.5542349
  73.9120043 107.5573577  78.8009381  73.4287124 108.3573937  79.0073271
  73.9980982 107.5681522  77.8476825  67.1806002 109.3901957  66.7231201
  67.1576690 109.4889644  65.7713084  67.4906639 110.2367108  67.0448367
  69.8393380 111.4478112  70.8377815  70.7936634 111.4162054  70.7707747
  69.6405904 110.9868736  71.6528041  70.4292762 110.0179228  73.4048613
  71.2485651 110.5123307  73.4283450  70.7029570 109.1011196  73.3766180
  80.1859358 102.4089980  62.7676568  79.2985213 102.6939631  62.5496763
  80.6013347 102.2483744  61.9203845  83.5373894 102.4336501  66.4830908
  84.3134285 102.9232954  66.7555524  82.8122029 102.8594555  66.9402777
  85.9746453 103.1464120  67.5404848  86.5690944 102.9059856  66.8298157
  86.0473037 102.4271251  68.1678385  79.3302572 112.1734655  56.8624588
  80.0338422 112.3784657  57.4782244  78.6065221 112.7411417  57.1273672
  80.1600382 107.9244516  62.9826859  80.1035583 108.3813068  62.1434491
  80.7128725 107.1635201  62.8049701  83.9705188 103.7134248  63.8076978
  83.7142122 103.3130884  64.6385186  83.3458056 104.4278042  63.6827117
  88.2817526 106.4530321  66.3148269  87.7217084 106.5223511  67.0879832
  87.6761029 106.2771306  65.5947766  80.8935161 109.1149297  60.2779388
  80.8383965 108.9493569  59.3367832  80.2681217 109.8225330  60.4341577
  65.6827676 104.3517362  74.1040810  66.3286540 103.8416316  74.5928035
  65.4744827 105.0886043  74.6784235  74.2031287  98.6157406  59.8564706
  74.1909957  99.5599246  60.0132977  75.0954709  98.4327552  59.5624167
  78.0183406  95.2100183  64.1110643  77.2515802  94.6558670  64.2567325
  78.4294111  95.2822052  64.9724795  70.0225167 101.4984979  78.2015824
  70.8856629 101.1421784  78.4119149  69.4490578 101.1598874  78.8891228
  24.8311019   8.1597452  55.7323532  25.4689429   8.0404199  55.0286872
  24.7131862   9.1078296  55.7911484  21.6400725   8.1124880  55.6685057
  21.3019236   7.9965945  54.7805591  22.5090493   7.7116045  55.6486063
  17.4987541   9.9660356  51.6581948  16.9352406   9.8750293  50.8898235
  17.3839936   9.1460261  52.1384440  22.1220508   9.2659732  61.6271262
  22.1109149   8.8712530  60.7551766  22.2841147   8.5325804  62.2205034
  15.0451973  11.4611548  54.4966168  15.8373264  11.1202373  54.0812467
  15.2848623  11.5706523  55.4168321  23.0787099  13.6331324  46.9696412
  22.4275079  14.2185404  46.5830426  23.8731462  14.1637519  47.0291450
  17.0042726  10.7220461  47.3683547  17.7773602  10.1749448  47.2296423
  17.3568125  11.5864710  47.5798008  18.8427769  12.0496843  60.5750446
  18.5517635  12.9542474  60.4597112  19.4784753  12.0913371  61.2894516
  19.7683976   9.4273692  57.1651806  20.3647548   9.2029714  56.4508769
  19.8258947   8.6858437  57.7677254  19.3409004   6.8813127  45.0001997
  19.5934525   6.3594649  44.2385460  18.4033563   6.7179273  45.1028680
  24.3852287   5.8848906  52.8076740  25.1715376   5.4668329  52.4567157
  24.6490991   6.7894998  52.9758388  24.5562364  11.3221756  47.5065397
  23.9208197  11.3956382  48.2186301  24.2259771  11.9115355  46.8284476
  29.7860714   5.8224139  53.7109718  30.5185886   5.2523356  53.9447548
  29.0300070   5.4345739  54.1516224  19.0605293   8.7841233  47.2026372
  18.9441551   8.1086137  47.8707456  19.1707553   8.2973607  46.3858525
  21.4036834   8.2451380  50.9073061  21.0395041   7.7182001  51.6185982
  22.2603950   7.8549849  50.7339546  27.3086135  -0.4654287  58.1704327
  26.9769459   0.4041124  57.9465542  26.7131748  -0.7818003  58.8498357
  21.0442321   3.2741280  45.9034409  21.2116723   4.1421516  46.2704880
  20.8539490   3.4368562  44.9795699  23.8017654  11.7358259  57.5700240
  23.5018377  12.6383298  57.4616047  23.4568714  11.4690442  58.4221393
  17.2530136   8.1872056  53.6036944  16.3280632   8.0548270  53.8114636
  17.5014549   8.9666275  54.1006887  27.2014798   4.2540799  55.2497677
  26.2931675   4.1856208  54.9556438  27.1502394   4.7312744  56.0779503
  21.0231542   5.7298938  46.8881076  20.9031167   6.1755988  47.7266556
  20.3284130   6.0784255  46.3294614  14.6138947   7.8305329  54.4380733
  14.7431328   8.0839808  55.3520145  13.9336398   8.4233037  54.1185388
  18.7838434  18.5002579  50.5371207  18.7062464  19.4510404  50.6159688
  18.1800078  18.1548452  51.1946134  21.2755664   5.6730445  63.1932574
  20.4988998   6.2324365  63.1835439  21.9146227   6.1587228  63.7147444
  29.0676444   2.4557238  57.0275551  28.4250825   2.7489771  56.3815346
  28.5631373   2.3410158  57.8328748  26.7216608   6.2020411  47.7161410
  27.6334464   6.4347797  47.5409108  26.2126255   6.7857455  47.1536489
  19.5302036   8.4815898  62.7550541  20.2716720   9.0200942  62.4785365
  18.8239021   9.1082187  62.9122093  25.0057376  10.6245039  61.3522703
  25.4140732  10.1827449  60.6077335  24.2834637  10.0497666  61.6056896
  21.3588446   5.5617645  58.7256260  22.2049641   5.9857059  58.8690909
  21.2987083   4.9051270  59.4194823  25.3286190  11.1846229  55.1074992
  24.6995053  11.3491943  54.4051060  24.9411852  11.5987839  55.8785956
  29.2075422  12.1200667  52.4619355  28.5226460  12.4999568  51.9116389
  29.2919271  12.7295994  53.1951303  24.5087891   3.2222014  60.3837433
  24.2648823   3.9764074  59.8471709  24.7847822   3.6007361  61.2184680
  26.4626354   9.7660626  59.0614699  26.6743249  10.4092386  58.3849080
  26.4156102   8.9322943  58.5936629  24.0652583   2.3778447  55.9651271
  23.2037062   2.6759700  56.2568009  24.0915017   2.5948846  55.0332304
  20.8814152  10.9220637  52.3725077  21.3452498  11.2008340  51.5829699
  20.6170950  10.0204082  52.1898167  17.7738233  10.4692119  55.3104840
  18.3439590  10.8979387  54.6722325  18.3646345  10.1874703  56.0089026
  19.8183038   7.0443790  49.1814642  20.5207082   7.4964833  49.6488568
  19.4863667   6.4027608  49.8094535  18.2663400   5.6355546  63.5565851
  17.6362060   6.3171827  63.7901248  18.1599488   5.5238628  62.6118990
  27.5772182  12.6432581  57.2337056  28.3989625  12.2412769  56.9519738
  27.5734585  12.5400816  58.1853172  21.3428785  12.1916625  59.3897767
  21.4073218  12.6537032  60.2255939  20.6339709  11.5613990  59.5180077
  35.6678175   8.9871330  53.5822028  34.9141883   8.4178728  53.4266032
  35.8025716   8.9533994  54.5292663  21.0576803  13.8584732  49.2576747
  20.9222478  14.7036268  49.6861595  21.5986615  14.0604010  48.4942681
  14.5106200  11.3760170  49.8304672  15.0230721  12.1703421  49.9810237
  15.1628913  10.6786461  49.7638274  16.3201085  14.4925927  51.9127425
  16.4967713  15.4143891  51.7248409  17.1157918  14.1784346  52.3421805
  15.6053441   6.5390558  61.7889589  15.4906957   5.6375816  62.0896688
  14.7497959   6.7854255  61.4374405  22.6845279  14.4808299  63.3877089
  22.2409133  13.6944677  63.0697994  23.3462493  14.6687449  62.7220980
  17.4432400  16.0104100  57.9137768  17.9939826  15.8821164  57.1414762
  16.6043876  16.3098989  57.5632661  24.7826517  14.7611099  61.4158491
  24.7644993  15.5819980  60.9238760  25.7046437  14.6365174  61.6408632
  21.2399571  12.2755228  62.2581999  21.7727908  11.5143516  62.0281307
  20.7113653  11.9828880  63.0006153  12.4755117   9.7048825  50.6064243
  13.3130339  10.1145833  50.3897951  12.6533385   8.7648267  50.5764437
  24.3719549   7.3723905  46.2948076  23.8566173   8.1428510  46.5336463
  24.0996858   6.6989041  46.9181137  21.9566660   2.2173606  51.3533314
  21.1008256   1.8280456  51.1738953  22.3693612   2.2965567  50.4933100
  29.3453823  10.1256260  48.2301249  28.5683266   9.7867419  47.7856411
  30.0245304  10.1308883  47.5556214  24.1605852   5.2450997  48.1207857
  23.8555988   5.5597147  48.9718000  25.1136294   5.3232417  48.1635190
  22.6052284  11.4041221  49.7700811  22.0773646  10.6693980  49.4574048
  22.1039787  12.1815897  49.5240779  27.5845130   9.5990241  54.8867857
  26.9268805  10.2889503  54.9747986  28.3885529   9.9886673  55.2301844
  26.3950589   7.9534614  52.9371799  26.9082471   8.5864606  53.4393509
  27.0451813   7.3535809  52.5715159  20.7504884   9.2221431  42.7735784
  19.8431946   8.9910684  42.9726933  21.2475916   8.4259050  42.9609765
  23.6572963  17.9318938  45.6932470  22.9834662  18.2350635  46.3017428
  24.0438785  18.7348018  45.3437927  22.8731420   5.4284069  55.1830139
  21.9553981   5.6499016  55.0251828  23.2891563   5.5030380  54.3241847
  23.6566468   6.8275485  50.3132820  24.4038287   7.3396882  50.0039942
  23.9258057   6.5059538  51.1737213  21.9293118   9.3234026  47.2959774
  21.0204337   9.0393059  47.3932244  21.9588202   9.7433104  46.4363081
  27.1612385  12.9340615  51.0650942  26.7074712  12.0931525  51.1216132
  26.5306352  13.5702014  51.4025722  26.1045305   3.8632601  52.2951609
  25.3668062   3.3509988  52.6261852  26.3572078   3.4232983  51.4834886
  25.6045324  14.7717112  52.0000760  25.8968299  15.3322169  51.2813125
  26.1143945  15.0645673  52.7553919  20.4778012   6.9362646  53.3969569
  20.5326622   5.9836483  53.3212046  19.6669214   7.0922085  53.8810868
  21.6269206  10.8642769  44.6347853  21.1888635  10.1478628  44.1753490
  22.3679646  11.0918884  44.0732944  18.4170372   5.5539706  51.1559948
  17.6038237   5.8533877  51.5625140  18.9129366   5.1595395  51.8734431
  20.5678950  15.5497463  53.0894213  20.5255128  15.7758309  52.1602745
  21.4841648  15.3160838  53.2380014  24.0144583   6.0181531  59.9874842
  24.3693971   6.2453004  60.8469308  24.6616715   6.3499907  59.3652097
  29.7442320   9.1399966  50.6924171  29.6060219   9.3301562  49.7645360
  29.3878539   9.9019349  51.1492222  29.7711700  11.2076493  55.7035443
  30.2048207  11.1151783  56.5518497  30.4843281  11.1833994  55.0655459
  18.6844750  12.4260492  52.8856176  19.4785349  11.9310812  52.6838751
  17.9736443  11.8978355  52.5223881  23.5039595  14.8078588  57.2368543
  23.5576617  15.3769524  58.0046259  22.6354376  14.9780473  56.8722580
  30.6327250  11.2500194  58.2368328  30.8263140  12.1546005  58.4827603
  30.5327868  10.7907613  59.0706913  22.2863560   1.1358085  60.7358655
  21.6391475   1.8348034  60.6423132  23.0564576   1.5694229  61.1034904
  25.6942358  11.4006937  63.8109209  25.5427865  11.1717489  62.8939292
  25.6847038  12.3577538  63.8240554  22.4627695   8.9738850  58.7955475
  23.3919755   9.1250009  58.6224442  22.0418725   9.0622870  57.9404122
  21.2616026  12.9989514  56.5654013  21.1227112  12.6308298  57.4379951
  20.4730623  13.5137153  56.3937971  21.8564178  18.0998611  47.9079549
  22.0315934  17.6286654  48.7225172  21.1696966  18.7264377  48.1360810
  22.8121242  12.3771117  53.9542851  22.4771074  12.3371887  54.8500500
  22.3125187  11.7115833  53.4813261  16.7865485   7.7838747  59.4795432
  16.6485283   7.0518986  60.0806971  17.6970409   7.6947647  59.1979619
  25.7480433   9.7227151  44.2279910  25.1309604   8.9973979  44.1312963
  25.2796922  10.4836511  43.8846984  19.4147786   7.4958706  58.9679111
  20.1247405   6.8551898  58.9265730  19.3717094   7.7471601  59.8905292
  27.4034565  14.4326059  61.8885691  27.3447111  13.7485280  61.2216274
  27.8054083  15.1745049  61.4366317  18.1276720   4.4823924  60.7874751
  17.5914077   4.0314662  61.4396347  17.5393429   4.6169833  60.0445215
  16.4225264  21.2487973  54.6819409  16.6621862  21.8806497  55.3598428
  15.5794460  20.8976013  54.9684769  27.4051972  12.3965643  60.1199670
  26.5178751  12.0591565  60.2426069  27.9750523  11.6648675  60.3568436
  20.9353126  17.0567096  57.0860913  20.8623297  17.8622067  57.5980218
  20.4930519  17.2559062  56.2608935  20.7242905  16.2938866  50.5963735
  19.9410427  16.8360546  50.6901959  21.4235650  16.8112845  50.9957976
  24.0339555   2.1033495  53.2397940  24.5308255   1.3503458  52.9199011
  23.2626537   2.1397812  52.6741150  31.8869313   7.8073861  54.8816232
  31.8759189   8.6898576  54.5110165  31.0186692   7.4545412  54.6870769
  23.3951809  16.9553930  59.2419072  24.1079781  17.5901395  59.1694974
  22.9041838  17.0517796  58.4259074  25.1169336  10.8605182  50.8136364
  24.1825615  10.9806645  50.6441068  25.2946004   9.9577649  50.5496374
  20.6174524   4.2450878  52.9669625  20.2472312   3.6921919  53.6550531
  21.1133616   3.6409012  52.4144625  28.5041887   6.7022502  51.3486398
  28.9702339   7.5350493  51.2746701  28.9549388   6.2367483  52.0531656
  18.4463723  14.7048373  60.0624643  19.1473182  15.3384856  60.2154037
  17.9758838  15.0463105  59.3020282  26.5718118  13.0466323  48.3472550
  26.8477962  12.9322918  49.2566424  25.7022617  12.6483808  48.3084723
  26.4758550  -0.9296911  55.3877299  25.5621630  -0.6992684  55.5559506
  26.9051651  -0.8458467  56.2391332  26.2465009   7.2592981  57.8877193
  25.5936459   7.5068888  57.2329646  26.6245388   6.4457119  57.5539671
  23.2072182  17.2952674  51.9905364  23.3894577  16.4774330  52.4533116
  24.0305168  17.5120366  51.5530254  23.5414348  16.2220859  49.2520412
  24.0702114  15.7113314  48.6390574  23.8042567  15.9063389  50.1165945
  22.2952582   8.0012792  64.3743230  21.6193219   7.9006921  65.0445606
  23.1180215   7.8452005  64.8379228  14.0431441  14.2384728  56.9955746
  14.6284877  13.4928416  57.1283650  13.8456279  14.5488685  57.8792410
  16.8970096  17.2735976  52.0118188  16.2280471  17.7582103  51.5282228
  16.7582966  17.5205196  52.9261567  21.0375364  19.3079719  58.6100846
  21.5893672  19.4711341  59.3749932  21.3781558  19.8984157  57.9380871
  25.8886239  14.1340977  64.4649501  26.4326143  14.7470935  63.9704456
  25.3073084  14.6920555  64.9816514  24.1743752  17.2561695  55.5964529
  24.0494891  16.4551435  55.0875474  24.8322843  17.7507888  55.1078498
  26.2378660  15.0570715  57.2244079  25.2908996  14.9376066  57.1522405
  26.5861433  14.1693213  57.3070340  23.2425093  14.8523431  53.4248431
  23.0950056  13.9240138  53.6056001  24.0678587  14.8743522  52.9405506
  26.8459215  15.6751990  54.5113304  27.7705763  15.4694851  54.3737755
  26.6774519  15.4268391  55.4202645  23.2386608   2.7061269  48.4180548
  23.4550222   3.5885907  48.1169376  22.7580675   2.3147482  47.6886190
  17.9785829   5.6646982  54.9951293  17.8330410   5.9787285  55.8875574
  17.5011033   6.2831882  54.4422191  21.6908343   3.0886870  57.0885310
  21.4326121   4.0103941  57.0869640  21.1593383   2.6917305  57.7785774
  26.6354531  16.1937657  49.8675395  26.8091409  15.6284080  49.1149247
  27.1283423  16.9938552  49.6854885  12.4531491   8.2052326  57.9338954
  11.9084959   8.9812134  58.0659228  13.3310841   8.5523131  57.7758075
  32.4893923   8.9574080  51.4865695  32.9325069   8.2081405  51.0884818
  31.6120433   8.9484216  51.1039427  27.6229704  15.5104422  46.9672293
  28.3180609  16.1311114  47.1859608  27.9652854  14.6599773  47.2424671
  29.5221127  12.9604127  48.4959624  30.0472451  13.2991400  47.7708944
  29.4343480  12.0251142  48.3122759  21.1841176  16.8738201  60.6249501
  21.4928302  16.6287348  61.4972200  21.9816658  17.0784839  60.1368371
  21.2061788  19.0276110  52.8554877  20.7666778  18.5352489  53.5487734
  21.9569905  18.4849078  52.6146953  13.6854127  15.2187651  52.8579505
  14.5112147  14.9191423  52.4778149  13.3348179  14.4495274  53.3069294
  18.6535660  14.5714119  54.9277179  18.0315669  13.9084825  54.6279407
  19.3240527  14.5975251  54.2450827  11.8862732  13.1373978  53.8168439
  11.0494640  12.7096152  53.6352440  11.8586377  13.3306421  54.7539230
  29.2115033  13.5937031  63.8010822  28.4210577  13.5761170  63.2615321
  28.9748388  14.1325324  64.5559859  29.3312908  10.4429497  61.1143551
  29.3810913  10.2779505  62.0559073  29.2226832   9.5756756  60.7241431
  18.2149167  13.1218043  48.4035639  18.3637287  13.8053507  47.7502312
  19.0215610  13.1023133  48.9185095  26.6216671   6.4260425  62.4302857
  27.5226533   6.2866890  62.1386855  26.6964645   6.5914880  63.3701035
  20.9559476   3.8027280  61.2756044  20.0862785   4.0960846  61.0038632
  21.1918956   4.3867725  61.9963307  30.8331105  12.8626439  61.3585572
  30.5415913  13.2256419  62.1949033  30.2203236  12.1493447  61.1798904
  32.0326787  10.4279318  53.8788142  32.8673679  10.8669122  54.0425703
  32.1685916   9.9517972  53.0596388  29.0818293   7.9859053  59.8265630
  29.5572415   8.1786700  59.0184481  28.1583859   8.0418239  59.5809014
  15.9701800   9.1483220  49.4096708  15.7247842   8.2445550  49.6076919
  16.1397714   9.1500371  48.4676186  23.6598510   0.0206897  58.7921464
  24.1780454   0.7567924  58.4667953  23.3053642   0.3270890  59.6268223
  21.7144572  15.6166173  45.8747387  21.1418539  16.2356360  45.4217859
  22.2877366  16.1665535  46.4087309  27.7819962   4.8624813  58.0593936
  28.7337385   4.9622911  58.0806160  27.6123413   4.0703082  58.5692020
  25.8034342   1.9480397  58.2453337  25.2084274   2.2285409  57.5499825
  25.5184038   2.4374298  59.0170078  24.9341832  15.9003323  47.0055969
  25.8672505  15.8348885  47.2088845  24.8465045  16.7359590  46.5470502
  27.5629849  15.2169194  43.9659917  27.4843480  14.8829057  44.8595675
  28.3839516  15.7090962  43.9651389  30.2608040   8.0830933  57.1736235
  30.2284360   7.1446934  57.3595919  30.8708664   8.1614970  56.4402060
  22.0991371   6.9526986  43.2163439  23.0450476   6.8233194  43.2851857
  21.7205616   6.2141648  43.6932868  30.4102529   4.8741976  57.2194519
  29.8941577   4.0900433  57.0324447  31.2942477   4.5460693  57.3841038
  28.0713255  -1.3817008  53.1790331  27.8738077  -1.6901920  54.0633663
  28.6812961  -0.6555369  53.3088261  36.0784590   9.1446940  56.3142272
  36.8087978   8.8832228  56.8749975  35.4691535   8.4075662  56.3544340
  34.1599887   7.2854802  56.9116723  33.4333051   7.1510767  56.3033215
  33.7447174   7.5931631  57.7173441  21.9830063  11.0044732  64.6764096
  22.9033073  11.1823331  64.8704143  21.9479646  10.0600778  64.5243796
  20.2834288   4.8776962  43.1518325  19.3765743   4.5810075  43.2281038
  20.5610269   4.5806781  42.2852611  14.9792136   8.9145767  57.3186878
  15.1978146   9.8462875  57.3374911  15.3917910   8.5553741  58.1041681
  19.8520001   4.4878973  66.7089626  19.7516728   5.4373330  66.6401718
  19.6341543   4.1597211  65.8365697  11.0700488   9.8186237  55.5710493
  10.3763960   9.4040190  55.0580447  11.8173479   9.8606774  54.9743912
  27.2065709   0.6092424  50.4365527  26.6264378   1.2677228  50.0543579
  26.9401642  -0.2130231  50.0252944  25.6569276   0.0097482  52.6386847
  26.1569054   0.1214016  51.8301166  26.3004883  -0.2941465  53.2787656
  19.7151271   7.9176111  65.5254688  19.2318353   8.7176472  65.7318577
  19.8012210   7.9284056  64.5722132  12.9837231   9.7504491  53.4476507
  12.9607919   9.8492178  52.4958391  13.2937867  10.5969642  53.7693674
  15.6424609  11.8080646  57.5623122  16.5967862  11.7764588  57.4953053
  15.4437132  11.3471270  58.3773348  16.2323991  10.3781762  60.1293920
  17.0516880  10.8725841  60.1528757  16.5060799   9.4613730  60.1011487
  25.9890587   2.7692514  49.4921875  25.1016442   3.0542165  49.2742070
  26.4044576   2.6086278  48.6449152  29.3405123   2.7939035  53.2076214
  30.1165513   3.2835488  53.4800831  28.6153257   3.2197090  53.6648084
  31.7777682   3.5066655  54.2650155  32.3722173   3.2662391  53.5543463
  31.8504266   2.7873785  54.8923691  13.9974838  17.3500266  54.5793320
  13.8629306  16.5900667  54.0131318  13.5806900  18.0741165  54.1122109
  25.1333801  12.5337189  43.5869895  25.8369651  12.7387192  44.2027551
  24.4096449  13.1013951  43.8518979  25.9631611   8.2847050  49.7072165
  25.9066812   8.7415602  48.8679798  26.5159953   7.5237735  49.5295008
  29.7736417   4.0736782  50.5322285  29.5173351   3.6733418  51.3630492
  29.1489285   4.7880576  50.4072424  34.0848755   6.8132856  53.0393576
  33.5248313   6.8826045  53.8125138  33.4792258   6.6373840  52.3193072
  17.1543963  18.2469583  54.7911762  17.0376348  19.1915015  54.6890453
  16.3336410  17.9443144  55.1797562  27.0420498  12.9719718  45.6368355
  27.8766102  12.5400917  45.4545830  26.8804841  12.8001732  46.5645250
  26.6966390   9.4751832  47.0024694  26.6415194   9.3096103  46.0613139
  26.0712445  10.1827865  47.1586884  24.0112297  11.7800744  66.3278257
  24.8803457  11.9541396  65.9664892  23.5319049  12.5995160  66.2053987
  18.1798478  18.8997845  58.0067691  19.0825724  18.9321455  58.3234186
  17.9535848  17.9698295  58.0214027  19.9352080  17.6528831  54.6677769
  18.9847711  17.6530693  54.5542142  20.2384566  16.9061566  54.1513804
  35.6704773  23.4889369  55.7323532  36.3083183  23.3696117  55.0286872
  35.5525616  24.4370213  55.7911484  32.4794479  23.4416798  55.6685057
  32.1412991  23.3257862  54.7805591  33.3484248  23.0407963  55.6486063
  28.3381295  25.2952274  51.6581948  27.7746160  25.2042211  50.8898235
  28.2233690  24.4752178  52.1384440  32.9614262  24.5951649  61.6271262
  32.9502903  24.2004448  60.7551766  33.1234902  23.8617722  62.2205034
  25.8845727  26.7903466  54.4966168  26.6767019  26.4494290  54.0812467
  26.1242377  26.8998441  55.4168321  33.9180854  28.9623242  46.9696412
  33.2668834  29.5477322  46.5830426  34.7125217  29.4929437  47.0291450
  27.8436481  26.0512379  47.3683547  28.6167357  25.5041366  47.2296423
  28.1961880  26.9156628  47.5798008  29.6821524  27.3788761  60.5750446
  29.3911390  28.2834392  60.4597112  30.3178508  27.4205289  61.2894516
  30.6077730  24.7565610  57.1651806  31.2041303  24.5321632  56.4508769
  30.6652702  24.0150355  57.7677254  30.1802759  22.2105045  45.0001997
  30.4328279  21.6886566  44.2385460  29.2427318  22.0471190  45.1028680
  35.2246042  21.2140823  52.8076740  36.0109131  20.7960246  52.4567157
  35.4884746  22.1186915  52.9758388  35.3956119  26.6513674  47.5065397
  34.7601952  26.7248300  48.2186301  35.0653525  27.2407272  46.8284476
  40.6254469  21.1516057  53.7109718  41.3579641  20.5815273  53.9447548
  39.8693824  20.7637657  54.1516224  29.8999048  24.1133151  47.2026372
  29.7835306  23.4378054  47.8707456  30.0101307  23.6265525  46.3858525
  32.2430588  23.5743298  50.9073061  31.8788796  23.0473919  51.6185982
  33.0997704  23.1841767  50.7339546  38.1479889  14.8637631  58.1704327
  37.8163214  15.7333042  57.9465542  37.5525502  14.5473915  58.8498357
  31.8836075  18.6033198  45.9034409  32.0510478  19.4713434  46.2704880
  31.6933245  18.7660479  44.9795699  34.6411409  27.0650177  57.5700240
  34.3412132  27.9675215  57.4616047  34.2962468  26.7982360  58.4221393
  28.0923890  23.5163973  53.6036944  27.1674387  23.3840188  53.8114636
  28.3408303  24.2958193  54.1006887  38.0408552  19.5832717  55.2497677
  37.1325430  19.5148125  54.9556438  37.9896148  20.0604662  56.0779503
  31.8625296  21.0590855  46.8881076  31.7424922  21.5047906  47.7266556
  31.1677885  21.4076173  46.3294614  25.4532701  23.1597247  54.4380733
  25.5825082  23.4131726  55.3520145  24.7730152  23.7524955  54.1185388
  29.6232188  33.8294497  50.5371207  29.5456218  34.7802322  50.6159688
  29.0193832  33.4840369  51.1946134  32.1149418  21.0022362  63.1932574
  31.3382752  21.5616283  63.1835439  32.7539981  21.4879145  63.7147444
  39.9070199  17.7849155  57.0275551  39.2644579  18.0781688  56.3815346
  39.4025127  17.6702076  57.8328748  37.5610362  21.5312328  47.7161410
  38.4728219  21.7639715  47.5409108  37.0520010  22.1149373  47.1536489
  30.3695790  23.8107816  62.7550541  31.1110475  24.3492860  62.4785365
  29.6632776  24.4374104  62.9122093  35.8451130  25.9536956  61.3522703
  36.2534486  25.5119367  60.6077335  35.1228392  25.3789584  61.6056896
  32.1982200  20.8909563  58.7256260  33.0443395  21.3148977  58.8690909
  32.1380838  20.2343187  59.4194823  36.1679945  26.5138147  55.1074992
  35.5388807  26.6783861  54.4051060  35.7805607  26.9279756  55.8785956
  40.0469177  27.4492585  52.4619355  39.3620215  27.8291486  51.9116389
  40.1313026  28.0587911  53.1951303  35.3481646  18.5513931  60.3837433
  35.1042577  19.3055992  59.8471709  35.6241576  18.9299279  61.2184680
  37.3020108  25.0952544  59.0614699  37.5137004  25.7384304  58.3849080
  37.2549857  24.2614860  58.5936629  34.9046337  17.7070364  55.9651271
  34.0430816  18.0051618  56.2568009  34.9308772  17.9240763  55.0332304
  31.7207907  26.2512555  52.3725077  32.1846252  26.5300258  51.5829699
  31.4564705  25.3496000  52.1898167  28.6131988  25.7984036  55.3104840
  29.1833345  26.2271305  54.6722325  29.2040100  25.5166621  56.0089026
  30.6576793  22.3735707  49.1814642  31.3600836  22.8256751  49.6488568
  30.3257421  21.7319526  49.8094535  29.1057154  20.9647464  63.5565851
  28.4755815  21.6463745  63.7901248  28.9993242  20.8530546  62.6118990
  24.4002127  20.6319260  54.4831776  23.6101181  20.8876788  54.0071886
  24.8913374  21.4467598  54.5883816  38.4165936  27.9724499  57.2337056
  39.2383380  27.5704686  56.9519738  38.4128339  27.8692733  58.1853172
  26.3516872  20.9963839  51.4415252  25.5548035  21.1082533  51.9598748
  26.1242464  21.3350491  50.5756143  32.1822540  27.5208542  59.3897767
  32.2466972  27.9828950  60.2255939  31.4733464  26.8905907  59.5180077
  22.6839830  20.8849750  56.9146766  22.9347868  21.7696760  57.1804342
  23.2199378  20.7054352  56.1421858  46.5071929  24.3163248  53.5822028
  45.7535638  23.7470646  53.4266032  46.6419470  24.2825912  54.5292663
  31.8970557  29.1876650  49.2576747  31.7616232  30.0328186  49.6861595
  32.4380370  29.3895928  48.4942681  28.3837897  15.2668230  65.9191102
  27.9904843  14.7134428  66.5938747  29.2004037  15.5778808  66.3097620
  25.3499955  26.7052088  49.8304672  25.8624475  27.4995338  49.9810237
  26.0022668  26.0078378  49.7638274  27.1594839  29.8217844  51.9127425
  27.3361468  30.7435809  51.7248409  27.9551673  29.5076263  52.3421805
  31.3005858  16.6826109  63.5111359  32.0415571  17.2833262  63.4315821
  31.5323781  15.9403747  62.9529402  26.4447196  21.8682476  61.7889589
  26.3300711  20.9667733  62.0896688  25.5891714  22.1146173  61.4374405
  33.5239034  29.8100216  63.3877089  33.0802888  29.0236595  63.0697994
  34.1856247  29.9979367  62.7220980  28.2826155  31.3396018  57.9137768
  28.8333580  31.2113081  57.1414762  27.4437631  31.6390907  57.5632661
  35.6220272  30.0903016  61.4158491  35.6038747  30.9111897  60.9238760
  36.5440192  29.9657092  61.6408632  32.0793326  27.6047146  62.2581999
  32.6121663  26.8435434  62.0281307  31.5507407  27.3120798  63.0006153
  35.2463021  12.7107212  57.7875641  34.9027290  13.6008853  57.7114751
  35.6141983  12.5208869  56.9245226  23.3148872  25.0340742  50.6064243
  24.1524094  25.4437751  50.3897951  23.4927139  24.0940184  50.5764437
  35.2113304  22.7015823  46.2948076  34.6959927  23.4720428  46.5336463
  34.9390612  22.0280959  46.9181137  32.7960415  17.5465524  51.3533314
  31.9402011  17.1572374  51.1738953  33.2087366  17.6257484  50.4933100
  34.3259561  15.0811867  55.7524874  33.8224357  15.0442002  54.9392679
  34.6190168  15.9904610  55.8121531  30.5702447  15.1650597  54.7591056
  31.4355444  14.9693405  54.3996945  30.6379956  14.9360948  55.6860412
  40.1847578  25.4548178  48.2301249  39.4077021  25.1159337  47.7856411
  40.8639059  25.4600801  47.5556214  34.9999607  20.5742915  48.1207857
  34.6949742  20.8889064  48.9718000  35.9530049  20.6524335  48.1635190
  33.4446039  26.7333138  49.7700811  32.9167400  25.9985898  49.4574048
  32.9433541  27.5107815  49.5240779  38.4238885  24.9282159  54.8867857
  37.7662559  25.6181420  54.9747986  39.2279284  25.3178591  55.2301844
  28.1764766  17.3952805  52.1307422  28.7508518  17.1727986  51.3980615
  28.7635749  17.4641499  52.8836024  37.2344343  23.2826531  52.9371799
  37.7476225  23.9156523  53.4393509  37.8845567  22.6827727  52.5715159
  28.5034353  19.4257266  46.1503308  27.6671666  19.7631952  46.4712582
  28.3639123  19.2906245  45.2130445  30.4787434  14.2694053  50.8582492
  29.8251846  13.9543071  50.2339107  30.4367908  13.6469794  51.5842315
  31.5898639  24.5513349  42.7735784  30.6825701  24.3202602  42.9726933
  32.0869671  23.7550968  42.9609765  34.4966718  33.2610856  45.6932470
  33.8228416  33.5642553  46.3017428  34.8832540  34.0639936  45.3437927
  33.7125174  20.7575987  55.1830139  32.7947736  20.9790934  55.0251828
  34.1285318  20.8322298  54.3241847  34.4960222  22.1567403  50.3132820
  35.2432041  22.6688800  50.0039942  34.7651812  21.8351455  51.1737213
  32.7686872  24.6525943  47.2959774  31.8598092  24.3684976  47.3932244
  32.7981956  25.0725022  46.4363081  38.0006140  28.2632533  51.0650942
  37.5468467  27.4223443  51.1216132  37.3700106  28.8993931  51.4025722
  36.9439059  19.1924519  52.2951609  36.2061816  18.6801905  52.6261852
  37.1965833  18.7524901  51.4834886  36.4439079  30.1009030  52.0000760
  36.7362053  30.6614087  51.2813125  36.9537699  30.3937591  52.7553919
  37.0450687  11.9700771  52.8893378  37.3509563  11.1098134  52.6019293
  37.7703291  12.5618391  52.6892372  23.3375043  22.3731458  51.2774976
  23.1399442  21.7800818  50.5526043  22.7821707  22.0683668  51.9950915
  31.3171766  22.2654564  53.3969569  31.3720376  21.3128400  53.3212046
  30.5062968  22.4214003  53.8810868  32.4662960  26.1934687  44.6347853
  32.0282390  25.4770546  44.1753490  33.2073401  26.4210802  44.0732944
  29.2564126  20.8831624  51.1559948  28.4431992  21.1825794  51.5625140
  29.7523120  20.4887313  51.8734431  31.4072704  30.8789381  53.0894213
  31.3648883  31.1050227  52.1602745  32.3235403  30.6452755  53.2380014
  34.8538338  21.3473448  59.9874842  35.2087726  21.5744921  60.8469308
  35.5010469  21.6791825  59.3652097  40.5836075  24.4691884  50.6924171
  40.4453973  24.6593480  49.7645360  40.2272294  25.2311267  51.1492222
  28.7478201  18.4549979  56.7721183  29.3877580  18.3138738  56.0744147
  27.9155732  18.1684493  56.3959785  40.6105454  26.5368411  55.7035443
  41.0441961  26.4443700  56.5518497  41.3237035  26.5125912  55.0655459
  29.5238505  27.7552410  52.8856176  30.3179103  27.2602730  52.6838751
  28.8130197  27.2270273  52.5223881  34.3433349  30.1370505  57.2368543
  34.3970372  30.7061442  58.0046259  33.4748131  30.3072390  56.8722580
  25.8321268  21.8995491  48.9615928  24.9018856  21.8379947  49.1785890
  25.9278740  21.3771444  48.1652570  25.7506817  18.4250304  51.5494170
  26.0113635  19.3395638  51.4403330  26.5723990  17.9574747  51.6990783
  27.2231743  19.8388061  58.7192995  27.8954796  19.6305424  58.0705643
  26.3961529  19.6410147  58.2798227  41.4721004  26.5792112  58.2368328
  41.6656894  27.4837922  58.4827603  41.3721622  26.1199531  59.0706913
  33.1257315  16.4650002  60.7358655  32.4785230  17.1639952  60.6423132
  33.8958330  16.8986146  61.1034904  36.5336113  26.7298855  63.8109209
  36.3821619  26.5009406  62.8939292  36.5240792  27.6869456  63.8240554
  33.3021449  24.3030767  58.7955475  34.2313509  24.4541927  58.6224442
  32.8812479  24.3914788  57.9404122  32.1009781  28.3281432  56.5654013
  31.9620867  27.9600216  57.4379951  31.3124377  28.8429071  56.3937971
  32.6957933  33.4290528  47.9079549  32.8709689  32.9578571  48.7225172
  32.0090721  34.0556294  48.1360810  33.6514996  27.7063034  53.9542851
  33.3164829  27.6663804  54.8500500  33.1518942  27.0407750  53.4813261
  27.6259240  23.1130664  59.4795432  27.4879038  22.3810903  60.0806971
  28.5364163  23.0239565  59.1979619  36.5874188  25.0519069  44.2279910
  35.9703358  24.3265897  44.1312963  36.1190676  25.8128429  43.8846984
  30.2541541  22.8250624  58.9679111  30.9641159  22.1843816  58.9265730
  30.2110849  23.0763519  59.8905292  38.2428319  29.7617977  61.8885691
  38.1840865  29.0777197  61.2216274  38.6447838  30.5036967  61.4366317
  28.9670475  19.8115842  60.7874751  28.4307832  19.3606580  61.4396347
  28.3787183  19.9461750  60.0445215  27.2619018  36.5779891  54.6819409
  27.5015616  37.2098415  55.3598428  26.4188215  36.2267931  54.9684769
  28.3772734  19.2704493  43.3501214  27.5002200  19.1493294  42.9863461
  28.8530487  18.4790571  43.0980103  38.2445727  27.7257561  60.1199670
  37.3572505  27.3883483  60.2426069  38.8144278  26.9940592  60.3568436
  19.8974874  24.0581653  53.4442722  20.5845914  23.7443383  52.8563737
  19.7423002  24.9623017  53.1709973  24.7009596  18.9471849  57.8727745
  24.6167785  18.3397519  57.1378155  23.8792302  19.4380868  57.8737242
  31.7746880  32.3859013  57.0860913  31.7017051  33.1913985  57.5980218
  31.3324273  32.5850979  56.2608935  31.5636660  31.6230783  50.5963735
  30.7804182  32.1652464  50.6901959  32.2629405  32.1404763  50.9957976
  34.8733310  17.4325413  53.2397940  35.3702009  16.6795375  52.9199011
  34.1020291  17.4689730  52.6741150  42.7263067  23.1365778  54.8816232
  42.7152943  24.0190494  54.5110165  41.8580447  22.7837329  54.6870769
  34.2345564  32.2845847  59.2419072  34.9473536  32.9193312  59.1694974
  33.7435592  32.3809713  58.4259074  35.9563090  26.1897100  50.8136364
  35.0219369  26.3098563  50.6441068  36.1339759  25.2869567  50.5496374
  31.4568278  19.5742796  52.9669625  31.0866066  19.0213836  53.6550531
  31.9527371  18.9700929  52.4144625  39.3435642  22.0314419  51.3486398
  39.8096094  22.8642411  51.2746701  39.7943142  21.5659401  52.0531656
  29.2857477  30.0340291  60.0624643  29.9866937  30.6676774  60.2154037
  28.8152592  30.3755022  59.3020282  37.4111873  28.3758241  48.3472550
  37.6871717  28.2614835  49.2566424  36.5416372  27.9775726  48.3084723
  37.3152305  14.3995006  55.3877299  36.4015384  14.6299233  55.5559506
  37.7445406  14.4833450  56.2391332  37.0858763  22.5884898  57.8877193
  36.4330213  22.8360806  57.2329646  37.4639143  21.7749037  57.5539671
  34.0465937  32.6244592  51.9905364  34.2288331  31.8066247  52.4533116
  34.8698923  32.8412284  51.5530254  34.3808102  31.5512777  49.2520412
  34.9095869  31.0405231  48.6390574  34.6436322  31.2355307  50.1165945
  33.1346336  23.3304709  64.3743230  32.4586973  23.2298839  65.0445606
  33.9573970  23.1743923  64.8379228  24.8825195  29.5676646  56.9955746
  25.4678632  28.8220334  57.1283650  24.6850034  29.8780603  57.8792410
  27.7363850  32.6027893  52.0118188  27.0674226  33.0874021  51.5282228
  27.5976720  32.8497114  52.9261567  19.4742850  22.1382246  55.7160189
  19.5126949  21.6045837  56.5097307  18.9683143  21.6117452  55.0971166
  26.8533612  16.9846787  59.2122731  26.9174939  17.8461618  58.8000129
  26.7900732  16.3720788  58.4795090  26.3285885  19.0569919  62.8595765
  26.9557923  18.6746997  63.4733290  25.4713804  18.8384121  63.2251458
  36.7279993  29.4632894  64.4649501  37.2719897  30.0762853  63.9704456
  36.1466838  30.0212473  64.9816514  23.1051427  20.8646348  48.7914120
  23.4004869  19.9557027  48.7381174  22.2039463  20.8434088  48.4695122
  35.0137506  32.5853612  55.5964529  34.8888646  31.7843352  55.0875474
  35.6716597  33.0799806  55.1078498  26.6345674  18.9402345  54.7741669
  25.9132260  19.5538313  54.6349142  27.4238930  19.4760110  54.6958315
  37.0772415  30.3862632  57.2244079  36.1302750  30.2667984  57.1522405
  37.4255188  29.4985131  57.3070340  29.4371988  16.2756771  61.0482321
  29.9606390  16.5219068  61.8108630  29.2184321  17.1076806  60.6285458
  24.8339269  18.5460446  48.9153445  24.5051975  17.6657825  48.7328551
  25.1878640  18.4908115  49.8029835  34.0818848  30.1815349  53.4248431
  33.9343810  29.2532056  53.6056001  34.9072341  30.2035439  52.9405506
  27.9481092  18.8333416  49.2828923  28.2877165  19.3619337  48.5607531
  28.3953213  19.1713822  50.0587490  37.6852970  31.0043907  54.5113304
  38.6099517  30.7986769  54.3737755  37.5168273  30.7560309  55.4202645
  30.6424533  17.2170466  58.7331991  30.3021353  16.4178280  59.1352671
  29.9363539  17.5172177  58.1608824  31.2941005  14.3019779  57.1859314
  32.1167074  13.8280257  57.0638204  31.5379068  15.0810263  57.6858000
  29.9349239  17.3308037  47.4822216  30.6557602  17.7089290  46.9785933
  29.3114543  18.0496914  47.5857194  34.0780362  18.0353186  48.4180548
  34.2943977  18.9177824  48.1169376  33.5974429  17.6439400  47.6886190
  28.8179584  20.9938900  54.9951293  28.6724164  21.3079203  55.8875574
  28.3404787  21.6123800  54.4422191  30.6775966  17.9841448  55.0432182
  30.6637535  17.0882541  54.7064480  31.3948395  17.9912111  55.6770468
  32.5302097  18.4178788  57.0885310  32.2719875  19.3395858  57.0869640
  31.9987138  18.0209222  57.7785774  37.4748286  31.5229575  49.8675395
  37.6485163  30.9575997  49.1149247  37.9677177  32.3230470  49.6854885
  23.2925246  23.5344244  57.9338954  22.7478714  24.3104052  58.0659228
  24.1704596  23.8815048  57.7758075  30.0812862  16.8655828  50.3119752
  30.2028774  15.9372474  50.5110640  29.7914905  16.8794514  49.3998068
  32.9504053  14.5510738  53.4486472  32.9725750  14.6150071  52.4938452
  33.3672112  13.7115247  53.6426978  43.3287677  24.2865998  51.4865695
  43.7718823  23.5373323  51.0884818  42.4514187  24.2776134  51.1039427
  38.4623458  30.8396339  46.9672293  39.1574363  31.4603032  47.1859608
  38.8046609  29.9891690  47.2424671  24.0791268  22.6614140  60.8269111
  23.3373004  22.8096776  61.4133741  23.7584012  22.9222406  59.9635860
  40.3614882  28.2896045  48.4959624  40.8866206  28.6283318  47.7708944
  40.2737234  27.3543060  48.3122759  32.0234930  32.2030118  60.6249501
  32.3322057  31.9579265  61.4972200  32.8210412  32.4076757  60.1368371
  32.0455542  34.3568028  52.8554877  31.6060533  33.8644407  53.5487734
  32.7963659  33.8140996  52.6146953  24.5247881  30.5479569  52.8579505
  25.3505901  30.2483341  52.4778149  24.1741933  29.7787191  53.3069294
  29.4929414  29.9006037  54.9277179  28.8709424  29.2376742  54.6279407
  30.1634281  29.9267169  54.2450827  22.7256486  28.4665895  53.8168439
  21.8888395  28.0388070  53.6352440  22.6980132  28.6598339  54.7539230
  29.5653942  18.3787825  64.5209685  29.6142097  19.2549948  64.1387455
  30.1076456  17.8365218  63.9481328  40.0508788  28.9228948  63.8010822
  39.2604331  28.9053087  63.2615321  39.8142142  29.4617242  64.5559859
  40.1706663  25.7721415  61.1143551  40.2204668  25.6071422  62.0559073
  40.0620586  24.9048674  60.7241431  29.0542921  28.4509961  48.4035639
  29.2031042  29.1345425  47.7502312  29.8609365  28.4315051  48.9185095
  37.4610425  21.7552343  62.4302857  38.3620288  21.6158808  62.1386855
  37.5358400  21.9206798  63.3701035  31.7953230  19.1319198  61.2756044
  30.9256540  19.4252764  61.0038632  32.0312711  19.7159643  61.9963307
  41.6724859  28.1918356  61.3585572  41.3809668  28.5548337  62.1949033
  41.0596991  27.4785365  61.1798904  42.8720542  25.7571236  53.8788142
  43.7067433  26.1961040  54.0425703  43.0079671  25.2809889  53.0596388
  39.9212048  23.3150971  59.8265630  40.3966169  23.5078617  59.0184481
  38.9977613  23.3710157  59.5809014  26.8095554  24.4775138  49.4096708
  26.5641596  23.5737468  49.6076919  26.9791469  24.4792289  48.4676186
  34.4992264  15.3498815  58.7921464  35.0174208  16.0859841  58.4667953
  34.1447397  15.6562808  59.6268223  26.0791202  20.2103496  46.9082870
  25.3860447  20.2847851  46.2522906  25.8342954  19.4463839  47.4304387
  34.7504858  11.7699097  54.3122361  35.0306612  11.1022286  54.9382787
  35.5355465  11.9628193  53.7997024  32.5538327  30.9458091  45.8747387
  31.9812294  31.5648278  45.4217859  33.1271121  31.4957453  46.4087309
  38.6213717  20.1916731  58.0593936  39.5731140  20.2914829  58.0806160
  38.4517167  19.3995000  58.5692020  36.6428096  17.2772314  58.2453337
  36.0478028  17.5577327  57.5499825  36.3577793  17.7666215  59.0170078
  35.7735587  31.2295241  47.0055969  36.7066260  31.1640803  47.2088845
  35.6858799  32.0651508  46.5470502  38.4023603  30.5461111  43.9659917
  38.3237235  30.2120975  44.8595675  39.2233270  31.0382879  43.9651389
  41.1001795  23.4122851  57.1736235  41.0678115  22.4738851  57.3595919
  41.7102418  23.4906887  56.4402060  32.9385125  22.2818904  43.2163439
  33.8844230  22.1525112  43.2851857  32.5599370  21.5433566  43.6932868
  41.2496283  20.2033894  57.2194519  40.7335332  19.4192351  57.0324447
  42.1336232  19.8752611  57.3841038  38.9107010  13.9474910  53.1790331
  38.7131831  13.6389998  54.0633663  39.5206715  14.6736549  53.3088261
  46.9178344  24.4738858  56.3142272  47.6481733  24.2124146  56.8749975
  46.3085290  23.7367580  56.3544340  44.9993641  22.6146720  56.9116723
  44.2726805  22.4802685  56.3033215  44.5840928  22.9223549  57.7173441
  32.8223818  26.3336650  64.6764096  33.7426827  26.5115249  64.8704143
  32.7873401  25.3892695  64.5243796  31.1228043  20.2068880  43.1518325
  30.2159498  19.9101993  43.2281038  31.4004024  19.9098698  42.2852611
  22.0405983  21.5275244  53.6017371  21.7208767  20.6740552  53.3091745
  21.4939411  21.7423822  54.3575338  25.8185890  24.2437685  57.3186878
  26.0371900  25.1754792  57.3374911  26.2311664  23.8845659  58.1041681
  32.7390108  14.7505770  49.3062566  31.9290837  14.4052855  49.6817812
  33.4274525  14.4413314  49.8950177  34.6680657  13.8283817  50.9286863
  35.2211695  14.2479270  51.5876886  34.9050743  12.9019565  50.9709819
  30.6913756  19.8170890  66.7089626  30.5910483  20.7665247  66.6401718
  30.4735298  19.4889129  65.8365697  29.8926827  17.0655815  43.2930304
  30.7545991  17.3910714  43.5526121  30.0777171  16.2787311  42.7803370
  21.9094243  25.1478155  55.5710493  21.2157714  24.7332108  55.0580447
  22.6567234  25.1898692  54.9743912  38.0459464  15.9384342  50.4365527
  37.4658133  16.5969146  50.0543579  37.7795396  15.1161686  50.0252944
  36.4963030  15.3389399  52.6386847  36.9962808  15.4505934  51.8301166
  37.1398638  15.0350452  53.2787656  30.5545026  23.2468029  65.5254688
  30.0712108  24.0468389  65.7318577  30.6405965  23.2575974  64.5722132
  23.8230985  25.0796409  53.4476507  23.8001674  25.1784096  52.4958391
  24.1331622  25.9261560  53.7693674  26.4818363  27.1372564  57.5623122
  27.4361617  27.1056506  57.4953053  26.2830887  26.6763188  58.3773348
  27.0717745  25.7073680  60.1293920  27.8910634  26.2017759  60.1528757
  27.3454553  24.7905648  60.1011487  36.8284342  18.0984432  49.4921875
  35.9410197  18.3834083  49.2742070  37.2438331  17.9378196  48.6449152
  40.1798878  18.1230953  53.2076214  40.9559268  18.6127406  53.4800831
  39.4547012  18.5489007  53.6648084  42.6171436  18.8358572  54.2650155
  43.2115927  18.5954308  53.5543463  42.6898020  18.1165703  54.8923691
  24.8368592  32.6792183  54.5793320  24.7023060  31.9192584  54.0131318
  24.4200654  33.4033083  54.1122109  35.9727555  27.8629107  43.5869895
  36.6763405  28.0679109  44.2027551  35.2490204  28.4305869  43.8518979
  36.8025365  23.6138968  49.7072165  36.7460567  24.0707520  48.8679798
  37.3553708  22.8529653  49.5295008  40.6130171  19.4028700  50.5322285
  40.3567106  19.0025336  51.3630492  39.9883039  20.1172494  50.4072424
  44.9242509  22.1424773  53.0393576  44.3642067  22.2117963  53.8125138
  44.3186013  21.9665758  52.3193072  27.9937718  33.5761500  54.7911762
  27.8770102  34.5206933  54.6890453  27.1730164  33.2735062  55.1797562
  37.8814253  28.3011636  45.6368355  38.7159856  27.8692835  45.4545830
  37.7198595  28.1293650  46.5645250  37.5360145  24.8043749  47.0024694
  37.4808948  24.6388021  46.0613139  36.9106200  25.5119782  47.1586884
  22.3252660  20.0411814  60.8286117  22.9711523  19.5310768  61.3173342
  22.1169811  20.7780495  61.4029542  34.8506052  27.1092661  66.3278257
  35.7197212  27.2833313  65.9664892  34.3712803  27.9287078  66.2053987
  30.8456270  14.3051858  46.5810013  30.8334940  15.2493698  46.7378284
  31.7379692  14.1222004  46.2869474  29.0192232  34.2289762  58.0067691
  29.9219479  34.2613372  58.3234186  28.7929602  33.2990213  58.0214027
  30.7745834  32.9820749  54.6677769  29.8241465  32.9822610  54.5542142
  31.0778320  32.2353483  54.1513804  34.6608390  10.8994635  50.8355950
  33.8940785  10.3453122  50.9812632  35.0719095  10.9716504  51.6970101
  26.6650151  17.1879431  64.9261131  27.5281612  16.8316236  65.1364455
  26.0915561  16.8493326  65.6136535  48.9873644  30.1929548  58.1704327
  48.6556968  31.0624959  57.9465542  48.3919257  29.8765832  58.8498357
  50.7463953  33.1141073  57.0275551  50.1038334  33.4073606  56.3815346
  50.2418882  32.9993993  57.8328748  46.1875400  33.8805849  60.3837433
  45.9436332  34.6347910  59.8471709  46.4635331  34.2591197  61.2184680
  39.2231651  30.5960147  65.9191102  38.8298597  30.0426346  66.5938747
  40.0397792  30.9070726  66.3097620  42.1399612  32.0118027  63.5111359
  42.8809326  32.6125180  63.4315821  42.3717535  31.2695664  62.9529402
  46.0856775  28.0399129  57.7875641  45.7421045  28.9300771  57.7114751
  46.4535738  27.8500787  56.9245226  45.1653316  30.4103785  55.7524874
  44.6618111  30.3733920  54.9392679  45.4583923  31.3196527  55.8121531
  41.4096202  30.4942514  54.7591056  42.2749198  30.2985323  54.3996945
  41.4773711  30.2652866  55.6860412  39.0158521  32.7244722  52.1307422
  39.5902273  32.5019904  51.3980615  39.6029503  32.7933417  52.8836024
  41.3181188  29.5985971  50.8582492  40.6645601  29.2834988  50.2339107
  41.2761663  28.9761712  51.5842315  47.8844441  27.2992689  52.8893378
  48.1903318  26.4390052  52.6019293  48.6097046  27.8910309  52.6892372
  36.5900572  33.7542222  51.5494170  36.8507389  34.6687555  51.4403330
  37.4117744  33.2866665  51.6990783  43.9651069  31.7941920  60.7358655
  43.3178984  32.4931870  60.6423132  44.7352085  32.2278064  61.1034904
  39.2166488  34.5996411  43.3501214  38.3395954  34.4785212  42.9863461
  39.6924241  33.8082489  43.0980103  48.1546059  29.7286924  55.3877299
  47.2409139  29.9591151  55.5559506  48.5839160  29.8125368  56.2391332
  37.1679639  34.3861837  62.8595765  37.7951678  34.0038914  63.4733290
  36.3107558  34.1676039  63.2251458  40.2765742  31.6048689  61.0482321
  40.8000144  31.8510986  61.8108630  40.0578076  32.4368724  60.6285458
  38.7874847  34.1625333  49.2828923  39.1270919  34.6911255  48.5607531
  39.2346967  34.5005740  50.0587490  42.1334759  29.6311697  57.1859314
  42.9560829  29.1572175  57.0638204  42.3772823  30.4102180  57.6858000
  40.7742994  32.6599955  47.4822216  41.4951356  33.0381208  46.9785933
  40.1508298  33.3788832  47.5857194  40.9206617  32.1947745  50.3119752
  41.0422528  31.2664392  50.5110640  40.6308659  32.2086431  49.3998068
  43.7897807  29.8802656  53.4486472  43.8119504  29.9441989  52.4938452
  44.2065866  29.0407165  53.6426978  45.3386019  30.6790732  58.7921464
  45.8567963  31.4151759  58.4667953  44.9841151  30.9854725  59.6268223
  45.5898613  27.0991015  54.3122361  45.8700367  26.4314204  54.9382787
  46.3749220  27.2920110  53.7997024  41.9621797  35.5360798  43.1518325
  41.0553252  35.2393910  43.2281038  42.2397778  35.2390616  42.2852611
  43.5783863  30.0797687  49.3062566  42.7684591  29.7344772  49.6817812
  44.2668280  29.7705231  49.8950177  45.5074411  29.1575734  50.9286863
  46.0605450  29.5771188  51.5876886  45.7444497  28.2311482  50.9709819
  40.7320582  32.3947733  43.2930304  41.5939746  32.7202631  43.5526121
  40.9170926  31.6079229  42.7803370  41.6850025  29.6343776  46.5810013
  41.6728694  30.5785616  46.7378284  42.5773447  29.4513921  46.2869474
  45.5002144  26.2286553  50.8355950  44.7334540  25.6745039  50.9812632
  45.9112849  26.3008421  51.6970101  37.5043905  32.5171348  64.9261131
  38.3675367  32.1608153  65.1364455  36.9309316  32.1785243  65.6136535
  79.0253193  70.3039001  53.5822028  78.2716901  69.7346399  53.4266032
  79.1600734  70.2701665  54.5292663  64.1079902  70.5389102  42.7735784
  63.2006964  70.3078355  42.9726933  64.6050934  69.7426721  42.9609765
  67.0147981  79.2486609  45.6932470  66.3409680  79.5518306  46.3017428
  67.4013803  80.0515689  45.3437927  65.2139196  79.4166281  47.9079549
  65.3890952  78.9454324  48.7225172  64.5271984  80.0432047  48.1360810
  75.2444331  69.1241531  54.8816232  75.2334207  70.0066247  54.5110165
  74.3761710  68.7713082  54.6870769  65.0719590  76.9333844  45.8747387
  64.4993557  77.5524031  45.4217859  65.6452384  77.4833206  46.4087309
  70.9204867  76.5336864  43.9659917  70.8418498  76.1996728  44.8595675
  71.7414534  77.0258632  43.9651389  79.4359608  70.4614611  56.3142272
  80.1662996  70.1999899  56.8749975  78.8266553  69.7243333  56.3544340
  77.5174905  68.6022473  56.9116723  76.7908069  68.4678438  56.3033215
  77.1022192  68.9099302  57.7173441  68.4908819  73.8504860  43.5869895
  69.1944669  74.0554862  44.2027551  67.7671467  74.4181622  43.8518979
  77.4423773  68.1300526  53.0393576  76.8823331  68.1993716  53.8125138
  76.8367276  67.9541511  52.3193072  70.3995516  74.2887389  45.6368355
  71.2341120  73.8568588  45.4545830  70.2379859  74.1169403  46.5645250
  79.0279791  84.8057040  55.7323532  79.6658201  84.6863788  55.0286872
  78.9100634  85.7537884  55.7911484  75.8369497  84.7584468  55.6685057
  75.4988009  84.6425533  54.7805591  76.7059266  84.3575633  55.6486063
  71.6956313  86.6119945  51.6581948  71.1321178  86.5209882  50.8898235
  71.5808708  85.7919849  52.1384440  76.3189280  85.9119320  61.6271262
  76.3077921  85.5172118  60.7551766  76.4809920  85.1785393  62.2205034
  69.2420745  88.1071136  54.4966168  70.0342037  87.7661961  54.0812467
  69.4817395  88.2166111  55.4168321  77.2755872  90.2790912  46.9696412
  76.6243852  90.8644993  46.5830426  78.0700235  90.8097107  47.0291450
  71.2011499  87.3680050  47.3683547  71.9742375  86.8209037  47.2296423
  71.5536898  88.2324299  47.5798008  73.0396541  88.6956432  60.5750446
  72.7486407  89.6002063  60.4597112  73.6753526  88.7372959  61.2894516
  73.9652748  86.0733280  57.1651806  74.5616321  85.8489303  56.4508769
  74.0227720  85.3318026  57.7677254  73.5377777  83.5272716  45.0001997
  73.7903297  83.0054237  44.2385460  72.6002336  83.3638861  45.1028680
  78.5821060  82.5308494  52.8076740  79.3684149  82.1127917  52.4567157
  78.8459764  83.4354586  52.9758388  78.7531137  87.9681344  47.5065397
  78.1176970  88.0415971  48.2186301  78.4228543  88.5574943  46.8284476
  83.9829487  82.4683727  53.7109718  84.7154659  81.8982944  53.9447548
  83.2268842  82.0805328  54.1516224  73.2574065  85.4300822  47.2026372
  73.1410324  84.7545725  47.8707456  73.3676325  84.9433196  46.3858525
  75.6005606  84.8910969  50.9073061  75.2363814  84.3641590  51.6185982
  76.4572722  84.5009438  50.7339546  81.5054907  76.1805301  58.1704327
  81.1738232  77.0500712  57.9465542  80.9100520  75.8641585  58.8498357
  75.2411093  79.9200868  45.9034409  75.4085496  80.7881105  46.2704880
  75.0508262  80.0828150  44.9795699  77.9986427  88.3817847  57.5700240
  77.6987150  89.2842886  57.4616047  77.6537486  88.1150031  58.4221393
  81.3983570  80.9000388  55.2497677  80.4900448  80.8315796  54.9556438
  81.3471166  81.3772332  56.0779503  75.2200314  82.3758526  46.8881076
  75.0999939  82.8215577  47.7266556  74.5252903  82.7243844  46.3294614
  72.9807206  95.1462168  50.5371207  72.9031236  96.0969993  50.6159688
  72.3768850  94.8008040  51.1946134  75.4724436  82.3190033  63.1932574
  74.6957770  82.8783953  63.1835439  76.1114999  82.8046816  63.7147444
  83.2645217  79.1016826  57.0275551  82.6219597  79.3949359  56.3815346
  82.7600145  78.9869746  57.8328748  80.9185380  82.8479999  47.7161410
  81.8303237  83.0807386  47.5409108  80.4095027  83.4317043  47.1536489
  73.7270808  85.1275486  62.7550541  74.4685493  85.6660530  62.4785365
  73.0207794  85.7541775  62.9122093  79.2026148  87.2704627  61.3522703
  79.6109504  86.8287037  60.6077335  78.4803410  86.6957254  61.6056896
  75.5557218  82.2077234  58.7256260  76.4018413  82.6316647  58.8690909
  75.4955856  81.5510858  59.4194823  79.5254963  87.8305818  55.1074992
  78.8963825  87.9951532  54.4051060  79.1380625  88.2447427  55.8785956
  83.4044195  88.7660255  52.4619355  82.7195233  89.1459157  51.9116389
  83.4888044  89.3755582  53.1951303  78.7056663  79.8681602  60.3837433
  78.4617595  80.6223663  59.8471709  78.9816594  80.2466950  61.2184680
  80.6595126  86.4120214  59.0614699  80.8712021  87.0551974  58.3849080
  80.6124874  85.5782531  58.5936629  75.0782925  87.5680226  52.3725077
  75.5421270  87.8467929  51.5829699  74.8139723  86.6663670  52.1898167
  71.9707006  87.1151707  55.3104840  72.5408363  87.5438976  54.6722325
  72.5615118  86.8334292  56.0089026  74.0151811  83.6903378  49.1814642
  74.7175854  84.1424422  49.6488568  73.6832439  83.0487197  49.8094535
  72.4632172  82.2815135  63.5565851  71.8330833  82.9631415  63.7901248
  72.3568260  82.1698216  62.6118990  81.7740954  89.2892170  57.2337056
  82.5958398  88.8872357  56.9519738  81.7703357  89.1860404  58.1853172
  75.5397558  88.8376213  59.3897767  75.6041990  89.2996620  60.2255939
  74.8308482  88.2073578  59.5180077  89.8646947  85.6330918  53.5822028
  89.1110656  85.0638316  53.4266032  89.9994488  85.5993583  54.5292663
  75.2545575  90.5044321  49.2576747  75.1191250  91.3495856  49.6861595
  75.7955388  90.7063598  48.4942681  68.7074973  88.0219759  49.8304672
  69.2199493  88.8163009  49.9810237  69.3597686  87.3246049  49.7638274
  70.5169857  91.1385515  51.9127425  70.6936486  92.0603480  51.7248409
  71.3126691  90.8243934  52.3421805  69.8022214  83.1850147  61.7889589
  69.6875729  82.2835404  62.0896688  68.9466732  83.4313844  61.4374405
  76.8814052  91.1267887  63.3877089  76.4377906  90.3404266  63.0697994
  77.5431265  91.3147038  62.7220980  71.6401173  92.6563689  57.9137768
  72.1908598  92.5280752  57.1414762  70.8012649  92.9558578  57.5632661
  78.9795290  91.4070687  61.4158491  78.9613765  92.2279568  60.9238760
  79.9015210  91.2824762  61.6408632  75.4368344  88.9214817  62.2581999
  75.9696681  88.1603105  62.0281307  74.9082425  88.6288468  63.0006153
  78.6038039  74.0274883  57.7875641  78.2602308  74.9176524  57.7114751
  78.9717001  73.8376540  56.9245226  78.5688322  84.0183494  46.2948076
  78.0534945  84.7888098  46.5336463  78.2965630  83.3448630  46.9181137
  83.5422596  86.7715848  48.2301249  82.7652038  86.4327008  47.7856411
  84.2214077  86.7768471  47.5556214  78.3574625  81.8910586  48.1207857
  78.0524760  82.2056735  48.9718000  79.3105067  81.9692006  48.1635190
  76.8021057  88.0500809  49.7700811  76.2742418  87.3153569  49.4574048
  76.3008559  88.8275485  49.5240779  81.7813903  86.2449830  54.8867857
  81.1237577  86.9349091  54.9747986  82.5854302  86.6346261  55.2301844
  80.5919361  84.5994202  52.9371799  81.1051243  85.2324194  53.4393509
  81.2420585  83.9995398  52.5715159  71.8609371  80.7424936  46.1503308
  71.0246684  81.0799623  46.4712582  71.7214141  80.6073916  45.2130445
  74.9473657  85.8681019  42.7735784  74.0400719  85.6370273  42.9726933
  75.4444689  85.0718639  42.9609765  77.8541736  94.5778526  45.6932470
  77.1803434  94.8810223  46.3017428  78.2407558  95.3807607  45.3437927
  77.8535240  83.4735073  50.3132820  78.6007059  83.9856471  50.0039942
  78.1226830  83.1519126  51.1737213  76.1261890  85.9693614  47.2959774
  75.2173109  85.6852647  47.3932244  76.1556974  86.3892693  46.4363081
  81.3581158  89.5800204  51.0650942  80.9043485  88.7391114  51.1216132
  80.7275124  90.2161602  51.4025722  80.3014077  80.5092190  52.2951609
  79.5636834  79.9969576  52.6261852  80.5540851  80.0692571  51.4834886
  79.8014097  91.4176700  52.0000760  80.0937071  91.9781757  51.2813125
  80.3112717  91.7105261  52.7553919  80.4025705  73.2868442  52.8893378
  80.7084581  72.4265805  52.6019293  81.1278309  73.8786062  52.6892372
  75.8237978  87.5102358  44.6347853  75.3857408  86.7938217  44.1753490
  76.5648419  87.7378473  44.0732944  74.7647722  92.1957051  53.0894213
  74.7223901  92.4217898  52.1602745  75.6810421  91.9620426  53.2380014
  78.2113356  82.6641119  59.9874842  78.5662744  82.8912592  60.8469308
  78.8585487  82.9959496  59.3652097  83.9411093  85.7859555  50.6924171
  83.8028991  85.9761151  49.7645360  83.5847312  86.5478938  51.1492222
  83.9680472  87.8536082  55.7035443  84.4016979  87.7611371  56.5518497
  84.6812053  87.8293582  55.0655459  72.8813523  89.0720080  52.8856176
  73.6754121  88.5770401  52.6838751  72.1705215  88.5437944  52.5223881
  77.7008367  91.4538176  57.2368543  77.7545390  92.0229112  58.0046259
  76.8323149  91.6240061  56.8722580  69.1896286  83.2163162  48.9615928
  68.2593874  83.1547618  49.1785890  69.2853758  82.6939115  48.1652570
  84.8296022  87.8959783  58.2368328  85.0231912  88.8005593  58.4827603
  84.7296640  87.4367202  59.0706913  76.4832333  77.7817673  60.7358655
  75.8360248  78.4807623  60.6423132  77.2533348  78.2153817  61.1034904
  79.8911131  88.0466525  63.8109209  79.7396637  87.8177077  62.8939292
  79.8815810  89.0037127  63.8240554  76.6596467  85.6198438  58.7955475
  77.5888527  85.7709598  58.6224442  76.2387497  85.7082459  57.9404122
  75.4584799  89.6449102  56.5654013  75.3195885  89.2767887  57.4379951
  74.6699395  90.1596742  56.3937971  76.0532951  94.7458199  47.9079549
  76.2284706  94.2746242  48.7225172  75.3665739  95.3723965  48.1360810
  77.0090014  89.0230705  53.9542851  76.6739847  88.9831475  54.8500500
  76.5093960  88.3575421  53.4813261  70.9834258  84.4298335  59.4795432
  70.8454056  83.6978574  60.0806971  71.8939181  84.3407235  59.1979619
  79.9449206  86.3686739  44.2279910  79.3278376  85.6433568  44.1312963
  79.4765694  87.1296100  43.8846984  73.6116559  84.1418294  58.9679111
  74.3216177  83.5011487  58.9265730  73.5685867  84.3931189  59.8905292
  81.6003337  91.0785648  61.8885691  81.5415883  90.3944868  61.2216274
  82.0022856  91.8204638  61.4366317  72.3245493  81.1283512  60.7874751
  71.7882850  80.6774251  61.4396347  71.7362201  81.2629421  60.0445215
  70.6194036  97.8947562  54.6819409  70.8590634  98.5266086  55.3598428
  69.7763233  97.5435602  54.9684769  71.7347752  80.5872164  43.3501214
  70.8577218  80.4660965  42.9863461  72.2105505  79.7958242  43.0980103
  81.6020745  89.0425232  60.1199670  80.7147523  88.7051154  60.2426069
  82.1719296  88.3108263  60.3568436  75.1321898  93.7026684  57.0860913
  75.0592069  94.5081656  57.5980218  74.6899291  93.9018650  56.2608935
  74.9211678  92.9398454  50.5963735  74.1379199  93.4820134  50.6901959
  75.6204423  93.4572434  50.9957976  78.2308328  78.7493084  53.2397940
  78.7277027  77.9963046  52.9199011  77.4595309  78.7857400  52.6741150
  86.0838085  84.4533449  54.8816232  86.0727961  85.3358165  54.5110165
  85.2155465  84.1005000  54.6870769  77.5920581  93.6013518  59.2419072
  78.3048554  94.2360983  59.1694974  77.1010610  93.6977384  58.4259074
  79.3138108  87.5064771  50.8136364  78.3794387  87.6266233  50.6441068
  79.4914777  86.6037238  50.5496374  82.7010660  83.3482090  51.3486398
  83.1671112  84.1810082  51.2746701  83.1518160  82.8827072  52.0531656
  72.6432495  91.3507962  60.0624643  73.3441954  91.9844445  60.2154037
  72.1727610  91.6922693  59.3020282  80.7686891  89.6925911  48.3472550
  81.0446735  89.5782506  49.2566424  79.8991390  89.2943396  48.3084723
  80.6727322  75.7162677  55.3877299  79.7590402  75.9466904  55.5559506
  81.1020424  75.8001121  56.2391332  80.4433781  83.9052569  57.8877193
  79.7905231  84.1528476  57.2329646  80.8214161  83.0916707  57.5539671
  77.4040955  93.9412262  51.9905364  77.5863349  93.1233918  52.4533116
  78.2273941  94.1579954  51.5530254  77.7383120  92.8680447  49.2520412
  78.2670887  92.3572902  48.6390574  78.0011340  92.5522978  50.1165945
  76.4921354  84.6472380  64.3743230  75.8161991  84.5466509  65.0445606
  77.3148988  84.4911594  64.8379228  68.2400213  90.8844317  56.9955746
  68.8253650  90.1388005  57.1283650  68.0425052  91.1948273  57.8792410
  71.0938868  93.9195564  52.0118188  70.4249244  94.4041692  51.5282228
  70.9551738  94.1664784  52.9261567  75.2344137  95.9539308  58.6100846
  75.7862445  96.1170929  59.3749932  75.5750330  96.5443745  57.9380871
  80.0855011  90.7800565  64.4649501  80.6294915  91.3930523  63.9704456
  79.5041856  91.3380143  64.9816514  66.4626445  82.1814019  48.7914120
  66.7579886  81.2724697  48.7381174  65.5614481  82.1601758  48.4695122
  78.3712524  93.9021283  55.5964529  78.2463664  93.1011023  55.0875474
  79.0291615  94.3967476  55.1078498  80.4347433  91.7030303  57.2244079
  79.4877768  91.5835654  57.1522405  80.7830206  90.8152801  57.3070340
  77.4393866  91.4983019  53.4248431  77.2918828  90.5699727  53.6056001
  78.2647359  91.5203110  52.9405506  81.0427988  92.3211578  54.5113304
  81.9674535  92.1154439  54.3737755  80.8743291  92.0727979  55.4202645
  73.2924257  78.6475708  47.4822216  74.0132620  79.0256961  46.9785933
  72.6689561  79.3664585  47.5857194  77.4355380  79.3520857  48.4180548
  77.6518995  80.2345495  48.1169376  76.9549447  78.9607070  47.6886190
  80.8323304  92.8397246  49.8675395  81.0060181  92.2743668  49.1149247
  81.3252195  93.6398140  49.6854885  76.3079071  75.8678409  53.4486472
  76.3300768  75.9317742  52.4938452  76.7247130  75.0282918  53.6426978
  86.6862695  85.6033669  51.4865695  87.1293841  84.8540994  51.0884818
  85.8089205  85.5943805  51.1039427  81.8198476  92.1564010  46.9672293
  82.5149381  92.7770703  47.1859608  82.1621627  91.3059361  47.2424671
  67.4366286  83.9781811  60.8269111  66.6948022  84.1264446  61.4133741
  67.1159030  84.2390077  59.9635860  83.7189899  89.6063716  48.4959624
  84.2441224  89.9450988  47.7708944  83.6312252  88.6710731  48.3122759
  75.3809948  93.5197789  60.6249501  75.6897075  93.2746936  61.4972200
  76.1785430  93.7244428  60.1368371  75.4030560  95.6735699  52.8554877
  74.9635551  95.1812077  53.5487734  76.1538677  95.1308666  52.6146953
  67.8822899  91.8647240  52.8579505  68.7080919  91.5651012  52.4778149
  67.5316951  91.0954862  53.3069294  72.8504432  91.2173708  54.9277179
  72.2284442  90.5544413  54.6279407  73.5209299  91.2434840  54.2450827
  66.0831504  89.7833566  53.8168439  65.2463413  89.3555740  53.6352440
  66.0555150  89.9766009  54.7539230  83.4083806  90.2396619  63.8010822
  82.6179349  90.2220758  63.2615321  83.1717160  90.7784913  64.5559859
  83.5281681  87.0889086  61.1143551  83.5779686  86.9239093  62.0559073
  83.4195604  86.2216345  60.7241431  72.4117939  89.7677631  48.4035639
  72.5606060  90.4513096  47.7502312  73.2184383  89.7482721  48.9185095
  80.8185443  83.0720014  62.4302857  81.7195306  82.9326478  62.1386855
  80.8933418  83.2374468  63.3701035  75.1528248  80.4486868  61.2756044
  74.2831558  80.7420434  61.0038632  75.3887729  81.0327313  61.9963307
  85.0299877  89.5086027  61.3585572  84.7384686  89.8716008  62.1949033
  84.4172009  88.7953035  61.1798904  86.2295560  87.0738907  53.8788142
  87.0642451  87.5128711  54.0425703  86.3654689  86.5977560  53.0596388
  83.2787066  84.6318642  59.8265630  83.7541187  84.8246288  59.0184481
  82.3552631  84.6877827  59.5809014  70.1670572  85.7942809  49.4096708
  69.9216614  84.8905139  49.6076919  70.3366487  85.7959959  48.4676186
  77.8567282  76.6666485  58.7921464  78.3749226  77.4027512  58.4667953
  77.5022415  76.9730479  59.6268223  69.4366220  81.5271166  46.9082870
  68.7435465  81.6015521  46.2522906  69.1917972  80.7631510  47.4304387
  78.1079876  73.0866768  54.3122361  78.3881630  72.4189957  54.9382787
  78.8930483  73.2795863  53.7997024  75.9113345  92.2625762  45.8747387
  75.3387312  92.8815949  45.4217859  76.4846139  92.8125123  46.4087309
  81.9788735  81.5084402  58.0593936  82.9306158  81.6082499  58.0806160
  81.8092185  80.7162670  58.5692020  80.0003114  78.5939985  58.2453337
  79.4053046  78.8744998  57.5499825  79.7152811  79.0833886  59.0170078
  79.1310605  92.5462912  47.0055969  80.0641278  92.4808473  47.2088845
  79.0433817  93.3819179  46.5470502  81.7598621  91.8628782  43.9659917
  81.6812253  91.5288646  44.8595675  82.5808288  92.3550550  43.9651389
  84.4576812  84.7290521  57.1736235  84.4253133  83.7906522  57.3595919
  85.0677436  84.8074558  56.4402060  76.2960143  83.5986574  43.2163439
  77.2419248  83.4692783  43.2851857  75.9174388  82.8601236  43.6932868
  84.6071301  81.5201565  57.2194519  84.0910350  80.7360022  57.0324447
  85.4911249  81.1920281  57.3841038  82.2682028  75.2642580  53.1790331
  82.0706849  74.9557669  54.0633663  82.8781733  75.9904219  53.3088261
  90.2753362  85.7906528  56.3142272  91.0056751  85.5291816  56.8749975
  89.6660308  85.0535250  56.3544340  88.3568659  83.9314391  56.9116723
  87.6301823  83.7970356  56.3033215  87.9415946  84.2391219  57.7173441
  76.1798836  87.6504321  64.6764096  77.1001845  87.8282920  64.8704143
  76.1448419  86.7060366  64.5243796  74.4803060  81.5236551  43.1518325
  73.5734516  81.2269664  43.2281038  74.7579041  81.2266369  42.2852611
  69.1760908  85.5605355  57.3186878  69.3946918  86.4922463  57.3374911
  69.5886682  85.2013330  58.1041681  76.0965126  76.0673441  49.3062566
  75.2865855  75.7220525  49.6817812  76.7849543  75.7580984  49.8950177
  78.0255674  75.1451487  50.9286863  78.5786713  75.5646941  51.5876886
  78.2625761  74.2187235  50.9709819  74.0488774  81.1338561  66.7089626
  73.9485501  82.0832918  66.6401718  73.8310316  80.8056800  65.8365697
  73.2501845  78.3823486  43.2930304  74.1121009  78.7078384  43.5526121
  73.4352189  77.5954982  42.7803370  81.4034482  77.2552012  50.4365527
  80.8233151  77.9136817  50.0543579  81.1370414  76.4329357  50.0252944
  79.8538048  76.6557070  52.6386847  80.3537826  76.7673605  51.8301166
  80.4973656  76.3518123  53.2787656  73.9120044  84.5635700  65.5254688
  73.4287125  85.3636060  65.7318577  73.9980983  84.5743645  64.5722132
  69.8393381  88.4540235  57.5623122  70.7936635  88.4224177  57.4953053
  69.6405905  87.9930858  58.3773348  70.4292763  87.0241351  60.1293920
  71.2485652  87.5185429  60.1528757  70.7029571  86.1073319  60.1011487
  80.1859360  79.4152103  49.4921875  79.2985215  79.7001753  49.2742070
  80.6013349  79.2545866  48.6449152  83.5373896  79.4398624  53.2076214
  84.3134286  79.9295076  53.4800831  82.8122030  79.8656678  53.6648084
  85.9746454  80.1526243  54.2650155  86.5690945  79.9121979  53.5543463
  86.0473038  79.4333374  54.8923691  68.1943610  93.9959854  54.5793320
  68.0598078  93.2360255  54.0131318  67.7775672  94.7200754  54.1122109
  79.3302573  89.1796778  43.5869895  80.0338423  89.3846780  44.2027551
  78.6065222  89.7473539  43.8518979  80.1600383  84.9306639  49.7072165
  80.1035585  85.3875190  48.8679798  80.7128726  84.1697323  49.5295008
  83.9705189  80.7196371  50.5322285  83.7142123  80.3193006  51.3630492
  83.3458057  81.4340165  50.4072424  88.2817527  83.4592444  53.0393576
  87.7217085  83.5285633  53.8125138  87.6761030  83.2833429  52.3193072
  71.3512736  94.8929171  54.7911762  71.2345120  95.8374604  54.6890453
  70.5305182  94.5902733  55.1797562  81.2389270  89.6179307  45.6368355
  82.0734874  89.1860505  45.4545830  81.0773613  89.4461320  46.5645250
  80.8935163  86.1211420  47.0024694  80.8383966  85.9555691  46.0613139
  80.2681218  86.8287453  47.1586884  78.2081070  88.4260332  66.3278257
  79.0772229  88.6000984  65.9664892  77.7287821  89.2454749  66.2053987
  74.2031288  75.6219529  46.5810013  74.1909958  76.5661369  46.7378284
  75.0954710  75.4389674  46.2869474  72.3767250  95.5457433  58.0067691
  73.2794497  95.5781043  58.3234186  72.1504620  94.6157884  58.0214027
  74.1320852  94.2988419  54.6677769  73.1816483  94.2990281  54.5542142
  74.4353338  93.5521154  54.1513804  78.0183408  72.2162306  50.8355950
  77.2515803  71.6620792  50.9812632  78.4294113  72.2884174  51.6970101
  89.8673546 100.1348958  55.7323532  90.5051956 100.0155705  55.0286872
  89.7494388 101.0829802  55.7911484  86.6763252 100.0876386  55.6685057
  86.3381763  99.9717451  54.7805591  87.5453020  99.6867551  55.6486063
  82.5350068 101.9411862  51.6581948  81.9714933 101.8501799  50.8898235
  82.4202463 101.1211767  52.1384440  87.1583035 101.2411238  61.6271262
  87.1471676 100.8464036  60.7551766  87.3203674 100.5077310  62.2205034
  80.0814499 103.4363054  54.4966168  80.8735791 103.0953879  54.0812467
  80.3211150 103.5458029  55.4168321  88.1149626 105.6082830  46.9696412
  87.4637606 106.1936910  46.5830426  88.9093989 106.1389025  47.0291450
  82.0405253 102.6971967  47.3683547  82.8136129 102.1500954  47.2296423
  82.3930652 103.5616217  47.5798008  83.8790296 104.0248349  60.5750446
  83.5880162 104.9293980  60.4597112  84.5147280 104.0664877  61.2894516
  84.8046503 101.4025198  57.1651806  85.4010075 101.1781220  56.4508769
  84.8621474 100.6609943  57.7677254  84.3771531  98.8564633  45.0001997
  84.6297052  98.3346155  44.2385460  83.4396090  98.6930779  45.1028680
  89.4214814  97.8600412  52.8076740  90.2077903  97.4419835  52.4567157
  89.6853518  98.7646504  52.9758388  89.5924891 103.2973262  47.5065397
  88.9570724 103.3707889  48.2186301  89.2622298 103.8866861  46.8284476
  94.8223241  97.7975645  53.7109718  95.5548413  97.2274862  53.9447548
  94.0662597  97.4097245  54.1516224  84.0967820 100.7592739  47.2026372
  83.9804078 100.0837643  47.8707456  84.2070080 100.2725113  46.3858525
  86.4399361 100.2202886  50.9073061  86.0757568  99.6933507  51.6185982
  87.2966477  99.8301355  50.7339546  92.3448662  91.5097219  58.1704327
  92.0131986  92.3792630  57.9465542  91.7494275  91.1933503  58.8498357
  86.0804848  95.2492786  45.9034409  86.2479250  96.1173022  46.2704880
  85.8902017  95.4120068  44.9795699  88.8380181 103.7109765  57.5700240
  88.5380904 104.6134804  57.4616047  88.4931241 103.4441948  58.4221393
  82.2892663 100.1623562  53.6036944  81.3643159 100.0299776  53.8114636
  82.5377076 100.9417781  54.1006887  92.2377325  96.2292305  55.2497677
  91.3294202  96.1607714  54.9556438  92.1864921  96.7064250  56.0779503
  86.0594069  97.7050444  46.8881076  85.9393694  98.1507494  47.7266556
  85.3646657  98.0535761  46.3294614  79.6501474  99.8056835  54.4380733
  79.7793855 100.0591314  55.3520145  78.9698925 100.3984543  54.1185388
  86.3118191  97.6481951  63.1932574  85.5351525  98.2075871  63.1835439
  86.9508754  98.1338734  63.7147444  94.1038971  94.4308744  57.0275551
  93.4613351  94.7241277  56.3815346  93.5993900  94.3161664  57.8328748
  91.7579135  98.1771917  47.7161410  92.6696991  98.4099304  47.5409108
  91.2488782  98.7608961  47.1536489  84.5664563 100.4567404  62.7550541
  85.3079247 100.9952448  62.4785365  83.8601548 101.0833693  62.9122093
  90.0419903 102.5996545  61.3522703  90.4503259 102.1578955  60.6077335
  89.3197164 102.0249172  61.6056896  86.3950973  97.5369151  58.7256260
  87.2412168  97.9608565  58.8690909  86.3349610  96.8802776  59.4194823
  90.3648717 103.1597735  55.1074992  89.7357580 103.3243449  54.4051060
  89.9774379 103.5739345  55.8785956  89.5450418  95.1973520  60.3837433
  89.3011350  95.9515580  59.8471709  89.8210348  95.5758867  61.2184680
  91.4988881 101.7412132  59.0614699  91.7105776 102.3843892  58.3849080
  91.4518629 100.9074449  58.5936629  89.1015110  94.3529953  55.9651271
  88.2399589  94.6511206  56.2568009  89.1277544  94.5700352  55.0332304
  85.9176679 102.8972143  52.3725077  86.3815025 103.1759846  51.5829699
  85.6533477 101.9955588  52.1898167  82.8100760 102.4443625  55.3104840
  83.3802117 102.8730893  54.6722325  83.4008872 102.1626210  56.0089026
  84.8545565  99.0195296  49.1814642  85.5569608  99.4716339  49.6488568
  84.5226194  98.3779115  49.8094535  83.3025927  97.6107052  63.5565851
  82.6724587  98.2923333  63.7901248  83.1962015  97.4990134  62.6118990
  78.5970899  97.2778848  54.4831776  77.8069953  97.5336377  54.0071886
  79.0882146  98.0927186  54.5883816  80.5485644  97.6423428  51.4415252
  79.7516808  97.7542122  51.9598748  80.3211237  97.9810080  50.5756143
  86.3791312 104.1668131  59.3897767  86.4435745 104.6288538  60.2255939
  85.6702236 103.5365496  59.5180077  76.8808602  97.5309339  56.9146766
  77.1316641  98.4156349  57.1804342  77.4168150  97.3513940  56.1421858
  86.0939330 105.8336238  49.2576747  85.9585005 106.6787774  49.6861595
  86.6349142 106.0355516  48.4942681  82.5806669  91.9127818  65.9191102
  82.1873615  91.3594017  66.5938747  83.3972810  92.2238397  66.3097620
  79.5468727 103.3511676  49.8304672  80.0593248 104.1454927  49.9810237
  80.1991440 102.6537967  49.7638274  81.3563612 106.4677433  51.9127425
  81.5330240 107.3895397  51.7248409  82.1520445 106.1535852  52.3421805
  85.4974630  93.3285697  63.5111359  86.2384344  93.9292850  63.4315821
  85.7292553  92.5863335  62.9529402  80.6415968  98.5142065  61.7889589
  80.5269484  97.6127322  62.0896688  79.7860486  98.7605761  61.4374405
  82.4794927 107.9855606  57.9137768  83.0302352 107.8572670  57.1414762
  81.6406403 108.2850495  57.5632661  86.2762098 104.2506734  62.2581999
  86.8090435 103.4895022  62.0281307  85.7476179 103.9580386  63.0006153
  89.4431793  89.3566800  57.7875641  89.0996063  90.2468442  57.7114751
  89.8110756  89.1668458  56.9245226  77.5117644 101.6800331  50.6064243
  78.3492866 102.0897339  50.3897951  77.6895912 100.7399773  50.5764437
  89.4082076  99.3475411  46.2948076  88.8928699 100.1180016  46.5336463
  89.1359385  98.6740547  46.9181137  86.9929187  94.1925112  51.3533314
  86.1370783  93.8031962  51.1738953  87.4056139  94.2717073  50.4933100
  88.5228334  91.7271455  55.7524874  88.0193129  91.6901590  54.9392679
  88.8158941  92.6364198  55.8121531  84.7671220  91.8110185  54.7591056
  85.6324216  91.6152994  54.3996945  84.8348729  91.5820537  55.6860412
  89.1968379  97.2202503  48.1207857  88.8918515  97.5348653  48.9718000
  90.1498821  97.2983923  48.1635190  87.6414811 103.3792727  49.7700811
  87.1136173 102.6445486  49.4574048  87.1402314 104.1567403  49.5240779
  92.6207657 101.5741747  54.8867857  91.9631332 102.2641009  54.9747986
  93.4248056 101.9638179  55.2301844  82.3733539  94.0412393  52.1307422
  82.9477291  93.8187574  51.3980615  82.9604521  94.1101087  52.8836024
  91.4313116  99.9286120  52.9371799  91.9444998 100.5616112  53.4393509
  92.0814340  99.3287315  52.5715159  82.7003126  96.0716854  46.1503308
  81.8640438  96.4091541  46.4712582  82.5607895  95.9365834  45.2130445
  84.6756206  90.9153642  50.8582492  84.0220619  90.6002659  50.2339107
  84.6336681  90.2929382  51.5842315  85.7867411 101.1972937  42.7735784
  84.8794473 100.9662190  42.9726933  86.2838443 100.4010556  42.9609765
  87.9093947  97.4035575  55.1830139  86.9916508  97.6250522  55.0251828
  88.3254090  97.4781886  54.3241847  88.6928995  98.8026991  50.3132820
  89.4400813  99.3148388  50.0039942  88.9620584  98.4811044  51.1737213
  86.9655645 101.2985532  47.2959774  86.0566864 101.0144565  47.3932244
  86.9950729 101.7184610  46.4363081  91.1407832  95.8384107  52.2951609
  90.4030588  95.3261494  52.6261852  91.3934605  95.3984489  51.4834886
  91.2419459  88.6160359  52.8893378  91.5478336  87.7557723  52.6019293
  91.9672064  89.2077980  52.6892372  77.5343815  99.0191046  51.2774976
  77.3368215  98.4260407  50.5526043  76.9790479  98.7143256  51.9950915
  85.5140539  98.9114152  53.3969569  85.5689149  97.9587989  53.3212046
  84.7031741  99.0673592  53.8810868  86.6631733 102.8394276  44.6347853
  86.2251162 102.1230134  44.1753490  87.4042173 103.0670390  44.0732944
  83.4532899  97.5291212  51.1559948  82.6400764  97.8285383  51.5625140
  83.9491893  97.1346901  51.8734431  85.6041477 107.5248969  53.0894213
  85.5617655 107.7509815  52.1602745  86.5204175 107.2912344  53.2380014
  89.0507110  97.9933037  59.9874842  89.4056498  98.2204510  60.8469308
  89.6979242  98.3251413  59.3652097  94.7804847 101.1151473  50.6924171
  94.6422746 101.3053069  49.7645360  94.4241066 101.8770855  51.1492222
  82.9446973  95.1009568  56.7721183  83.5846353  94.9598327  56.0744147
  82.1124504  94.8144081  56.3959785  83.7207277 104.4011998  52.8856176
  84.5147876 103.9062318  52.6838751  83.0098970 103.8729861  52.5223881
  80.0290041  98.5455080  48.9615928  79.0987629  98.4839535  49.1785890
  80.1247513  98.0231033  48.1652570  79.9475590  95.0709893  51.5494170
  80.2082407  95.9855226  51.4403330  80.7692762  94.6034335  51.6990783
  81.4200515  96.4847650  58.7192995  82.0923569  96.2765012  58.0705643
  80.5930302  96.2869736  58.2798227  87.3226087  93.1109591  60.7358655
  86.6754002  93.8099540  60.6423132  88.0927103  93.5445735  61.1034904
  90.7304885 103.3758443  63.8109209  90.5790392 103.1468995  62.8939292
  90.7209565 104.3329044  63.8240554  87.4990222 100.9490356  58.7955475
  88.4282282 101.1001515  58.6224442  87.0781252 101.0374376  57.9404122
  86.2978553 104.9741020  56.5654013  86.1589639 104.6059805  57.4379951
  85.5093150 105.4888660  56.3937971  87.8483768 104.3522623  53.9542851
  87.5133601 104.3123393  54.8500500  87.3487714 103.6867339  53.4813261
  81.8228012  99.7590253  59.4795432  81.6847810  99.0270492  60.0806971
  82.7332936  99.6699153  59.1979619  90.7842960 101.6978657  44.2279910
  90.1672131 100.9725485  44.1312963  90.3159449 102.4588017  43.8846984
  84.4510313  99.4710212  58.9679111  85.1609932  98.8303404  58.9265730
  84.4079621  99.7223107  59.8905292  83.1639247  96.4575430  60.7874751
  82.6276604  96.0066168  61.4396347  82.5755956  96.5921339  60.0445215
  82.5741506  95.9164081  43.3501214  81.6970972  95.7952882  42.9863461
  83.0499259  95.1250160  43.0980103  74.0943646 100.7041241  53.4442722
  74.7814686 100.3902971  52.8563737  73.9391775 101.6082606  53.1709973
  78.8978368  95.5931438  57.8727745  78.8136557  94.9857107  57.1378155
  78.0761075  96.0840456  57.8737242  89.0702082  94.0785001  53.2397940
  89.5670782  93.3254964  52.9199011  88.2989064  94.1149318  52.6741150
  90.1531863 102.8356688  50.8136364  89.2188142 102.9558151  50.6441068
  90.3308531 101.9329155  50.5496374  85.6537051  96.2202384  52.9669625
  85.2834838  95.6673425  53.6550531  86.1496143  95.6160518  52.4144625
  93.5404414  98.6774008  51.3486398  94.0064866  99.5101999  51.2746701
  93.9911915  98.2118989  52.0531656  83.4826249 106.6799879  60.0624643
  84.1835709 107.3136362  60.2154037  83.0121364 107.0214611  59.3020282
  91.5121077  91.0454595  55.3877299  90.5984157  91.2758822  55.5559506
  91.9414178  91.1293039  56.2391332  91.2827535  99.2344487  57.8877193
  90.6298986  99.4820394  57.2329646  91.6607915  98.4208625  57.5539671
  87.3315108  99.9764298  64.3743230  86.6555746  99.8758427  65.0445606
  88.1542742  99.8203512  64.8379228  79.0793968 106.2136234  56.9955746
  79.6647404 105.4679922  57.1283650  78.8818806 106.5240191  57.8792410
  81.9332623 109.2487482  52.0118188  81.2642998 109.7333609  51.5282228
  81.7945492 109.4956702  52.9261567  73.6711622  98.7841835  55.7160189
  73.7095722  98.2505425  56.5097307  73.1651915  98.2577040  55.0971166
  81.0502385  93.6306375  59.2122731  81.1143711  94.4921206  58.8000129
  80.9869505  93.0180377  58.4795090  80.5254657  95.7029508  62.8595765
  81.1526696  95.3206585  63.4733290  79.6682576  95.4843710  63.2251458
  77.3020200  97.5105937  48.7914120  77.5973641  96.6016615  48.7381174
  76.4008236  97.4893676  48.4695122  80.8314447  95.5861933  54.7741669
  80.1101033  96.1997901  54.6349142  81.6207703  96.1219698  54.6958315
  83.6340760  92.9216360  61.0482321  84.1575162  93.1678656  61.8108630
  83.4153094  93.7536395  60.6285458  79.0308041  95.1920034  48.9153445
  78.7020748  94.3117413  48.7328551  79.3847412  95.1367703  49.8029835
  82.1449865  95.4793004  49.2828923  82.4845937  96.0078925  48.5607531
  82.5921985  95.8173410  50.0587490  84.8393305  93.8630055  58.7331991
  84.4990126  93.0637868  59.1352671  84.1332312  94.1631766  58.1608824
  85.4909777  90.9479367  57.1859314  86.3135847  90.4739845  57.0638204
  85.7347841  91.7269851  57.6858000  84.1318012  93.9767626  47.4822216
  84.8526374  94.3548879  46.9785933  83.5083316  94.6956503  47.5857194
  88.2749135  94.6812775  48.4180548  88.4912749  95.5637413  48.1169376
  87.7943202  94.2898988  47.6886190  83.0148356  97.6398488  54.9951293
  82.8692937  97.9538791  55.8875574  82.5373560  98.2583388  54.4422191
  84.8744739  94.6301036  55.0432182  84.8606308  93.7342129  54.7064480
  85.5917167  94.6371700  55.6770468  86.7270870  95.0638376  57.0885310
  86.4688647  95.9855447  57.0869640  86.1955910  94.6668811  57.7785774
  77.4894018 100.1803832  57.9338954  76.9447486 100.9563640  58.0659228
  78.3673368 100.5274637  57.7758075  84.2781635  93.5115416  50.3119752
  84.3997546  92.5832062  50.5110640  83.9883677  93.5254102  49.3998068
  87.1472825  91.1970327  53.4486472  87.1694522  91.2609660  52.4938452
  87.5640884  90.3574835  53.6426978  78.2760040  99.3073729  60.8269111
  77.5341776  99.4556364  61.4133741  77.9552784  99.5681994  59.9635860
  78.7216654 107.1939157  52.8579505  79.5474674 106.8942929  52.4778149
  78.3710706 106.4246780  53.3069294  83.6898187 106.5465626  54.9277179
  83.0678196 105.8836331  54.6279407  84.3603054 106.5726757  54.2450827
  76.9225259 105.1125484  53.8168439  76.0857167 104.6847658  53.6352440
  76.8948904 105.3057927  54.7539230  83.7622714  95.0247414  64.5209685
  83.8110870  95.9009536  64.1387455  84.3045229  94.4824807  63.9481328
  83.2511694 105.0969549  48.4035639  83.3999814 105.7805013  47.7502312
  84.0578137 105.0774639  48.9185095  91.6579197  98.4011931  62.4302857
  92.5589060  98.2618396  62.1386855  91.7327172  98.5666386  63.3701035
  85.9922003  95.7778786  61.2756044  85.1225312  96.0712352  61.0038632
  86.2281483  96.3619231  61.9963307  94.1180820  99.9610559  59.8265630
  94.5934942 100.1538206  59.0184481  93.1946386 100.0169745  59.5809014
  81.0064327 101.1234727  49.4096708  80.7610369 100.2197057  49.6076919
  81.1760241 101.1251877  48.4676186  88.6961037  91.9958403  58.7921464
  89.2142981  92.7319430  58.4667953  88.3416169  92.3022396  59.6268223
  80.2759974  96.8563084  46.9082870  79.5829219  96.9307439  46.2522906
  80.0311726  96.0923428  47.4304387  88.9473631  88.4158685  54.3122361
  89.2275385  87.7481874  54.9382787  89.7324238  88.6087781  53.7997024
  92.8182489  96.8376319  58.0593936  93.7699912  96.9374417  58.0806160
  92.6485940  96.0454588  58.5692020  90.8396869  93.9231903  58.2453337
  90.2446801  94.2036915  57.5499825  90.5546565  94.4125804  59.0170078
  95.2970567 100.0582439  57.1736235  95.2646887  99.1198440  57.3595919
  95.9071191 100.1366476  56.4402060  87.1353898  98.9278492  43.2163439
  88.0813003  98.7984700  43.2851857  86.7568143  98.1893154  43.6932868
  95.4465055  96.8493483  57.2194519  94.9304104  96.0651939  57.0324447
  96.3305004  96.5212199  57.3841038  93.1075782  90.5934498  53.1790331
  92.9100603  90.2849586  54.0633663  93.7175488  91.3196137  53.3088261
  87.0192590 102.9796238  64.6764096  87.9395600 103.1574837  64.8704143
  86.9842173 102.0352284  64.5243796  85.3196815  96.8528468  43.1518325
  84.4128270  96.5561581  43.2281038  85.5972796  96.5558287  42.2852611
  76.2374755  98.1734832  53.6017371  75.9177540  97.3200140  53.3091745
  75.6908184  98.3883410  54.3575338  80.0154663 100.8897273  57.3186878
  80.2340673 101.8214381  57.3374911  80.4280437 100.5305247  58.1041681
  86.9358881  91.3965358  49.3062566  86.1259609  91.0512443  49.6817812
  87.6243298  91.0872902  49.8950177  88.8649429  90.4743405  50.9286863
  89.4180468  90.8938858  51.5876886  89.1019515  89.5479153  50.9709819
  84.8882528  96.4630479  66.7089626  84.7879255  97.4124836  66.6401718
  84.6704070  96.1348718  65.8365697  84.0895600  93.7115404  43.2930304
  84.9514764  94.0370302  43.5526121  84.2745944  92.9246900  42.7803370
  76.1063015 101.7937743  55.5710493  75.4126487 101.3791696  55.0580447
  76.8536006 101.8358280  54.9743912  92.2428236  92.5843930  50.4365527
  91.6626905  93.2428734  50.0543579  91.9764169  91.7621275  50.0252944
  90.6931802  91.9848988  52.6386847  91.1931581  92.0965522  51.8301166
  91.3367410  91.6810041  53.2787656  84.7513798  99.8927617  65.5254688
  84.2680880 100.6927978  65.7318577  84.8374737  99.9035562  64.5722132
  78.0199758 101.7255997  53.4476507  77.9970446 101.8243684  52.4958391
  78.3300394 102.5721148  53.7693674  80.6787136 103.7832152  57.5623122
  81.6330389 103.7516095  57.4953053  80.4799659 103.3222776  58.3773348
  81.2686518 102.3533268  60.1293920  82.0879407 102.8477347  60.1528757
  81.5423326 101.4365236  60.1011487  91.0253114  94.7444021  49.4921875
  90.1378969  95.0293671  49.2742070  91.4407103  94.5837784  48.6449152
  94.3767650  94.7690542  53.2076214  95.1528040  95.2586994  53.4800831
  93.6515784  95.1948596  53.6648084  96.8140209  95.4818161  54.2650155
  97.4084700  95.2413897  53.5543463  96.8866793  94.7625291  54.8923691
  79.0337365 109.3251772  54.5793320  78.8991832 108.5652173  54.0131318
  78.6169427 110.0492672  54.1122109  90.1696328 104.5088695  43.5869895
  90.8732178 104.7138698  44.2027551  89.4458976 105.0765457  43.8518979
  90.9994138 100.2598556  49.7072165  90.9429339 100.7167108  48.8679798
  91.5522480  99.4989241  49.5295008  94.8098944  96.0488288  50.5322285
  94.5535878  95.6484924  51.3630492  94.1851812  96.7632082  50.4072424
  99.1211282  98.7884362  53.0393576  98.5610840  98.8577551  53.8125138
  98.5154785  98.6125346  52.3193072  91.7328917 101.4503338  47.0024694
  91.6777721 101.2847609  46.0613139  91.1074972 102.1579371  47.1586884
  76.5221432  96.6871402  60.8286117  77.1680296  96.1770356  61.3173342
  76.3138583  97.4240084  61.4029542  89.0474824 103.7552250  66.3278257
  89.9165984 103.9292902  65.9664892  88.5681576 104.5746666  66.2053987
  85.0425043  90.9511447  46.5810013  85.0303712  91.8953287  46.7378284
  85.9348464  90.7681592  46.2869474  88.8577162  87.5454223  50.8355950
  88.0909558  86.9912710  50.9812632  89.2687867  87.6176092  51.6970101
  80.8618923  93.8339019  64.9261131  81.7250385  93.4775824  65.1364455
  80.2884334  93.4952914  65.6136535  35.6704774   0.4951492  42.4568839
  36.3083184   0.3758239  41.7532179  35.5525617   1.4432336  42.5156791
  32.4794481   0.4478920  42.3930363  32.1412992   0.3319985  41.5050898
  33.3484249   0.0470085  42.3731369  28.3381296   2.3014397  38.3827254
  27.7746161   2.2104334  37.6143542  28.2233691   1.4814301  38.8629747
  32.9614264   1.6013772  48.3516569  32.9502904   1.2066570  47.4797072
  33.1234903   0.8679845  48.9450340  25.8845728   3.7965588  41.2211475
  26.6767020   3.4556413  40.8057774  26.1242378   3.9060563  42.1413628
  33.9180855   5.9685364  33.6941719  33.2668835   6.5539445  33.3075733
  34.7125218   6.4991559  33.7536757  27.8436482   3.0574501  34.0928853
  28.6167358   2.5103489  33.9541729  28.1961881   3.9218751  34.3043315
  29.6821525   4.3850884  47.2995753  29.3911391   5.2896515  47.1842419
  30.3178509   4.4267411  48.0139822  30.6077732   1.7627732  43.8897112
  31.2041304   1.5383755  43.1754075  30.6652703   1.0212478  44.4922560
  30.1802760  -0.7832832  31.7247303  30.4328281  -1.3051311  30.9630766
  29.2427319  -0.9466687  31.8273987  35.2246043  -1.7797054  39.5322047
  36.0109132  -2.1977631  39.1812464  35.4884747  -0.8750962  39.7003695
  35.3956120   3.6575796  34.2310703  34.7601953   3.7310423  34.9431608
  35.0653527   4.2469395  33.5529783  40.6254470  -1.8421821  40.4355025
  41.3579642  -2.4122604  40.6692855  39.8693826  -2.2300220  40.8761531
  29.8999049   1.1195274  33.9271678  29.7835307   0.4440177  34.5952763
  30.0101309   0.6327647  33.1103831  32.2430590   0.5805421  37.6318368
  31.8788797   0.0536042  38.3431289  33.0997706   0.1903890  37.4584853
  38.1479890  -8.1300247  44.8949634  37.8163215  -7.2604836  44.6710849
  37.5525504  -8.4463963  45.5743664  31.8836077  -4.3904680  32.6279716
  32.0510479  -3.5224443  32.9950187  31.6933246  -4.2277398  31.7041005
  34.6411410   4.0712299  44.2945546  34.3412133   4.9737338  44.1861354
  34.2962469   3.8044482  45.1466699  28.0923891   0.5226096  40.3282251
  27.1674388   0.3902310  40.5359943  28.3408305   1.3020315  40.8252193
  38.0408554  -3.4105161  41.9742984  37.1325431  -3.4789752  41.6801745
  37.9896149  -2.9333216  42.8024809  31.8625298  -1.9347022  33.6126383
  31.7424923  -1.4889971  34.4511863  31.1677886  -1.5861705  33.0539921
  25.4532702   0.1659370  41.1626040  25.5825084   0.4193849  42.0765452
  24.7730154   0.7587078  40.8430695  29.6232190  10.8356620  37.2616514
  29.5456219  11.7864445  37.3404995  29.0193833  10.4902492  37.9191440
  32.1149419  -1.9915515  49.9177881  31.3382754  -1.4321595  49.9080746
  32.7539982  -1.5058732  50.4392751  39.9070200  -5.2088722  43.7520858
  39.2644580  -4.9156189  43.1060652  39.4025129  -5.3235802  44.5574054
  37.5610364  -1.4625549  34.4406717  38.4728220  -1.2298162  34.2654414
  37.0520011  -0.8788505  33.8781796  30.3695792   0.8169938  49.4795848
  31.1110476   1.3554982  49.2030672  29.6632777   1.4436227  49.6367400
  35.8451131   2.9599079  48.0768009  36.2534487   2.5181489  47.3322642
  35.1228393   2.3851706  48.3302202  32.1982201  -2.1028314  45.4501566
  33.0443397  -1.6788901  45.5936215  32.1380839  -2.7594690  46.1440130
  36.1679946   3.5200269  41.8320298  35.5388808   3.6845984  41.1296366
  35.7805608   3.9341879  42.6031262  40.0469178   4.4554707  39.1864662
  39.3620216   4.8353609  38.6361695  40.1313027   5.0650034  39.9196610
  35.3481647  -4.4423946  47.1082740  35.1042579  -3.6881886  46.5717016
  35.6241577  -4.0638598  47.9429987  37.3020110   2.1014666  45.7860006
  37.5137005   2.7446426  45.1094387  37.2549858   1.2676983  45.3181936
  34.9046338  -5.2867513  42.6896578  34.0430818  -4.9886259  42.9813315
  34.9308773  -5.0697114  41.7577610  31.7207908   3.2574678  39.0970383
  32.1846253   3.5362381  38.3075006  31.4564706   2.3558122  38.9143474
  28.6131989   2.8046159  42.0350147  29.1833346   3.2333427  41.3967631
  29.2040101   2.5228744  42.7334332  30.6576794  -0.6202170  35.9059949
  31.3600837  -0.1681126  36.3733875  30.3257422  -1.2618351  36.5339842
  29.1057155  -2.0290413  50.2811158  28.4755816  -1.3474133  50.5146555
  28.9993243  -2.1407332  49.3364296  38.4165937   4.9786622  43.9582363
  39.2383381   4.5766809  43.6765045  38.4128340   4.8754856  44.9098479
  32.1822541   4.5270665  46.1143073  32.2466973   4.9891072  46.9501245
  31.4733465   3.8968030  46.2425383  46.5071931   1.3225370  40.3067334
  45.7535639   0.7532768  40.1511339  46.6419472   1.2888035  41.2537969
  31.8970559   6.1938773  35.9822054  31.7616233   7.0390308  36.4106902
  32.4380371   6.3958050  35.2187988  25.3499956   3.7114211  36.5549979
  25.8624477   4.5057461  36.7055544  26.0022669   3.0140501  36.4883580
  27.1594841   6.8279967  38.6372732  27.3361469   7.7497932  38.4493716
  27.9551674   6.5138386  39.0667112  26.4447197  -1.1255401  48.5134895
  26.3300712  -2.0270144  48.8141994  25.5891715  -0.8791705  48.1619712
  33.5239035   6.8162339  50.1122396  33.0802889   6.0298718  49.7943300
  34.1856249   7.0041490  49.4466287  28.2826156   8.3458141  44.6383074
  28.8333581   8.2175204  43.8660068  27.4437632   8.6453030  44.2877967
  35.6220273   7.0965139  48.1403797  35.6038748   7.9174020  47.6484066
  36.5440193   6.9719214  48.3653938  32.0793327   4.6109268  48.9827306
  32.6121664   3.8497557  48.7526614  31.5507408   4.3182920  49.7251460
  23.3148873   2.0402865  37.3309549  24.1524095   2.4499873  37.1143257
  23.4927140   1.1002307  37.3009743  35.2113305  -0.2922055  33.0193382
  34.6959928   0.4782550  33.2581770  34.9390613  -0.9656918  33.6426444
  32.7960416  -5.4472354  38.0778621  31.9402012  -5.8365503  37.8984259
  33.2087368  -5.3680393  37.2178406  40.1847579   2.4610300  34.9546556
  39.4077022   2.1221460  34.5101718  40.8639060   2.4662923  34.2801521
  34.9999608  -2.4194962  34.8453164  34.6949744  -2.1048813  35.6963307
  35.9530050  -2.3413543  34.8880497  33.4446040   3.7395261  36.4946118
  32.9167401   3.0048020  36.1819355  32.9433543   4.5169937  36.2486086
  38.4238886   1.9344281  41.6113164  37.7662560   2.6243543  41.6993292
  39.2279285   2.3240713  41.9547150  37.2344345   0.2888654  39.6617106
  37.7476226   0.9218646  40.1638815  37.8845569  -0.3110150  39.2960466
  31.5898640   1.5575471  29.4981091  30.6825702   1.3264725  29.6972240
  32.0869672   0.7613090  29.6855072  34.4966719  10.2672978  32.4177777
  33.8228418  10.5704675  33.0262735  34.8832541  11.0702059  32.0683234
  33.7125176  -2.2361890  41.9075446  32.7947737  -2.0146943  41.7497134
  34.1285319  -2.1615580  41.0487153  34.4960223  -0.8370475  37.0378126
  35.2432042  -0.3249077  36.7285248  34.7651813  -1.1586422  37.8982520
  32.7686874   1.6588066  34.0205081  31.8598093   1.3747099  34.1177550
  32.7981957   2.0787145  33.1608388  38.0006141   5.2694656  37.7896248
  37.5468468   4.4285565  37.8461439  37.3700108   5.9056054  38.1271028
  36.9439060  -3.8013358  39.0196916  36.2061817  -4.3135972  39.3507158
  37.1965834  -4.2412977  38.2080193  36.4439080   7.1071152  38.7246066
  36.7362055   7.6676209  38.0058432  36.9537701   7.3999713  39.4799225
  31.3171768  -0.7283313  40.1214876  31.3720377  -1.6809477  40.0457353
  30.5062970  -0.5723874  40.6056174  32.4662961   3.1996810  31.3593159
  32.0282391   2.4832669  30.8998797  33.2073402   3.4272925  30.7978251
  29.2564127  -2.1106254  37.8805255  28.4431993  -1.8112083  38.2870447
  29.7523122  -2.5050565  38.5979737  31.4072705   7.8851503  39.8139520
  31.3648884   8.1112350  38.8848052  32.3235404   7.6514878  39.9625321
  34.8538339  -1.6464429  46.7120149  35.2087727  -1.4192956  47.5714615
  35.5010470  -1.3146052  46.0897404  40.5836076   1.4754007  37.4169478
  40.4453975   1.6655603  36.4890667  40.2272295   2.2373390  37.8737529
  40.6105456   3.5430534  42.4280749  41.0441962   3.4505823  43.2763803
  41.3237036   3.5188034  41.7900765  29.5238506   4.7614532  39.6101482
  30.3179105   4.2664852  39.4084057  28.8130199   4.2332395  39.2469188
  34.3433351   7.1432628  43.9613850  34.3970373   7.7123564  44.7291566
  33.4748132   7.3134513  43.5967887  41.4721005   3.5854234  44.9613635
  41.6656895   4.4900045  45.2072910  41.3721623   3.1261653  45.7952220
  33.1257316  -6.5287875  47.4603962  32.4785231  -5.8297925  47.3668438
  33.8958331  -6.0951731  47.8280210  36.5336114   3.7360977  50.5354515
  36.3821620   3.5071529  49.6184599  36.5240793   4.6931579  50.5485860
  33.3021450   1.3092890  45.5200782  34.2313510   1.4604050  45.3469749
  32.8812480   1.3976911  44.6649428  32.1009782   5.3343554  43.2899319
  31.9620868   4.9662339  44.1625258  31.3124378   5.8491194  43.1183277
  32.6957934  10.4352651  34.6324856  32.8709690   9.9640694  35.4470479
  32.0090722  11.0618417  34.8606117  33.6514997   4.7125157  40.6788157
  33.3164830   4.6725927  41.5745807  33.1518943   4.0469873  40.2058567
  27.6259241   0.1192787  46.2040738  27.4879039  -0.6126974  46.8052277
  28.5364165   0.0301687  45.9224926  36.5874189   2.0581191  30.9525217
  35.9703360   1.3328020  30.8558270  36.1190677   2.8190552  30.6092291
  30.2541542  -0.1687254  45.6924418  30.9641160  -0.8094061  45.6511036
  30.2110850   0.0825641  46.6150599  38.2428321   6.7680100  48.6130997
  38.1840867   6.0839320  47.9461580  38.6447839   7.5099090  48.1611623
  28.9670476  -3.1822036  47.5120057  28.4307833  -3.6331297  48.1641654
  28.3787184  -3.0476127  46.7690522  27.2619019  13.5842014  41.4064716
  27.5015618  14.2160538  42.0843735  26.4188216  13.2330054  41.6930075
  38.2445728   4.7319684  46.8444977  37.3572507   4.3945605  46.9671376
  38.8144279   4.0002715  47.0813742  31.7746881   9.3921136  43.8106220
  31.7017053  10.1976107  44.3225525  31.3324274   9.5913102  42.9854241
  31.5636661   8.6292906  37.3209042  30.7804183   9.1714586  37.4147266
  32.2629406   9.1466886  37.7203283  34.8733311  -5.5612465  39.9643247
  35.3702011  -6.3142502  39.6444317  34.1020292  -5.5248148  39.3986456
  42.7263068   0.1427901  41.6061539  42.7152945   1.0252616  41.2355472
  41.8580448  -0.2100548  41.4116076  34.2345565   9.2907970  45.9664379
  34.9473537   9.9255435  45.8940280  33.7435593   9.3871836  45.1504381
  35.9563092   3.1959223  37.5381670  35.0219370   3.3160685  37.3686375
  36.1339760   2.2931689  37.2741680  31.4568280  -3.4195082  39.6914932
  31.0866067  -3.9724041  40.3795837  31.9527372  -4.0236948  39.1389932
  39.3435643  -0.9623458  38.0731705  39.8096095  -0.1295466  37.9992007
  39.7943144  -1.4278476  38.7776963  29.2857478   7.0402413  46.7869950
  29.9866938   7.6738896  46.9399344  28.8152593   7.3817145  46.0265589
  37.4111874   5.3820363  35.0717857  37.6871718   5.2676958  35.9811731
  36.5416373   4.9837848  35.0330030  37.3152306  -8.5942871  42.1122606
  36.4015386  -8.3638644  42.2804813  37.7445407  -8.5104427  42.9636638
  37.0858764  -0.4052979  44.6122500  36.4330215  -0.1577072  43.9574953
  37.4639144  -1.2188841  44.2784977  34.0465938   9.6306714  38.7150670
  34.2288333   8.8128370  39.1778423  34.8698924   9.8474406  38.2775560
  34.3808104   8.5574899  35.9765719  34.9095870   8.0467354  35.3635881
  34.6436323   8.2417429  36.8411252  33.1346337   0.3366832  51.0988537
  32.4586974   0.2360961  51.7690912  33.9573971   0.1806046  51.5624534
  24.8825196   6.5738769  43.7201052  25.4678633   5.8282456  43.8528956
  24.6850035   6.8842725  44.6037716  27.7363852   9.6090016  38.7363495
  27.0674227  10.0936144  38.2527535  27.5976721   9.8559236  39.6506873
  31.8769120  11.6433759  45.3346153  32.4287428  11.8065381  46.0995238
  32.2175314  12.2338197  44.6626178  36.7279994   6.4695017  51.1894807
  37.2719898   7.0824975  50.6949762  36.1466839   7.0274595  51.7061820
  35.0137507   9.5915735  42.3209835  34.8888647   8.7905475  41.8120781
  35.6716599  10.0861928  41.8323805  37.0772416   7.3924755  43.9489385
  36.1302751   7.2730106  43.8767712  37.4255189   6.5047253  44.0315647
  34.0818849   7.1877471  40.1493737  33.9343812   6.2594179  40.3301308
  34.9072343   7.2097562  39.6650813  37.6852971   8.0106030  41.2358610
  38.6099518   7.8048891  41.0983061  37.5168274   7.7622431  42.1447952
  34.0780363  -4.9584691  35.1425855  34.2943978  -4.0760053  34.8414683
  33.5974431  -5.3498478  34.4131497  28.8179585  -1.9998978  41.7196599
  28.6724166  -1.6858675  42.6120881  28.3404788  -1.3814078  41.1667498
  32.5302098  -4.5759090  43.8130616  32.2719876  -3.6542019  43.8114947
  31.9987139  -4.9728655  44.5031080  37.4748287   8.5291697  36.5920702
  37.6485165   7.9638120  35.8394554  37.9677178   9.3292592  36.4100192
  23.2925247   0.5406367  44.6584260  22.7478715   1.3166175  44.7904535
  24.1704597   0.8877171  44.5003382  43.3287678   1.2928120  38.2111001
  43.7718824   0.5435446  37.8130125  42.4514189   1.2838257  37.8284733
  38.4623460   7.8458462  33.6917600  39.1574364   8.4665155  33.9104915
  38.8046610   6.9953813  33.9669978  40.3614883   5.2958167  35.2204931
  40.8866207   5.6345440  34.4954251  40.2737235   4.3605183  35.0368065
  32.0234931   9.2092241  47.3494807  32.3322058   8.9641388  48.2217507
  32.8210414   9.4138880  46.8613678  32.0455544  11.3630151  39.5800184
  31.6060534  10.8706529  40.2733041  32.7963660  10.8203118  39.3392259
  24.5247883   7.5541692  39.5824812  25.3505902   7.2545463  39.2023456
  24.1741935   6.7849314  40.0314601  29.4929416   6.9068160  41.6522486
  28.8709425   6.2438865  41.3524713  30.1634283   6.9329292  40.9696133
  22.7256488   5.4728018  40.5413746  21.8888396   5.0450192  40.3597747
  22.6980133   5.6660461  41.4784537  40.0508789   5.9291071  50.5256129
  39.2604333   5.9115210  49.9860628  39.8142143   6.4679365  51.2805165
  40.1706664   2.7783537  47.8388857  40.2204669   2.6133545  48.7804380
  40.0620587   1.9110796  47.4486738  29.0542923   5.4572083  35.1280946
  29.2031043   6.1407547  34.4747619  29.8609366   5.4377173  35.6430402
  37.4610426  -1.2385535  49.1548164  38.3620289  -1.3779070  48.8632162
  37.5358401  -1.0731080  50.0946341  31.7953232  -3.8618680  48.0001350
  30.9256541  -3.5685114  47.7283939  32.0312712  -3.2778235  48.7208614
  41.6724861   5.1980479  48.0830879  41.3809669   5.5610459  48.9194340
  41.0596992   4.4847487  47.9044211  42.8720543   2.7633359  40.6033449
  43.7067434   3.2023163  40.7671009  43.0079672   2.2872012  39.7841695
  39.9212049   0.3213094  46.5510937  40.3966171   0.5140740  45.7429788
  38.9977614   0.3772279  46.3054320  26.8095556   1.4837261  36.1342015
  26.5641598   0.5799591  36.3322225  26.9791470   1.4854411  35.1921493
  34.4992265  -7.6439063  45.5166771  35.0174209  -6.9078036  45.1913259
  34.1447398  -7.3375070  46.3513530  32.5538328   7.9520214  32.5992694
  31.9812295   8.5710401  32.1463165  33.1271122   8.5019575  33.1332615
  38.6213718  -2.8021146  44.7839242  39.5731141  -2.7023049  44.8051466
  38.4517168  -3.5942878  45.2937327  36.6428097  -5.7165563  44.9698643
  36.0478030  -5.4360550  44.2745132  36.3577794  -5.2271662  45.7415384
  35.7735588   8.2357364  33.7301276  36.7066261   8.1702925  33.9334151
  35.6858801   9.0713631  33.2715808  38.4023605   7.5523234  30.6905223
  38.3237236   7.2183098  31.5840981  39.2233271   8.0445002  30.6896696
  41.1001796   0.4184973  43.8981542  41.0678116  -0.5199026  44.0841226
  41.7102419   0.4969010  43.1647367  32.9385127  -0.7118974  29.9408746
  33.8844231  -0.8412766  30.0097164  32.5599372  -1.4504312  30.4178174
  41.2496284  -2.7903983  43.9439825  40.7335333  -3.5745527  43.7569754
  42.1336233  -3.1185267  44.1086345  46.9178346   1.4800980  43.0387579
  47.6481734   1.2186268  43.5995282  46.3085291   0.7429702  43.0789647
  44.9993643  -0.3791157  43.6362030  44.2726806  -0.5135192  43.0278522
  44.5840930  -0.0714329  44.4418748  32.8223819   3.3398772  51.4009403
  33.7426829   3.5177371  51.5949450  32.7873402   2.3954818  51.2489102
  25.8185892   1.2499807  44.0432184  26.0371901   2.1816915  44.0620218
  26.2311666   0.8907781  44.8286988  30.6913757  -3.1766987  53.4334933
  30.5910484  -2.2272630  53.3647024  30.4735299  -3.5048748  52.5611003
  21.9094244   2.1540278  42.2955799  21.2157716   1.7394230  41.7825754
  22.6567235   2.1960814  41.6989218  38.0459465  -7.0553536  37.1610833
  37.4658134  -6.3968732  36.7788886  37.7795398  -7.8776191  36.7498251
  36.4963031  -7.6548478  39.3632154  36.9962810  -7.5431943  38.5546473
  37.1398639  -7.9587425  40.0032962  30.5545027   0.2530152  52.2499995
  30.0712109   1.0530512  52.4563884  30.6405966   0.2638097  51.2967439
  23.8230987   2.0858531  40.1721814  23.8001675   2.1846219  39.2203697
  24.1331623   2.9323682  40.4938980  26.4818365   4.1434686  44.2868429
  27.4361618   4.1118629  44.2198360  26.2830888   3.6825310  45.1018654
  27.0717747   2.7135802  46.8539226  27.8910636   3.2079881  46.8774063
  27.3454554   1.7967771  46.8256794  36.8284343  -4.8953445  36.2167182
  35.9410198  -4.6103795  35.9987376  37.2438332  -5.0559682  35.3694459
  40.1798879  -4.8706924  39.9321521  40.9559269  -4.3810472  40.2046138
  39.4547013  -4.4448870  40.3893390  42.6171438  -4.1579305  40.9895462
  43.2115928  -4.3983569  40.2788770  42.6898021  -4.8772174  41.6168998
  24.8368593   9.6854306  41.3038626  24.7023061   8.9254707  40.7376624
  24.4200656  10.4095206  40.8367415  35.9727556   4.8691229  30.3115202
  36.6763406   5.0741232  30.9272857  35.2490205   5.4367991  30.5764285
  36.8025367   0.6201091  36.4317472  36.7460568   1.0769642  35.5925104
  37.3553709  -0.1408225  36.2540315  40.6130173  -3.5909177  37.2567591
  40.3567107  -3.9912542  38.0875799  39.9883041  -2.8765384  37.1317731
  44.9242510  -0.8513104  39.7638883  44.3642068  -0.7819915  40.5370445
  44.3186014  -1.0272120  39.0438379  27.9937719  10.5823623  41.5157069
  27.8770103  11.5269055  41.4135759  27.1730165  10.2797184  41.9042868
  37.8814254   5.3073759  32.3613662  38.7159858   4.8754957  32.1791137
  37.7198597   5.1355772  33.2890556  37.5360146   1.8105872  33.7270001
  37.4808950   1.6450143  32.7858445  36.9106201   2.5181905  33.8832191
  34.8506053   4.1154784  53.0523564  35.7197213   4.2895436  52.6910199
  34.3712805   4.9349201  52.9299293  29.0192233  11.2351885  44.7312997
  29.9219480  11.2675495  45.0479492  28.7929603  10.3052336  44.7459333
  30.7745835   9.9882871  41.3923076  29.8241466   9.9884733  41.2787448
  31.0778322   9.2415606  40.8759111  46.5098529  15.8243410  42.4568839
  47.1476939  15.7050157  41.7532179  46.3919372  16.7724254  42.5156791
  43.3188235  15.7770838  42.3930363  42.9806747  15.6611903  41.5050898
  44.1878003  15.3762003  42.3731369  39.1775051  17.6306314  38.3827254
  38.6139916  17.5396251  37.6143542  39.0627446  16.8106219  38.8629747
  43.8008018  16.9305690  48.3516569  43.7896659  16.5358488  47.4797072
  43.9628658  16.1971762  48.9450340  36.7239483  19.1257506  41.2211475
  37.5160775  18.7848330  40.8057774  36.9636133  19.2352481  42.1413628
  44.7574610  21.2977282  33.6941719  44.1062589  21.8831362  33.3075733
  45.5518972  21.8283477  33.7536757  38.6830237  18.3866419  34.0928853
  39.4561113  17.8395406  33.9541729  39.0355636  19.2510668  34.3043315
  40.5215279  19.7142801  47.2995753  40.2305145  20.6188432  47.1842419
  41.1572264  19.7559329  48.0139822  41.4471486  17.0919650  43.8897112
  42.0435058  16.8675672  43.1754075  41.5046458  16.3504395  44.4922560
  41.0196515  14.5459085  31.7247303  41.2722035  14.0240606  30.9630766
  40.0821074  14.3825231  31.8273987  46.0639797  13.5494864  39.5322047
  46.8502887  13.1314287  39.1812464  46.3278502  14.4540956  39.7003695
  46.2349875  18.9867714  34.2310703  45.5995708  19.0602340  34.9431608
  45.9047281  19.5761313  33.5529783  51.4648224  13.4870097  40.4355025
  52.1973396  12.9169314  40.6692855  50.7087580  13.0991697  40.8761531
  40.7392803  16.4487191  33.9271678  40.6229061  15.7732095  34.5952763
  40.8495063  15.9619565  33.1103831  43.0824344  15.9097338  37.6318368
  42.7182551  15.3827959  38.3431289  43.9391460  15.5195807  37.4584853
  48.9873645   7.1991671  44.8949634  48.6556970   8.0687082  44.6710849
  48.3919258   6.8827955  45.5743664  42.7229831  10.9387238  32.6279716
  42.8904234  11.8067474  32.9950187  42.5327000  11.1014520  31.7041005
  45.4805164  19.4004217  44.2945546  45.1805887  20.3029256  44.1861354
  45.1356224  19.1336400  45.1466699  38.9317646  15.8518014  40.3282251
  38.0068142  15.7194228  40.5359943  39.1802059  16.6312233  40.8252193
  48.8802308  11.9186757  41.9742984  47.9719185  11.8502166  41.6801745
  48.8289904  12.3958702  42.8024809  42.7019052  13.3944895  33.6126383
  42.5818677  13.8401946  34.4511863  42.0071640  13.7430213  33.0539921
  36.2926457  15.4951287  41.1626040  36.4218838  15.7485766  42.0765452
  35.6123908  16.0878995  40.8430695  40.4625944  26.1648537  37.2616514
  40.3849974  27.1156362  37.3404995  39.8587588  25.8194410  37.9191440
  42.9543174  13.3376403  49.9177881  42.1776508  13.8970323  49.9080746
  43.5933737  13.8233186  50.4392751  50.7463955  10.1203195  43.7520858
  50.1038335  10.4135729  43.1060652  50.2418883  10.0056116  44.5574054
  48.4004118  13.8666369  34.4406717  49.3121974  14.0993755  34.2654414
  47.8913765  14.4503413  33.8781796  41.2089546  16.1461856  49.4795848
  41.9504231  16.6846900  49.2030672  40.5026532  16.7728145  49.6367400
  46.6844886  18.2890996  48.0768009  47.0928242  17.8473407  47.3322642
  45.9622147  17.7143624  48.3302202  43.0375956  13.2263603  45.4501566
  43.8837151  13.6503017  45.5936215  42.9774594  12.5697228  46.1440130
  47.0073701  18.8492187  41.8320298  46.3782563  19.0137901  41.1296366
  46.6199363  19.2633797  42.6031262  50.8862932  19.7846625  39.1864662
  50.2013971  20.1645526  38.6361695  50.9706782  20.3941952  39.9196610
  46.1875401  10.8867972  47.1082740  45.9436333  11.6410032  46.5717016
  46.4635332  11.2653319  47.9429987  48.1413864  17.4306584  45.7860006
  48.3530759  18.0738344  45.1094387  48.0943612  16.5968901  45.3181936
  45.7440093  10.0424405  42.6896578  44.8824572  10.3405658  42.9813315
  45.7702528  10.2594804  41.7577610  42.5601662  18.5866595  39.0970383
  43.0240008  18.8654298  38.3075006  42.2958461  17.6850040  38.9143474
  39.4525743  18.1338077  42.0350147  40.0227101  18.5625345  41.3967631
  40.0433855  17.8520661  42.7334332  41.4970548  14.7089748  35.9059949
  42.1994592  15.1610791  36.3733875  41.1651177  14.0673566  36.5339842
  39.9450910  13.3001504  50.2811158  39.3149571  13.9817785  50.5146555
  39.8386998  13.1884586  49.3364296  35.2395882  12.9673300  41.2077082
  34.4494936  13.2230829  40.7317193  35.7307130  13.7821638  41.3129123
  49.2559692  20.3078539  43.9582363  50.0777136  19.9058727  43.6765045
  49.2522095  20.2046774  44.9098479  37.1910628  13.3317879  38.1660559
  36.3941791  13.4436574  38.6844055  36.9636220  13.6704532  37.3001449
  43.0216295  19.8562583  46.1143073  43.0860728  20.3182990  46.9501245
  42.3127219  19.2259948  46.2425383  33.5233585  13.2203791  43.6392073
  33.7741624  14.1050801  43.9049649  34.0593134  13.0408392  42.8667165
  57.3465685  16.6517288  40.3067334  56.5929393  16.0824686  40.1511339
  57.4813226  16.6179952  41.2537969  42.7364313  21.5230690  35.9822054
  42.6009988  22.3682226  36.4106902  43.2774126  21.7249968  35.2187988
  39.2231653   7.6022270  52.6436409  38.8298598   7.0488469  53.3184053
  40.0397793   7.9132849  53.0342927  36.1893710  19.0406128  36.5549979
  36.7018231  19.8349378  36.7055544  36.8416423  18.3432419  36.4883580
  37.9988595  22.1571885  38.6372732  38.1755224  23.0789849  38.4493716
  38.7945429  21.8430304  39.0667112  42.1399614   9.0180149  50.2356666
  42.8809327   9.6187302  50.1561128  42.3717537   8.2757787  49.6774708
  37.2840952  14.2036516  48.5134895  37.1694467  13.3021774  48.8141994
  36.4285469  14.4500213  48.1619712  44.3632789  22.1454257  50.1122396
  43.9196644  21.3590635  49.7943300  45.0250003  22.3333407  49.4466287
  39.1219911  23.6750058  44.6383074  39.6727336  23.5467122  43.8660068
  38.2831387  23.9744947  44.2877967  46.4614028  22.4257057  48.1403797
  46.4432503  23.2465938  47.6484066  47.3833948  22.3011132  48.3653938
  42.9187082  19.9401186  48.9827306  43.4515418  19.1789474  48.7526614
  42.3901163  19.6474838  49.7251460  46.0856777   5.0461252  44.5120947
  45.7421046   5.9362894  44.4360058  46.4535739   4.8562910  43.6490532
  34.1542627  17.3694783  37.3309549  34.9917849  17.7791791  37.1143257
  34.3320895  16.4294225  37.3009743  46.0507059  15.0369863  33.0193382
  45.5353683  15.8074468  33.2581770  45.7784368  14.3634999  33.6426444
  43.6354170   9.8819564  38.0778621  42.7795767   9.4926414  37.8984259
  44.0481122   9.9611525  37.2178406  45.1653317   7.4165907  42.4770181
  44.6618113   7.3796042  41.6637986  45.4583924   8.3258650  42.5366837
  41.4096203   7.5004637  41.4836362  42.2749200   7.3047446  41.1242252
  41.4773712   7.2714989  42.4105719  51.0241333  17.7902218  34.9546556
  50.2470776  17.4513377  34.5101718  51.7032814  17.7954841  34.2801521
  45.8393363  12.9096955  34.8453164  45.5343498  13.2243104  35.6963307
  46.7923805  12.9878375  34.8880497  44.2839794  19.0687179  36.4946118
  43.7561156  18.3339938  36.1819355  43.7827297  19.8461855  36.2486086
  49.2632640  17.2636199  41.6113164  48.6056315  17.9535460  41.6993292
  50.0673040  17.6532631  41.9547150  39.0158522   9.7306845  38.8552729
  39.5902274   9.5082026  38.1225922  39.6029504   9.7995539  39.6081330
  48.0738099  15.6180572  39.6617106  48.5869981  16.2510564  40.1638815
  48.7239323  15.0181767  39.2960466  39.3428109  11.7611306  32.8748614
  38.5065421  12.0985992  33.1957889  39.2032879  11.6260286  31.9375751
  41.3181190   6.6048094  37.5827798  40.6645602   6.2897111  36.9584413
  41.2761664   5.9823834  38.3087621  42.4292395  16.8867389  29.4981091
  41.5219456  16.6556642  29.6972240  42.9263427  16.0905008  29.6855072
  45.3360473  25.5964896  32.4177777  44.6622172  25.8996593  33.0262735
  45.7226295  26.3993976  32.0683234  44.5518930  13.0930027  41.9075446
  43.6341491  13.3144974  41.7497134  44.9679074  13.1676338  41.0487153
  45.3353978  14.4921443  37.0378126  46.0825797  15.0042840  36.7285248
  45.6045567  14.1705496  37.8982520  43.6080628  16.9879984  34.0205081
  42.6991847  16.7039017  34.1177550  43.6375712  17.4079062  33.1608388
  48.8399895  20.5986573  37.7896248  48.3862223  19.7577483  37.8461439
  48.2093862  21.2347972  38.1271028  47.7832815  11.5278559  39.0196916
  47.0455572  11.0155945  39.3507158  48.0359589  11.0878941  38.2080193
  47.2832835  22.4363070  38.7246066  47.5755809  22.9968127  38.0058432
  47.7931455  22.7291631  39.4799225  47.8844442   4.3054811  39.6138685
  48.1903319   3.4452175  39.3264600  48.6097047   4.8972431  39.4137679
  34.1768798  14.7085498  38.0020283  33.9793198  14.1154859  37.2771349
  33.6215462  14.4037708  38.7196222  42.1565522  14.6008604  40.1214876
  42.2114132  13.6482441  40.0457353  41.3456724  14.7568043  40.6056174
  43.3056716  18.5288727  31.3593159  42.8676146  17.8124586  30.8998797
  44.0467157  18.7564842  30.7978251  40.0957882  13.2185664  37.8805255
  39.2825747  13.5179835  38.2870447  40.5916876  12.8241353  38.5979737
  42.2466460  23.2143421  39.8139520  42.2042639  23.4404267  38.8848052
  43.1629159  22.9806796  39.9625321  45.6932094  13.6827489  46.7120149
  46.0481481  13.9098962  47.5714615  46.3404225  14.0145865  46.0897404
  51.4229831  16.8045924  37.4169478  51.2847729  16.9947520  36.4890667
  51.0666049  17.5665307  37.8737529  39.5871957  10.7904020  43.4966490
  40.2271336  10.6492779  42.7989453  38.7549487  10.5038533  43.1205092
  51.4499210  18.8722451  42.4280749  51.8835717  18.7797741  43.2763803
  52.1630791  18.8479952  41.7900765  40.3632261  20.0906450  39.6101482
  41.1572859  19.5956770  39.4084057  39.6523953  19.5624313  39.2469188
  45.1827105  22.4724546  43.9613850  45.2364127  23.0415482  44.7291566
  44.3141886  22.6426431  43.5967887  36.6715024  14.2349532  35.6861235
  35.7412612  14.1733987  35.9031197  36.7672496  13.7125485  34.8897876
  36.5900573  10.7604345  38.2739477  36.8507390  11.6749678  38.1648637
  37.4117745  10.2928787  38.4236089  38.0625498  12.1742102  45.4438301
  38.7348552  11.9659464  44.7950950  37.2355285  11.9764188  45.0043533
  52.3114760  18.9146152  44.9613635  52.5050650  19.8191963  45.2072910
  52.2115378  18.4553571  45.7952220  43.9651070   8.8004043  47.4603962
  43.3178986   9.4993992  47.3668438  44.7352086   9.2340187  47.8280210
  47.3729868  19.0652895  50.5354515  47.2215375  18.8363447  49.6184599
  47.3634548  20.0223496  50.5485860  44.1415205  16.6384808  45.5200782
  45.0707265  16.7895967  45.3469749  43.7206235  16.7268828  44.6649428
  42.9403537  20.6635472  43.2899319  42.8014622  20.2954256  44.1625258
  42.1518133  21.1783111  43.1183277  43.5351689  25.7644568  34.6324856
  43.7103444  25.2932612  35.4470479  42.8484477  26.3910335  34.8606117
  44.4908752  20.0417075  40.6788157  44.1558584  20.0017845  41.5745807
  43.9912697  19.3761791  40.2058567  38.4652996  15.4484705  46.2040738
  38.3272794  14.7164944  46.8052277  39.3757919  15.3593605  45.9224926
  47.4267943  17.3873109  30.9525217  46.8097114  16.6619937  30.8558270
  46.9584432  18.1482469  30.6092291  41.0935296  15.1604664  45.6924418
  41.8034915  14.5197856  45.6511036  41.0504605  15.4117559  46.6150599
  49.0822075  22.0972017  48.6130997  49.0234621  21.4131238  47.9461580
  49.4841593  22.8391007  48.1611623  39.8064230  12.1469882  47.5120057
  39.2701587  11.6960620  48.1641654  39.2180939  12.2815791  46.7690522
  38.1012774  28.9133931  41.4064716  38.3409372  29.5452455  42.0843735
  37.2581970  28.5621971  41.6930075  39.2166489  11.6058533  30.0746521
  38.3395956  11.4847334  29.7108768  39.6924242  10.8144612  29.8225410
  49.0839482  20.0611601  46.8444977  48.1966261  19.7237523  46.9671376
  49.6538033  19.3294633  47.0813742  30.7368629  16.3935693  40.1688028
  31.4239669  16.0797423  39.5809044  30.5816758  17.2977058  39.8955280
  35.5403352  11.2825890  44.5973052  35.4561540  10.6751559  43.8623462
  34.7186058  11.7734908  44.5982548  42.6140636  24.7213054  43.8106220
  42.5410807  25.5268025  44.3225525  42.1718029  24.9205019  42.9854241
  42.4030415  23.9584824  37.3209042  41.6197937  24.5006504  37.4147266
  43.1023161  24.4758803  37.7203283  45.7127065   9.7679453  39.9643247
  46.2095765   9.0149415  39.6444317  44.9414047   9.8043770  39.3986456
  53.5656823  15.4719819  41.6061539  53.5546699  16.3544534  41.2355472
  52.6974202  15.1191370  41.4116076  45.0739319  24.6199888  45.9664379
  45.7867291  25.2547353  45.8940280  44.5829348  24.7163754  45.1504381
  46.7956846  18.5251140  37.5381670  45.8613125  18.6452603  37.3686375
  46.9733515  17.6223607  37.2741680  42.2962034  11.9096836  39.6914932
  41.9259822  11.3567877  40.3795837  42.7921127  11.3054970  39.1389932
  50.1829398  14.3668460  38.0731705  50.6489850  15.1996451  37.9992007
  50.6336898  13.9013441  38.7776963  40.1251233  22.3694331  46.7869950
  40.8260692  23.0030814  46.9399344  39.6546348  22.7109063  46.0265589
  48.2505629  20.7112281  35.0717857  48.5265473  20.5968876  35.9811731
  47.3810127  20.3129766  35.0330030  48.1546060   6.7349047  42.1122606
  47.2409140   6.9653273  42.2804813  48.5839162   6.8187491  42.9636638
  47.9252519  14.9238939  44.6122500  47.2723969  15.1714846  43.9574953
  48.3032899  14.1103077  44.2784977  44.8859693  24.9598632  38.7150670
  45.0682087  24.1420288  39.1778423  45.7092679  25.1766324  38.2775560
  45.2201858  23.8866817  35.9765719  45.7489625  23.3759272  35.3635881
  45.4830078  23.5709347  36.8411252  43.9740092  15.6658750  51.0988537
  43.2980729  15.5652879  51.7690912  44.7967726  15.5097963  51.5624534
  35.7218951  21.9030686  43.7201052  36.3072388  21.1574374  43.8528956
  35.5243789  22.2134643  44.6037716  38.5757606  24.9381934  38.7363495
  37.9067981  25.4228061  38.2527535  38.4370476  25.1851154  39.6506873
  30.3136606  14.4736286  42.4405495  30.3520705  13.9399877  43.2342613
  29.8076898  13.9471492  41.8216473  42.7162875  26.9725677  45.3346153
  43.2681183  27.1357299  46.0995238  43.0569068  27.5630115  44.6626178
  37.6927368   9.3200827  45.9368038  37.7568694  10.1815658  45.5245435
  37.6294488   8.7074829  45.2040396  37.1679640  11.3923959  49.5841072
  37.7951679  11.0101037  50.1978596  36.3107559  11.1738161  49.9496764
  47.5673749  21.7986935  51.1894807  48.1113653  22.4116893  50.6949762
  46.9860594  22.3566513  51.7061820  33.9445183  13.2000389  35.5159427
  34.2398624  12.2911067  35.4626480  33.0433219  13.1788128  35.1940429
  45.8531262  24.9207653  42.3209835  45.7282401  24.1197392  41.8120781
  46.5110353  25.4153846  41.8323805  37.4739430  11.2756385  41.4986975
  36.7526016  11.8892353  41.3594449  38.2632686  11.8114150  41.4203621
  47.9166170  22.7216673  43.9489385  46.9696506  22.6022024  43.8767712
  48.2648943  21.8339171  44.0315647  40.2765744   8.6110812  47.7727627
  40.8000146   8.8573108  48.5353936  40.0578077   9.4430846  47.3530764
  35.6733025  10.8814486  35.6398752  35.3445731  10.0011865  35.4573858
  36.0272395  10.8262155  36.5275141  44.9212604  22.5169389  40.1493737
  44.7737566  21.5886096  40.3301308  45.7466097  22.5389480  39.6650813
  38.7874848  11.1687456  36.0074230  39.1270920  11.6973377  35.2852838
  39.2346968  11.5067862  36.7832796  48.5246725  23.3397948  41.2358610
  49.4493273  23.1340809  41.0983061  48.3562029  23.0914349  42.1447952
  41.4818289   9.5524507  45.4577298  41.1415109   8.7532320  45.8597978
  40.7757295   9.8526218  44.8854131  42.1334761   6.6373819  43.9104621
  42.9560830   6.1634297  43.7883511  42.3772824   7.4164303  44.4103307
  40.7742995   9.6662078  34.2067522  41.4951358  10.0443330  33.7031239
  40.1508299  10.3850954  34.3102500  44.9174118  10.3707227  35.1425855
  45.1337732  11.2531864  34.8414683  44.4368185   9.9793440  34.4131497
  39.6573339  13.3292940  41.7196599  39.5117920  13.6433243  42.6120881
  39.1798543  13.9477840  41.1667498  41.5169722  10.3195488  41.7677489
  41.5031291   9.4236581  41.4309787  42.2342150  10.3266152  42.4015775
  43.3695853  10.7532828  43.8130616  43.1113631  11.6749899  43.8114947
  42.8380893  10.3563263  44.5031080  48.3142042  23.8583615  36.5920702
  48.4878919  23.2930038  35.8394554  48.8070933  24.6584510  36.4100192
  34.1319001  15.8698284  44.6584260  33.5872470  16.6458092  44.7904535
  35.0098351  16.2169089  44.5003382  40.9206618   9.2009868  37.0365059
  41.0422529   8.2726514  37.2355946  40.6308661   9.2148554  36.1243374
  43.7897809   6.8864779  40.1731779  43.8119505   6.9504112  39.2183758
  44.2065868   6.0469287  40.3672285  54.1681433  16.6220038  38.2111001
  54.6112579  15.8727363  37.8130125  53.2907943  16.6130174  37.8284733
  49.3017214  23.1750380  33.6917600  49.9968119  23.7957072  33.9104915
  49.6440364  22.3245731  33.9669978  34.9185023  14.9968180  47.5514417
  34.1766759  15.1450816  48.1379048  34.5977768  15.2576446  46.6881167
  51.2008637  20.6250085  35.2204931  51.7259961  20.9637358  34.4954251
  51.1130990  19.6897100  35.0368065  42.8628686  24.5384159  47.3494807
  43.1715812  24.2933305  48.2217507  43.6604168  24.7430797  46.8613678
  42.8849298  26.6922068  39.5800184  42.4454288  26.1998447  40.2733041
  43.6357415  26.1495036  39.3392259  35.3641637  22.8833609  39.5824812
  36.1899657  22.5837381  39.2023456  35.0135689  22.1141232  40.0314601
  40.3323170  22.2360077  41.6522486  39.7103179  21.5730782  41.3524713
  41.0028037  22.2621209  40.9696133  33.5650242  20.8019936  40.5413746
  32.7282150  20.3742110  40.3597747  33.5373887  20.9952379  41.4784537
  40.4047698  10.7141865  51.2454992  40.4535853  11.5903988  50.8632761
  40.9470212  10.1719259  50.6726635  50.8902543  21.2582989  50.5256129
  50.0998087  21.2407128  49.9860628  50.6535898  21.7971282  51.2805165
  51.0100418  18.1075455  47.8388857  51.0598423  17.9425463  48.7804380
  50.9014342  17.2402714  47.4486738  39.8936677  20.7864001  35.1280946
  40.0424797  21.4699465  34.4747619  40.7003121  20.7669091  35.6430402
  48.3004181  14.0906383  49.1548164  49.2014044  13.9512848  48.8632162
  48.3752155  14.2560838  50.0946341  42.6346986  11.4673238  48.0001350
  41.7650296  11.7606804  47.7283939  42.8706466  12.0513683  48.7208614
  52.5118615  20.5272397  48.0830879  52.2203424  20.8902377  48.9194340
  51.8990747  19.8139405  47.9044211  53.7114298  18.0925276  40.6033449
  54.5461189  18.5315080  40.7671009  53.8473426  17.6163930  39.7841695
  50.7605803  15.6505011  46.5510937  51.2359925  15.8432658  45.7429788
  49.8371369  15.7064197  46.3054320  37.6489310  16.8129178  36.1342015
  37.4035352  15.9091508  36.3322225  37.8185225  16.8146329  35.1921493
  45.3386020   7.6852855  45.5166771  45.8567964   8.4213882  45.1913259
  44.9841153   7.9916848  46.3513530  36.9184958  12.5457536  33.6328176
  36.2254203  12.6201891  32.9768212  36.6736710  11.7817880  34.1549693
  45.5898614   4.1053137  41.0367667  45.8700368   3.4376326  41.6628094
  46.3749221   4.2982233  40.5242331  43.3932083  23.2812131  32.5992694
  42.8206050  23.9002318  32.1463165  43.9664876  23.8311493  33.1332615
  49.4607472  12.5270771  44.7839242  50.4124895  12.6268869  44.8051466
  49.2910923  11.7349040  45.2937327  47.4821852   9.6126355  44.9698643
  46.8871784   9.8931367  44.2745132  47.1971549  10.1020255  45.7415384
  46.6129342  23.5649281  33.7301276  47.5460016  23.4994843  33.9334151
  46.5252555  24.4005548  33.2715808  49.2417359  22.8815152  30.6905223
  49.1630991  22.5475015  31.5840981  50.0627026  23.3736920  30.6896696
  51.9395550  15.7476891  43.8981542  51.9071870  14.8092892  44.0841226
  52.5496174  15.8260928  43.1647367  43.7778881  14.6172944  29.9408746
  44.7237986  14.4879152  30.0097164  43.3993126  13.8787606  30.4178174
  52.0890039  12.5387934  43.9439825  51.5729087  11.7546391  43.7569754
  52.9729987  12.2106651  44.1086345  49.7500766   6.2828950  39.9035638
  49.5525587   5.9744038  40.7878970  50.3600471   7.0090589  40.0333568
  57.7572100  16.8092898  43.0387579  58.4875489  16.5478186  43.5995282
  57.1479046  16.0721620  43.0789647  55.8387397  14.9500760  43.6362030
  55.1120561  14.8156725  43.0278522  55.4234684  15.2577589  44.4418748
  43.6617574  18.6690690  51.4009403  44.5820583  18.8469289  51.5949450
  43.6267157  17.7246735  51.2489102  41.9621798  12.5422920  29.8763631
  41.0553254  12.2456033  29.9526345  42.2397779  12.2452738  29.0097917
  32.8799739  13.8629284  40.3262678  32.5602523  13.0094592  40.0337052
  32.3333167  14.0777862  41.0820645  36.6579646  16.5791725  44.0432184
  36.8765656  17.5108833  44.0620218  37.0705420  16.2199699  44.8286988
  43.5783864   7.0859810  36.0307873  42.7684592   6.7406895  36.4063119
  44.2668281   6.7767354  36.6195484  45.5074412   6.1637857  37.6532169
  46.0605451   6.5833310  38.3122192  45.7444499   5.2373605  37.6955125
  41.5307512  12.1524931  53.4334933  41.4304238  13.1019287  53.3647024
  41.3129054  11.8243169  52.5611003  40.7320583   9.4009856  30.0175610
  41.5939747   9.7264754  30.2771428  40.9170927   8.6141351  29.5048676
  32.7487999  17.4832195  42.2955799  32.0551470  17.0686148  41.7825754
  33.4960990  17.5252732  41.6989218  48.8853219   8.2738382  37.1610833
  48.3051888   8.9323186  36.7788886  48.6189152   7.4515727  36.7498251
  47.3356786   7.6743440  39.3632154  47.8356564   7.7859974  38.5546473
  47.9792394   7.3704493  40.0032962  41.3938782  15.5822069  52.2499995
  40.9105863  16.3822429  52.4563884  41.4799721  15.5930014  51.2967439
  34.6624741  17.4150449  40.1721814  34.6395429  17.5138136  39.2203697
  34.9725378  18.2615600  40.4938980  37.3212119  19.4726604  44.2868429
  38.2755373  19.4410546  44.2198360  37.1224643  19.0117228  45.1018654
  37.9111501  18.0427720  46.8539226  38.7304390  18.5371799  46.8774063
  38.1848309  17.1259688  46.8256794  47.6678097  10.4338472  36.2167182
  46.7803952  10.7188123  35.9987376  48.0832086  10.2732236  35.3694459
  51.0192634  10.4584993  39.9321521  51.7953024  10.9481446  40.2046138
  50.2940768  10.8843048  40.3893390  53.4565192  11.1712613  40.9895462
  54.0509683  10.9308349  40.2788770  53.5291776  10.4519743  41.6168998
  35.6762348  25.0146224  41.3038626  35.5416816  24.2546624  40.7376624
  35.2594410  25.7387123  40.8367415  46.8121311  20.1983147  30.3115202
  47.5157161  20.4033150  30.9272857  46.0883960  20.7659909  30.5764285
  47.6419121  15.9493008  36.4317472  47.5854323  16.4061560  35.5925104
  48.1947464  15.1883693  36.2540315  51.4523927  11.7382740  37.2567591
  51.1960861  11.3379376  38.0875799  50.8276795  12.4526534  37.1317731
  55.7636265  14.4778813  39.7638883  55.2035823  14.5472003  40.5370445
  55.1579768  14.3019798  39.0438379  38.8331474  25.9115541  41.5157069
  38.7163858  26.8560973  41.4135759  38.0123920  25.6089102  41.9042868
  48.7208008  20.6365676  32.3613662  49.5553612  20.2046875  32.1791137
  48.5592351  20.4647690  33.2890556  48.3753900  17.1397790  33.7270001
  48.3202704  16.9742061  32.7858445  47.7499956  17.8473823  33.8832191
  33.1646415  12.3765854  47.5531423  33.8105279  11.8664808  48.0418648
  32.9563567  13.1134536  48.1274849  45.6899808  19.4446701  53.0523564
  46.5590967  19.6187354  52.6910199  45.2106559  20.2641118  52.9299293
  41.6850026   6.6405899  33.3055319  41.6728696   7.5847739  33.4623590
  42.5773448   6.4576044  33.0114781  39.8585988  26.5643802  44.7312997
  40.7613235  26.5967413  45.0479492  39.6323358  25.6344253  44.7459333
  41.6139590  25.3174789  41.3923076  40.6635221  25.3176651  41.2787448
  41.9172076  24.5707524  40.8759111  45.5002145   3.2348675  37.5601256
  44.7334541   2.6807162  37.7057939  45.9112850   3.3070544  38.4215408
  37.5043906   9.5233471  51.6506437  38.3675368   9.1670276  51.8609762
  36.9309317   9.1847366  52.3381842  57.3492283  31.1535327  42.4568839
  57.9870693  31.0342075  41.7532179  57.2313126  32.1016171  42.5156791
  54.1581990  31.1062756  42.3930363  53.8200501  30.9903820  41.5050898
  55.0271758  30.7053921  42.3731369  50.0168805  32.9598232  38.3827254
  49.4533670  32.8688169  37.6143542  49.9021200  32.1398136  38.8629747
  54.6401773  32.2597607  48.3516569  54.6290413  31.8650406  47.4797072
  54.8022412  31.5263680  48.9450340  49.5223991  33.7158337  34.0928853
  50.2954867  33.1687324  33.9541729  49.8749390  34.5802586  34.3043315
  52.2865241  32.4211568  43.8897112  52.8828813  32.1967590  43.1754075
  52.3440212  31.6796313  44.4922560  51.8590269  29.8751003  31.7247303
  52.1115790  29.3532524  30.9630766  50.9214828  29.7117148  31.8273987
  56.9033552  28.8786781  39.5322047  57.6896641  28.4606204  39.1812464
  57.1672256  29.7832873  39.7003695  62.3041979  28.8162014  40.4355025
  63.0367151  28.2461231  40.6692855  61.5481335  28.4283615  40.8761531
  51.5786558  31.7779109  33.9271678  51.4622816  31.1024012  34.5952763
  51.6888818  31.2911483  33.1103831  53.9218099  31.2389256  37.6318368
  53.5576306  30.7119877  38.3431289  54.7785215  30.8487725  37.4584853
  59.8267399  22.5283589  44.8949634  59.4950724  23.3979000  44.6710849
  59.2313013  22.2119873  45.5743664  53.5623586  26.2679156  32.6279716
  53.7297988  27.1359392  32.9950187  53.3720755  26.4306437  31.7041005
  49.7711400  31.1809931  40.3282251  48.8461897  31.0486146  40.5359943
  50.0195814  31.9604151  40.8252193  59.7196063  27.2478675  41.9742984
  58.8112940  27.1794083  41.6801745  59.6683658  27.7250620  42.8024809
  53.5412807  28.7236813  33.6126383  53.4212432  29.1693864  34.4511863
  52.8465395  29.0722131  33.0539921  47.1320211  30.8243205  41.1626040
  47.2612593  31.0777684  42.0765452  46.4517663  31.4170913  40.8430695
  53.7936928  28.6668320  49.9177881  53.0170262  29.2262240  49.9080746
  54.4327491  29.1525103  50.4392751  61.5857709  25.4495113  43.7520858
  60.9432089  25.7427646  43.1060652  61.0812638  25.3348033  44.5574054
  59.2397873  29.1958286  34.4406717  60.1515729  29.4285673  34.2654414
  58.7307520  29.7795331  33.8781796  57.5238640  33.6182914  48.0768009
  57.9321996  33.1765325  47.3322642  56.8015902  33.0435542  48.3302202
  53.8769710  28.5555521  45.4501566  54.7230906  28.9794934  45.5936215
  53.8168348  27.8989145  46.1440130  57.0269156  26.2159889  47.1082740
  56.7830088  26.9701950  46.5717016  57.3029086  26.5945237  47.9429987
  58.9807619  32.7598502  45.7860006  59.1924514  33.4030262  45.1094387
  58.9337367  31.9260818  45.3181936  56.5833847  25.3716322  42.6896578
  55.7218327  25.6697576  42.9813315  56.6096282  25.5886721  41.7577610
  52.3364303  30.0381665  35.9059949  53.0388346  30.4902709  36.3733875
  52.0044931  29.3965484  36.5339842  50.7844664  28.6293422  50.2811158
  50.1543325  29.3109703  50.5146555  50.6780752  28.5176503  49.3364296
  46.0789637  28.2965218  41.2077082  45.2888691  28.5522746  40.7317193
  46.5700884  29.1113556  41.3129123  48.0304382  28.6609797  38.1660559
  47.2335546  28.7728491  38.6844055  47.8029974  28.9996449  37.3001449
  53.8610050  35.1854500  46.1143073  53.9254482  35.6474908  46.9501245
  53.1520974  34.5551865  46.2425383  44.3627340  28.5495708  43.6392073
  44.6135378  29.4342718  43.9049649  44.8986888  28.3700310  42.8667165
  50.0625407  22.9314188  52.6436409  49.6692353  22.3780386  53.3184053
  50.8791548  23.2424766  53.0342927  52.9793368  24.3472067  50.2356666
  53.7203082  24.9479220  50.1561128  53.2111291  23.6049705  49.6774708
  48.1234706  29.5328434  48.5134895  48.0088221  28.6313691  48.8141994
  47.2679224  29.7792131  48.1619712  53.7580836  35.2693104  48.9827306
  54.2909173  34.5081392  48.7526614  53.2294917  34.9766756  49.7251460
  56.9250531  20.3753170  44.5120947  56.5814801  21.2654811  44.4360058
  57.2929494  20.1854827  43.6490532  44.9936382  32.6986700  37.3309549
  45.8311604  33.1083709  37.1143257  45.1714649  31.7586142  37.3009743
  56.8900814  30.3661781  33.0193382  56.3747437  31.1366385  33.2581770
  56.6178122  29.6926917  33.6426444  54.4747925  25.2111482  38.0778621
  53.6189521  24.8218332  37.8984259  54.8874877  25.2903442  37.2178406
  56.0047072  22.7457825  42.4770181  55.5011867  22.7087960  41.6637986
  56.2977678  23.6550568  42.5366837  52.2489957  22.8296555  41.4836362
  53.1142954  22.6339363  41.1242252  52.3167466  22.6006906  42.4105719
  56.6787117  28.2388873  34.8453164  56.3737253  28.5535022  35.6963307
  57.6317559  28.3170293  34.8880497  49.8552276  25.0598763  38.8552729
  50.4296028  24.8373944  38.1225922  50.4423259  25.1287457  39.6081330
  58.9131854  30.9472489  39.6617106  59.4263735  31.5802481  40.1638815
  59.5633078  30.3473685  39.2960466  50.1821864  27.0903224  32.8748614
  49.3459176  27.4277910  33.1957889  50.0426633  26.9552203  31.9375751
  52.1574944  21.9340011  37.5827798  51.5039357  21.6189029  36.9584413
  52.1155418  21.3115752  38.3087621  53.2686149  32.2159307  29.4981091
  52.3613211  31.9848560  29.6972240  53.7657181  31.4196926  29.6855072
  55.3912685  28.4221945  41.9075446  54.4735246  28.6436892  41.7497134
  55.8072828  28.4968255  41.0487153  56.1747732  29.8213361  37.0378126
  56.9219551  30.3334758  36.7285248  56.4439322  29.4997413  37.8982520
  54.4474382  32.3171901  34.0205081  53.5385602  32.0330934  34.1177550
  54.4769466  32.7370980  33.1608388  58.6226569  26.8570477  39.0196916
  57.8849326  26.3447863  39.3507158  58.8753343  26.4170859  38.2080193
  58.7238197  19.6346729  39.6138685  59.0297074  18.7744092  39.3264600
  59.4490802  20.2264349  39.4137679  45.0162553  30.0377416  38.0020283
  44.8186953  29.4446776  37.2771349  44.4609217  29.7329626  38.7196222
  52.9959277  29.9300522  40.1214876  53.0507886  28.9774358  40.0457353
  52.1850479  30.0859961  40.6056174  54.1450470  33.8580645  31.3593159
  53.7069900  33.1416504  30.8998797  54.8860911  34.0856760  30.7978251
  50.9351636  28.5477582  37.8805255  50.1219502  28.8471752  38.2870447
  51.4310631  28.1533271  38.5979737  56.5325848  29.0119406  46.7120149
  56.8875236  29.2390879  47.5714615  57.1797979  29.3437783  46.0897404
  62.2623585  32.1337842  37.4169478  62.1241484  32.3239438  36.4890667
  61.9059804  32.8957225  37.8737529  50.4265711  26.1195937  43.4966490
  51.0665091  25.9784696  42.7989453  49.5943242  25.8330451  43.1205092
  47.5108779  29.5641449  35.6861235  46.5806367  29.5025905  35.9031197
  47.6066251  29.0417402  34.8897876  47.4294328  26.0896262  38.2739477
  47.6901145  27.0041596  38.1648637  48.2511500  25.6220705  38.4236089
  48.9019253  27.5034019  45.4438301  49.5742306  27.2951382  44.7950950
  48.0749039  27.3056105  45.0043533  54.8044825  24.1295960  47.4603962
  54.1572740  24.8285910  47.3668438  55.5745840  24.5632104  47.8280210
  54.9808959  31.9676725  45.5200782  55.9101019  32.1187885  45.3469749
  54.5599989  32.0560746  44.6649428  49.3046750  30.7776622  46.2040738
  49.1666548  30.0456861  46.8052277  50.2151674  30.6885523  45.9224926
  58.2661698  32.7165027  30.9525217  57.6490869  31.9911855  30.8558270
  57.7978186  33.4774387  30.6092291  51.9329051  30.4896582  45.6924418
  52.6428669  29.8489774  45.6511036  51.8898359  30.7409477  46.6150599
  50.6457985  27.4761800  47.5120057  50.1095342  27.0252538  48.1641654
  50.0574693  27.6107708  46.7690522  50.0560244  26.9350451  30.0746521
  49.1789710  26.8139252  29.7108768  50.5317997  26.1436529  29.8225410
  41.5762384  31.7227611  40.1688028  42.2633424  31.4089341  39.5809044
  41.4210513  32.6268975  39.8955280  46.3797106  26.6117807  44.5973052
  46.2955295  26.0043477  43.8623462  45.5579812  27.1026826  44.5982548
  56.5520820  25.0971371  39.9643247  57.0489520  24.3441333  39.6444317
  55.7807801  25.1335687  39.3986456  53.1355789  27.2388754  39.6914932
  52.7653576  26.6859794  40.3795837  53.6314881  26.6346887  39.1389932
  61.0223152  29.6960377  38.0731705  61.4883604  30.5288369  37.9992007
  61.4730653  29.2305359  38.7776963  58.9939815  22.0640964  42.1122606
  58.0802895  22.2945191  42.2804813  59.4232916  22.1479408  42.9636638
  58.7646273  30.2530856  44.6122500  58.1117723  30.5006764  43.9574953
  59.1426653  29.4394994  44.2784977  54.8133846  30.9950667  51.0988537
  54.1374483  30.8944797  51.7690912  55.6361480  30.8389881  51.5624534
  41.1530360  29.8028204  42.4405495  41.1914460  29.2691795  43.2342613
  40.6470653  29.2763410  41.8216473  48.5321122  24.6492745  45.9368038
  48.5962449  25.5107576  45.5245435  48.4688243  24.0366746  45.2040396
  48.0073395  26.7215877  49.5841072  48.6345434  26.3392954  50.1978596
  47.1501314  26.5030079  49.9496764  44.7838938  28.5292306  35.5159427
  45.0792379  27.6202985  35.4626480  43.8826973  28.5080046  35.1940429
  48.3133185  26.6048303  41.4986975  47.5919770  27.2184271  41.3594449
  49.1026440  27.1406068  41.4203621  51.1159498  23.9402729  47.7727627
  51.6393900  24.1865026  48.5353936  50.8971831  24.7722764  47.3530764
  46.5126779  26.2106404  35.6398752  46.1839485  25.3303783  35.4573858
  46.8666150  26.1554073  36.5275141  49.6268602  26.4979374  36.0074230
  49.9664675  27.0265295  35.2852838  50.0740723  26.8359780  36.7832796
  52.3212043  24.8816424  45.4577298  51.9808864  24.0824238  45.8597978
  51.6151049  25.1818135  44.8854131  52.9728515  21.9665737  43.9104621
  53.7954584  21.4926215  43.7883511  53.2166579  22.7456221  44.4103307
  51.6136750  24.9953995  34.2067522  52.3345112  25.3735248  33.7031239
  50.9902054  25.7142872  34.3102500  55.7567872  25.6999144  35.1425855
  55.9731487  26.5823782  34.8414683  55.2761940  25.3085358  34.4131497
  50.4967094  28.6584858  41.7196599  50.3511675  28.9725161  42.6120881
  50.0192297  29.2769758  41.1667498  52.3563477  25.6487405  41.7677489
  52.3425045  24.7528499  41.4309787  53.0735905  25.6558069  42.4015775
  54.2089607  26.0824746  43.8130616  53.9507385  27.0041816  43.8114947
  53.6774648  25.6855180  44.5031080  51.7600373  24.5301786  37.0365059
  51.8816284  23.6018432  37.2355946  51.4702415  24.5440472  36.1243374
  54.6291563  22.2156696  40.1731779  54.6513260  22.2796029  39.2183758
  55.0459622  21.3761205  40.3672285  51.2441452  26.0433783  51.2454992
  51.2929608  26.9195906  50.8632761  51.7863966  25.5011176  50.6726635
  59.1397935  29.4198301  49.1548164  60.0407798  29.2804766  48.8632162
  59.2145910  29.5852756  50.0946341  53.4740741  26.7965156  48.0001350
  52.6044050  27.0898722  47.7283939  53.7100221  27.3805601  48.7208614
  48.4883065  32.1421096  36.1342015  48.2429107  31.2383426  36.3322225
  48.6578979  32.1438247  35.1921493  56.1779774  23.0144772  45.5166771
  56.6961718  23.7505799  45.1913259  55.8234907  23.3208766  46.3513530
  47.7578712  27.8749454  33.6328176  47.0647957  27.9493809  32.9768212
  47.5130464  27.1109797  34.1549693  56.4292369  19.4345055  41.0367667
  56.7094122  18.7668244  41.6628094  57.2142976  19.6274151  40.5242331
  58.3215606  24.9418272  44.9698643  57.7265539  25.2223285  44.2745132
  58.0365303  25.4312173  45.7415384  54.6172636  29.9464862  29.9408746
  55.5631740  29.8171070  30.0097164  54.2386881  29.2079524  30.4178174
  60.5894520  21.6120868  39.9035638  60.3919341  21.3035956  40.7878970
  61.1994226  22.3382507  40.0333568  54.5011328  33.9982608  51.4009403
  55.4214338  34.1761207  51.5949450  54.4660911  33.0538653  51.2489102
  52.8015553  27.8714838  29.8763631  51.8947008  27.5747951  29.9526345
  53.0791534  27.5744656  29.0097917  43.7193493  29.1921201  40.3262678
  43.3996277  28.3386510  40.0337052  43.1726921  29.4069780  41.0820645
  54.4177618  22.4151728  36.0307873  53.6078347  22.0698813  36.4063119
  55.1062035  22.1059271  36.6195484  56.3468167  21.4929775  37.6532169
  56.8999205  21.9125228  38.3122192  56.5838253  20.5665523  37.6955125
  52.3701266  27.4816848  53.4334933  52.2697993  28.4311205  53.3647024
  52.1522808  27.1535087  52.5611003  51.5714337  24.7301773  30.0175610
  52.4333501  25.0556672  30.2771428  51.7564682  23.9433269  29.5048676
  43.5881753  32.8124113  42.2955799  42.8945225  32.3978066  41.7825754
  44.3354744  32.8544649  41.6989218  59.7246974  23.6030300  37.1610833
  59.1445643  24.2615104  36.7788886  59.4582907  22.7807644  36.7498251
  58.1750540  23.0035357  39.3632154  58.6750319  23.1151892  38.5546473
  58.8186148  22.6996410  40.0032962  45.5018496  32.7442367  40.1721814
  45.4789184  32.8430054  39.2203697  45.8119132  33.5907518  40.4938980
  58.5071852  25.7630390  36.2167182  57.6197707  26.0480041  35.9987376
  58.9225841  25.6024153  35.3694459  61.8586388  25.7876911  39.9321521
  62.6346778  26.2773364  40.2046138  61.1334522  26.2134965  40.3893390
  64.2958947  26.5004530  40.9895462  64.8903437  26.2600266  40.2788770
  64.3685530  25.7811661  41.6168998  58.4812876  31.2784926  36.4317472
  58.4248077  31.7353477  35.5925104  59.0341218  30.5175611  36.2540315
  62.2917682  27.0674658  37.2567591  62.0354616  26.6671294  38.0875799
  61.6670550  27.7818452  37.1317731  44.0040170  27.7057772  47.5531423
  44.6499034  27.1956726  48.0418648  43.7957321  28.4426453  48.1274849
  52.5243780  21.9697816  33.3055319  52.5122450  22.9139656  33.4623590
  53.4167202  21.7867962  33.0114781  56.3395900  18.5640593  37.5601256
  55.5728296  18.0099080  37.7057939  56.7506605  18.6362462  38.4215408
  48.3437661  24.8525389  51.6506437  49.2069122  24.4962194  51.8609762
  47.7703072  24.5139284  52.3381842  79.0279792  61.8119163  42.4568839
  79.6658202  61.6925910  41.7532179  78.9100635  62.7600007  42.5156791
  77.2755873  67.2853035  33.6941719  76.6243853  67.8707115  33.3075733
  78.0700236  67.8159230  33.7536757  78.5821061  59.5370617  39.5322047
  79.3684150  59.1190040  39.1812464  78.8459765  60.4416709  39.7003695
  78.7531138  64.9743467  34.2310703  78.1176971  65.0478093  34.9431608
  78.4228545  65.5637066  33.5529783  83.9829488  59.4745850  40.4355025
  84.7154660  58.9045067  40.6692855  83.2268844  59.0867450  40.8761531
  77.9986428  65.3879970  44.2945546  77.6987151  66.2905009  44.1861354
  77.6537487  65.1212153  45.1466699  72.9807208  72.1524290  37.2616514
  72.9031237  73.1032115  37.3404995  72.3768851  71.8070163  37.9191440
  80.9185382  59.8542122  34.4406717  81.8303238  60.0869508  34.2654414
  80.4095029  60.4379166  33.8781796  79.2026149  64.2766750  48.0768009
  79.6109505  63.8349160  47.3322642  78.4803411  63.7019377  48.3302202
  79.5254964  64.8367940  41.8320298  78.8963826  65.0013654  41.1296366
  79.1380626  65.2509550  42.6031262  83.4044196  65.7722378  39.1864662
  82.7195234  66.1521279  38.6361695  83.4888045  66.3817705  39.9196610
  80.6595127  63.4182337  45.7860006  80.8712023  64.0614097  45.1094387
  80.6124876  62.5844654  45.3181936  81.7740955  66.2954292  43.9582363
  82.5958399  65.8934480  43.6765045  81.7703358  66.1922527  44.9098479
  75.5397559  65.8438336  46.1143073  75.6041991  66.3058743  46.9501245
  74.8308483  65.2135701  46.2425383  89.8646948  62.6393041  40.3067334
  89.1110657  62.0700439  40.1511339  89.9994490  62.6055705  41.2537969
  75.2545577  67.5106443  35.9822054  75.1191251  68.3557979  36.4106902
  75.7955389  67.7125721  35.2187988  76.8814053  68.1330010  50.1122396
  76.4377907  67.3466388  49.7943300  77.5431267  68.3209160  49.4466287
  71.6401174  69.6625811  44.6383074  72.1908599  69.5342875  43.8660068
  70.8012650  69.9620700  44.2877967  78.9795291  68.4132810  48.1403797
  78.9613766  69.2341691  47.6484066  79.9015211  68.2886885  48.3653938
  75.4368345  65.9276939  48.9827306  75.9696682  65.1665227  48.7526614
  74.9082426  65.6350591  49.7251460  78.5688323  61.0245616  33.0193382
  78.0534946  61.7950221  33.2581770  78.2965631  60.3510752  33.6426444
  83.5422597  63.7777971  34.9546556  82.7652040  63.4389130  34.5101718
  84.2214078  63.7830594  34.2801521  78.3574626  58.8972708  34.8453164
  78.0524762  59.2118857  35.6963307  79.3105068  58.9754128  34.8880497
  76.8021058  65.0562932  36.4946118  76.2742419  64.3215691  36.1819355
  76.3008561  65.8337608  36.2486086  81.7813904  63.2511952  41.6113164
  81.1237578  63.9411214  41.6993292  82.5854303  63.6408384  41.9547150
  80.5919363  61.6056325  39.6617106  81.1051244  62.2386317  40.1638815
  81.2420587  61.0057520  39.2960466  74.9473658  62.8743142  29.4981091
  74.0400720  62.6432395  29.6972240  75.4444690  62.0780761  29.6855072
  77.8541737  71.5840649  32.4177777  77.1803436  71.8872346  33.0262735
  78.2407559  72.3869729  32.0683234  77.8535241  60.4797196  37.0378126
  78.6007060  60.9918593  36.7285248  78.1226831  60.1581249  37.8982520
  76.1261891  62.9755737  34.0205081  75.2173111  62.6914770  34.1177550
  76.1556975  63.3954815  33.1608388  81.3581159  66.5862326  37.7896248
  80.9043486  65.7453236  37.8461439  80.7275126  67.2223725  38.1271028
  79.8014098  68.4238823  38.7246066  80.0937072  68.9843880  38.0058432
  80.3112719  68.7167384  39.4799225  75.8237979  64.5164480  31.3593159
  75.3857409  63.8000339  30.8998797  76.5648420  64.7440595  30.7978251
  74.7647723  69.2019174  39.8139520  74.7223902  69.4280020  38.8848052
  75.6810422  68.9682549  39.9625321  83.9411094  62.7921677  37.4169478
  83.8028993  62.9823273  36.4890667  83.5847313  63.5541060  37.8737529
  83.9680474  64.8598204  42.4280749  84.4016980  64.7673494  43.2763803
  84.6812054  64.8355705  41.7900765  77.7008369  68.4600299  43.9613850
  77.7545391  69.0291235  44.7291566  76.8323150  68.6302184  43.5967887
  84.8296023  64.9021905  44.9613635  85.0231913  65.8067716  45.2072910
  84.7296641  64.4429324  45.7952220  79.8911132  65.0528648  50.5354515
  79.7396638  64.8239200  49.6184599  79.8815811  66.0099249  50.5485860
  75.4584800  66.6511225  43.2899319  75.3195886  66.2830009  44.1625258
  74.6699396  67.1658864  43.1183277  76.0532952  71.7520321  34.6324856
  76.2284708  71.2808365  35.4470479  75.3665740  72.3786088  34.8606117
  77.0090015  66.0292828  40.6788157  76.6739848  65.9893598  41.5745807
  76.5093961  65.3637544  40.2058567  79.9449207  63.3748862  30.9525217
  79.3278378  62.6495690  30.8558270  79.4765695  64.1358222  30.6092291
  81.6003339  68.0847770  48.6130997  81.5415885  67.4006991  47.9461580
  82.0022857  68.8266760  48.1611623  70.6194037  74.9009684  41.4064716
  70.8590636  75.5328208  42.0843735  69.7763234  74.5497724  41.6930075
  81.6020746  66.0487354  46.8444977  80.7147525  65.7113276  46.9671376
  82.1719297  65.3170386  47.0813742  75.1321899  70.7088807  43.8106220
  75.0592071  71.5143778  44.3225525  74.6899292  70.9080773  42.9854241
  74.9211679  69.9460577  37.3209042  74.1379201  70.4882257  37.4147266
  75.6204424  70.4634556  37.7203283  86.0838086  61.4595572  41.6061539
  86.0727963  62.3420287  41.2355472  85.2155466  61.1067123  41.4116076
  77.5920583  70.6075641  45.9664379  78.3048555  71.2423106  45.8940280
  77.1010611  70.7039507  45.1504381  79.3138110  64.5126893  37.5381670
  78.3794388  64.6328356  37.3686375  79.4914778  63.6099360  37.2741680
  82.7010661  60.3544213  38.0731705  83.1671113  61.1872204  37.9992007
  83.1518161  59.8889194  38.7776963  72.6432496  68.3570084  46.7869950
  73.3441956  68.9906567  46.9399344  72.1727611  68.6984816  46.0265589
  80.7686892  66.6988034  35.0717857  81.0446736  66.5844629  35.9811731
  79.8991391  66.3005519  35.0330030  77.4040956  70.9474385  38.7150670
  77.5863351  70.1296041  39.1778423  78.2273942  71.1642077  38.2775560
  77.7383122  69.8742570  35.9765719  78.2670888  69.3635025  35.3635881
  78.0011341  69.5585100  36.8411252  71.0938870  70.9257687  38.7363495
  70.4249245  71.4103814  38.2527535  70.9551739  71.1726907  39.6506873
  75.2344138  72.9601430  45.3346153  75.7862446  73.1233052  46.0995238
  75.5750332  73.5505868  44.6626178  80.0855012  67.7862688  51.1894807
  80.6294916  68.3992646  50.6949762  79.5041857  68.3442266  51.7061820
  78.3712525  70.9083406  42.3209835  78.2463665  70.1073146  41.8120781
  79.0291617  71.4029599  41.8323805  80.4347434  68.7092426  43.9489385
  79.4877769  68.5897777  43.8767712  80.7830207  67.8214924  44.0315647
  77.4393867  68.5045142  40.1493737  77.2918830  67.5761849  40.3301308
  78.2647361  68.5265233  39.6650813  81.0427989  69.3273701  41.2358610
  81.9674536  69.1216562  41.0983061  80.8743292  69.0790102  42.1447952
  80.8323305  69.8459368  36.5920702  81.0060183  69.2805791  35.8394554
  81.3252196  70.6460263  36.4100192  86.6862696  62.6095791  38.2111001
  87.1293842  61.8603116  37.8130125  85.8089207  62.6005927  37.8284733
  81.8198478  69.1626133  33.6917600  82.5149382  69.7832825  33.9104915
  82.1621628  68.3121484  33.9669978  83.7189901  66.6125838  35.2204931
  84.2441225  66.9513111  34.4954251  83.6312253  65.6772853  35.0368065
  75.3809949  70.5259912  47.3494807  75.6897076  70.2809059  48.2217507
  76.1785431  70.7306550  46.8613678  75.4030561  72.6797821  39.5800184
  74.9635552  72.1874200  40.2733041  76.1538678  72.1370789  39.3392259
  72.8504434  68.2235830  41.6522486  72.2284443  67.5606535  41.3524713
  73.5209301  68.2496962  40.9696133  83.4083807  67.2458742  50.5256129
  82.6179351  67.2282881  49.9860628  83.1717161  67.7847035  51.2805165
  83.5281682  64.0951208  47.8388857  83.5779687  63.9301216  48.7804380
  83.4195605  63.2278467  47.4486738  85.0299879  66.5148150  48.0830879
  84.7384687  66.8778130  48.9194340  84.4172010  65.8015158  47.9044211
  86.2295561  64.0801029  40.6033449  87.0642452  64.5190833  40.7671009
  86.3654690  63.6039683  39.7841695  83.2787067  61.6380764  46.5510937
  83.7541189  61.8308411  45.7429788  82.3552632  61.6939950  46.3054320
  75.9113346  69.2687884  32.5992694  75.3387313  69.8878071  32.1463165
  76.4846140  69.8187246  33.1332615  79.1310606  69.5525034  33.7301276
  80.0641279  69.4870596  33.9334151  79.0433819  70.3881301  33.2715808
  81.7598623  68.8690905  30.6905223  81.6812254  68.5350768  31.5840981
  82.5808289  69.3612673  30.6896696  84.4576814  61.7352644  43.8981542
  84.4253134  60.7968645  44.0841226  85.0677437  61.8136681  43.1647367
  84.6071302  58.5263687  43.9439825  84.0910351  57.7422144  43.7569754
  85.4911251  58.1982404  44.1086345  90.2753364  62.7968651  43.0387579
  91.0056752  62.5353939  43.5995282  89.6660309  62.0597373  43.0789647
  88.3568661  60.9376513  43.6362030  87.6301824  60.8032478  43.0278522
  87.9415948  61.2453342  44.4418748  85.9746456  57.1588366  40.9895462
  86.5690946  56.9184102  40.2788770  86.0473039  56.4395496  41.6168998
  68.1943611  71.0021977  41.3038626  68.0598079  70.2422377  40.7376624
  67.7775674  71.7262876  40.8367415  79.3302574  66.1858900  30.3115202
  80.0338424  66.3908903  30.9272857  78.6065223  66.7535662  30.5764285
  80.1600385  61.9368761  36.4317472  80.1035586  62.3937313  35.5925104
  80.7128727  61.1759446  36.2540315  88.2817528  60.4654567  39.7638883
  87.7217086  60.5347756  40.5370445  87.6761032  60.2895551  39.0438379
  71.3512737  71.8991294  41.5157069  71.2345121  72.8436726  41.4135759
  70.5305183  71.5964855  41.9042868  81.2389272  66.6241429  32.3613662
  82.0734876  66.1922628  32.1791137  81.0773615  66.4523443  33.2890556
  80.8935164  63.1273543  33.7270001  80.8383968  62.9617814  32.7858445
  80.2681219  63.8349576  33.8832191  78.2081071  65.4322454  53.0523564
  79.0772231  65.6063107  52.6910199  77.7287823  66.2516871  52.9299293
  72.3767251  72.5519556  44.7312997  73.2794498  72.5843166  45.0479492
  72.1504621  71.6220006  44.7459333  74.1320853  71.3050542  41.3923076
  73.1816484  71.3052404  41.2787448  74.4353339  70.5583277  40.8759111
  89.8673547  77.1411080  42.4568839  90.5051957  77.0217828  41.7532179
  89.7494390  78.0891924  42.5156791  86.6763253  77.0938509  42.3930363
  86.3381765  76.9779573  41.5050898  87.5453021  76.6929674  42.3731369
  82.5350069  78.9473985  38.3827254  81.9714934  78.8563922  37.6143542
  82.4202464  78.1273889  38.8629747  87.1583036  78.2473360  48.3516569
  87.1471677  77.8526159  47.4797072  87.3203676  77.5139433  48.9450340
  80.0814501  80.4425177  41.2211475  80.8735793  80.1016001  40.8057774
  80.3211151  80.5520152  42.1413628  88.1149628  82.6144953  33.6941719
  87.4637607  83.1999033  33.3075733  88.9093990  83.1451148  33.7536757
  82.0405255  79.7034090  34.0928853  82.8136131  79.1563077  33.9541729
  82.3930654  80.5678339  34.3043315  83.8790297  81.0310472  47.2995753
  83.5880163  81.9356103  47.1842419  84.5147282  81.0727000  48.0139822
  84.8046504  78.4087321  43.8897112  85.4010076  78.1843343  43.1754075
  84.8621476  77.6672066  44.4922560  84.3771532  75.8626756  31.7247303
  84.6297053  75.3408277  30.9630766  83.4396092  75.6992901  31.8273987
  89.4214815  74.8662534  39.5322047  90.2077905  74.4481957  39.1812464
  89.6853520  75.7708626  39.7003695  89.5924893  80.3035385  34.2310703
  88.9570726  80.3770011  34.9431608  89.2622299  80.8928983  33.5529783
  94.8223242  74.8037767  40.4355025  95.5548414  74.2336984  40.6692855
  94.0662598  74.4159368  40.8761531  84.0967821  77.7654862  33.9271678
  83.9804079  77.0899765  34.5952763  84.2070081  77.2787236  33.1103831
  86.4399362  77.2265009  37.6318368  86.0757569  76.6995630  38.3431289
  87.2966478  76.8363478  37.4584853  92.3448663  68.5159342  44.8949634
  92.0131988  69.3854753  44.6710849  91.7494276  68.1995626  45.5743664
  86.0804849  72.2554909  32.6279716  86.2479251  73.1235145  32.9950187
  85.8902018  72.4182190  31.7041005  88.8380182  80.7171888  44.2945546
  88.5380905  81.6196926  44.1861354  88.4931242  80.4504071  45.1466699
  82.2892664  77.1685684  40.3282251  81.3643160  77.0361899  40.5359943
  82.5377077  77.9479904  40.8252193  92.2377326  73.2354428  41.9742984
  91.3294203  73.1669836  41.6801745  92.1864922  73.7126373  42.8024809
  86.0594070  74.7112566  33.6126383  85.9393695  75.1569617  34.4511863
  85.3646658  75.0597884  33.0539921  79.6501475  76.8118958  41.1626040
  79.7793856  77.0653437  42.0765452  78.9698926  77.4046666  40.8430695
  83.8200962  87.4816208  37.2616514  83.7424992  88.4324033  37.3404995
  83.2162606  87.1362080  37.9191440  86.3118192  74.6544073  49.9177881
  85.5351526  75.2137994  49.9080746  86.9508755  75.1400856  50.4392751
  94.1038973  71.4370866  43.7520858  93.4613353  71.7303399  43.1060652
  93.5993901  71.3223787  44.5574054  91.7579136  75.1834039  34.4406717
  92.6696992  75.4161426  34.2654414  91.2488783  75.7671084  33.8781796
  84.5664564  77.4629527  49.4795848  85.3079249  78.0014571  49.2030672
  83.8601550  78.0895815  49.6367400  90.0419904  79.6058667  48.0768009
  90.4503260  79.1641078  47.3322642  89.3197165  79.0311295  48.3302202
  86.3950974  74.5431274  45.4501566  87.2412169  74.9670688  45.5936215
  86.3349612  73.8864898  46.1440130  90.3648718  80.1659858  41.8320298
  89.7357581  80.3305572  41.1296366  89.9774381  80.5801467  42.6031262
  94.2437950  81.1014296  39.1864662  93.5588989  81.4813197  38.6361695
  94.3281800  81.7109622  39.9196610  89.5450419  72.2035642  47.1082740
  89.3011351  72.9577703  46.5717016  89.8210350  72.5820990  47.9429987
  91.4988882  78.7474255  45.7860006  91.7105777  79.3906015  45.1094387
  91.4518630  77.9136571  45.3181936  89.1015111  71.3592075  42.6896578
  88.2399590  71.6573329  42.9813315  89.1277546  71.5762474  41.7577610
  85.9176680  79.9034266  39.0970383  86.3815026  80.1821969  38.3075006
  85.6533478  79.0017710  38.9143474  82.8100761  79.4505747  42.0350147
  83.3802118  79.8793016  41.3967631  83.4008873  79.1688332  42.7334332
  84.8545566  76.0257418  35.9059949  85.5569610  76.4778462  36.3733875
  84.5226195  75.3841237  36.5339842  83.3025928  74.6169175  50.2811158
  82.6724589  75.2985456  50.5146555  83.1962016  74.5052257  49.3364296
  78.5970900  74.2840971  41.2077082  77.8069954  74.5398499  40.7317193
  79.0882148  75.0989309  41.3129123  92.6134710  81.6246210  43.9582363
  93.4352154  81.2226397  43.6765045  92.6097113  81.5214444  44.9098479
  80.5485646  74.6485550  38.1660559  79.7516809  74.7604244  38.6844055
  80.3211238  74.9872202  37.3001449  86.3791313  81.1730253  46.1143073
  86.4435746  81.6350661  46.9501245  85.6702237  80.5427618  46.2425383
  76.8808603  74.5371461  43.6392073  77.1316642  75.4218471  43.9049649
  77.4168152  74.3576063  42.8667165 100.7040703  77.9684959  40.3067334
  99.9504411  77.3992357  40.1511339 100.8388244  77.9347623  41.2537969
  86.0939331  82.8398361  35.9822054  85.9585006  83.6849897  36.4106902
  86.6349144  83.0417639  35.2187988  82.5806671  68.9189941  52.6436409
  82.1873616  68.3656139  53.3184053  83.3972811  69.2300519  53.0342927
  79.5468728  80.3573799  36.5549979  80.0593249  81.1517049  36.7055544
  80.1991441  79.6600089  36.4883580  81.3563613  83.4739555  38.6372732
  81.5330241  84.3957520  38.4493716  82.1520447  83.1597974  39.0667112
  85.4974632  70.3347820  50.2356666  86.2384345  70.9354973  50.1561128
  85.7292554  69.5925458  49.6774708  80.6415970  75.5204187  48.5134895
  80.5269485  74.6189444  48.8141994  79.7860487  75.7667884  48.1619712
  87.7207807  83.4621927  50.1122396  87.2771662  82.6758306  49.7943300
  88.3825021  83.6501078  49.4466287  82.4794929  84.9917729  44.6383074
  83.0302354  84.8634792  43.8660068  81.6406404  85.2912618  44.2877967
  89.8189045  83.7424727  48.1403797  89.8007521  84.5633608  47.6484066
  90.7408966  83.6178803  48.3653938  86.2762100  81.2568857  48.9827306
  86.8090436  80.4957145  48.7526614  85.7476181  80.9642509  49.7251460
  89.4431795  66.3628923  44.5120947  89.0996064  67.2530564  44.4360058
  89.8110757  66.1730580  43.6490532  77.5117645  78.6862453  37.3309549
  78.3492867  79.0959462  37.1143257  77.6895913  77.7461895  37.3009743
  89.4082077  76.3537534  33.0193382  88.8928701  77.1242139  33.2581770
  89.1359386  75.6802670  33.6426444  86.9929188  71.1987235  38.0778621
  86.1370785  70.8094085  37.8984259  87.4056140  71.2779195  37.2178406
  88.5228335  68.7333578  42.4770181  88.0193131  68.6963713  41.6637986
  88.8158942  69.6426321  42.5366837  84.7671221  68.8172308  41.4836362
  85.6324218  68.6215116  41.1242252  84.8348730  68.5882659  42.4105719
  94.3816351  79.1069889  34.9546556  93.6045794  78.7681048  34.5101718
  95.0607832  79.1122512  34.2801521  89.1968380  74.2264626  34.8453164
  88.8918516  74.5410775  35.6963307  90.1498823  74.3046046  34.8880497
  87.6414812  80.3854849  36.4946118  87.1136174  79.6507609  36.1819355
  87.1402315  81.1629526  36.2486086  92.6207658  78.5803870  41.6113164
  91.9631333  79.2703131  41.6993292  93.4248058  78.9700302  41.9547150
  82.3733540  71.0474516  38.8552729  82.9477292  70.8249697  38.1225922
  82.9604522  71.1163210  39.6081330  91.4313117  76.9348242  39.6617106
  91.9444999  77.5678234  40.1638815  92.0814341  76.3349438  39.2960466
  82.7003127  73.0778977  32.8748614  81.8640439  73.4153663  33.1957889
  82.5607897  72.9427956  31.9375751  84.6756208  67.9215764  37.5827798
  84.0220620  67.6064782  36.9584413  84.6336682  67.2991505  38.3087621
  85.7867413  78.2035060  29.4981091  84.8794474  77.9724313  29.6972240
  86.2838445  77.4072679  29.6855072  88.6935491  86.9132567  32.4177777
  88.0197190  87.2164264  33.0262735  89.0801313  87.7161647  32.0683234
  87.9093948  74.4097698  41.9075446  86.9916509  74.6312645  41.7497134
  88.3254092  74.4844008  41.0487153  88.6928996  75.8089114  37.0378126
  89.4400815  76.3210511  36.7285248  88.9620585  75.4873166  37.8982520
  86.9655646  78.3047654  34.0205081  86.0566865  78.0206687  34.1177550
  86.9950730  78.7246733  33.1608388  92.1974913  81.9154244  37.7896248
  91.7437240  81.0745154  37.8461439  91.5668880  82.5515642  38.1271028
  91.1407833  72.8446230  39.0196916  90.4030590  72.3323616  39.3507158
  91.3934606  72.4046612  38.2080193  90.6407853  83.7530741  38.7246066
  90.9330827  84.3135798  38.0058432  91.1506473  84.0459302  39.4799225
  91.2419460  65.6222482  39.6138685  91.5478337  64.7619845  39.3264600
  91.9672065  66.2140102  39.4137679  77.5343816  76.0253169  38.0020283
  77.3368216  75.4322529  37.2771349  76.9790480  75.7205379  38.7196222
  85.5140540  75.9176275  40.1214876  85.5689150  74.9650111  40.0457353
  84.7031742  76.0735714  40.6056174  86.6631734  79.8456398  31.3593159
  86.2251164  79.1292257  30.8998797  87.4042175  80.0732513  30.7978251
  83.4532900  74.5353335  37.8805255  82.6400765  74.8347505  38.2870447
  83.9491894  74.1409024  38.5979737  85.6041478  84.5311092  39.8139520
  85.5617657  84.7571938  38.8848052  86.5204177  84.2974466  39.9625321
  89.0507112  74.9995159  46.7120149  89.4056499  75.2266632  47.5714615
  89.6979243  75.3313536  46.0897404  94.7804849  78.1213595  37.4169478
  94.6422747  78.3115191  36.4890667  94.4241067  78.8832978  37.8737529
  82.9446975  72.1071690  43.4966490  83.5846354  71.9660449  42.7989453
  82.1124505  71.8206204  43.1205092  94.8074228  80.1890122  42.4280749
  95.2410735  80.0965411  43.2763803  95.5205809  80.1647623  41.7900765
  83.7207279  81.4074121  39.6101482  84.5147877  80.9124441  39.4084057
  83.0098971  80.8791984  39.2469188  88.5402123  83.7892216  43.9613850
  88.5939145  84.3583153  44.7291566  87.6716904  83.9594101  43.5967887
  80.0290042  75.5517202  35.6861235  79.0987630  75.4901658  35.9031197
  80.1247514  75.0293155  34.8897876  79.9475591  72.0772015  38.2739477
  80.2082408  72.9917349  38.1648637  80.7692763  71.6096458  38.4236089
  81.4200516  73.4909772  45.4438301  82.0923570  73.2827135  44.7950950
  80.5930303  73.2931858  45.0043533  95.6689778  80.2313823  44.9613635
  95.8625668  81.1359633  45.2072910  95.5690396  79.7721242  45.7952220
  87.3226088  70.1171713  47.4603962  86.6754003  70.8161663  47.3668438
  88.0927104  70.5507857  47.8280210  90.7304886  80.3820566  50.5354515
  90.5790393  80.1531117  49.6184599  90.7209566  81.3391167  50.5485860
  87.4990223  77.9552478  45.5200782  88.4282283  78.1063638  45.3469749
  87.0781253  78.0436499  44.6649428  86.2978555  81.9803143  43.2899319
  86.1589640  81.6121927  44.1625258  85.5093151  82.4950782  43.1183277
  86.8926707  87.0812239  34.6324856  87.0678462  86.6100282  35.4470479
  86.2059495  87.7078005  34.8606117  87.8483770  81.3584745  40.6788157
  87.5133602  81.3185515  41.5745807  87.3487715  80.6929461  40.2058567
  81.8228014  76.7652375  46.2040738  81.6847812  76.0332614  46.8052277
  82.7332937  76.6761276  45.9224926  90.7842961  78.7040780  30.9525217
  90.1672132  77.9787608  30.8558270  90.3159450  79.4650140  30.6092291
  84.4510314  76.4772335  45.6924418  85.1609933  75.8365527  45.6511036
  84.4079623  76.7285230  46.6150599  92.4397093  83.4139688  48.6130997
  92.3809639  82.7298908  47.9461580  92.8416611  84.1558678  48.1611623
  83.1639248  73.4637553  47.5120057  82.6276605  73.0128291  48.1641654
  82.5755957  73.5983461  46.7690522  81.4587792  90.2301602  41.4064716
  81.6984390  90.8620126  42.0843735  80.6156988  89.8789642  41.6930075
  82.5741507  72.9226204  30.0746521  81.6970974  72.8015005  29.7108768
  83.0499260  72.1312282  29.8225410  92.4414500  81.3779272  46.8444977
  91.5541279  81.0405194  46.9671376  93.0113051  80.6462303  47.0813742
  74.0943647  77.7103364  40.1688028  74.7814687  77.3965094  39.5809044
  73.9391776  78.6144728  39.8955280  78.8978370  72.5993560  44.5973052
  78.8136558  71.9919230  43.8623462  78.0761076  73.0902579  44.5982548
  85.9715654  86.0380724  43.8106220  85.8985825  86.8435696  44.3225525
  85.5293047  86.2372690  42.9854241  85.7605433  85.2752494  37.3209042
  84.9772955  85.8174175  37.4147266  86.4598178  85.7926474  37.7203283
  89.0702083  71.0847124  39.9643247  89.5670783  70.3317086  39.6444317
  88.2989065  71.1211441  39.3986456  96.9231841  76.7887489  41.6061539
  96.9121717  77.6712205  41.2355472  96.0549220  76.4359040  41.4116076
  88.4314337  85.9367558  45.9664379  89.1442309  86.5715023  45.8940280
  87.9404366  86.0331424  45.1504381  90.1531864  79.8418811  37.5381670
  89.2188143  79.9620274  37.3686375  90.3308533  78.9391278  37.2741680
  85.6537052  73.2264507  39.6914932  85.2834840  72.6735547  40.3795837
  86.1496145  72.6222640  39.1389932  93.5404415  75.6836130  38.0731705
  94.0064868  76.5164122  37.9992007  93.9911916  75.2181112  38.7776963
  83.4826251  83.6862002  46.7869950  84.1835710  84.3198485  46.9399344
  83.0121366  84.0276733  46.0265589  91.6080647  82.0279952  35.0717857
  91.8840490  81.9136546  35.9811731  90.7385145  81.6297437  35.0330030
  91.5121078  68.0516717  42.1122606  90.5984158  68.2820944  42.2804813
  91.9414180  68.1355161  42.9636638  91.2827537  76.2406609  44.6122500
  90.6298987  76.4882517  43.9574953  91.6607917  75.4270748  44.2784977
  88.2434711  86.2766303  38.7150670  88.4257105  85.4587958  39.1778423
  89.0667697  86.4933995  38.2775560  88.5776876  85.2034488  35.9765719
  89.1064643  84.6926942  35.3635881  88.8405096  84.8877018  36.8411252
  87.3315110  76.9826420  51.0988537  86.6555747  76.8820550  51.7690912
  88.1542744  76.8265634  51.5624534  79.0793969  83.2198357  43.7201052
  79.6647406  82.4742045  43.8528956  78.8818807  83.5302314  44.6037716
  81.9332624  86.2549604  38.7363495  81.2642999  86.7395732  38.2527535
  81.7945494  86.5018825  39.6506873  73.6711624  75.7903957  42.4405495
  73.7095723  75.2567548  43.2342613  73.1651916  75.2639163  41.8216473
  86.0737893  88.2893348  45.3346153  86.6256201  88.4524969  46.0995238
  86.4144086  88.8797786  44.6626178  81.0502386  70.6368498  45.9368038
  81.1143712  71.4983329  45.5245435  80.9869506  70.0242499  45.2040396
  80.5254658  72.7091630  49.5841072  81.1526697  72.3268707  50.1978596
  79.6682577  72.4905832  49.9496764  90.9248767  83.1154605  51.1894807
  91.4688671  83.7284564  50.6949762  90.3435612  83.6734184  51.7061820
  77.3020201  74.5168059  35.5159427  77.5973642  73.6078738  35.4626480
  76.4008237  74.4955799  35.1940429  89.2106280  86.2375323  42.3209835
  89.0857419  85.4365063  41.8120781  89.8685371  86.7321517  41.8323805
  80.8314448  72.5924056  41.4986975  80.1101034  73.2060024  41.3594449
  81.6207704  73.1281821  41.4203621  91.2741188  84.0384343  43.9489385
  90.3271524  83.9189695  43.8767712  91.6223961  83.1506841  44.0315647
  83.6340762  69.9278482  47.7727627  84.1575163  70.1740779  48.5353936
  83.4153095  70.7598517  47.3530764  79.0308043  72.1982157  35.6398752
  78.7020749  71.3179536  35.4573858  79.3847413  72.1429826  36.5275141
  88.2787622  83.8337060  40.1493737  88.1312584  82.9053767  40.3301308
  89.1041115  83.8557150  39.6650813  82.1449866  72.4855127  36.0074230
  82.4845938  73.0141048  35.2852838  82.5921986  72.8235533  36.7832796
  91.8821743  84.6565618  41.2358610  92.8068291  84.4508480  41.0983061
  91.7137047  84.4082020  42.1447952  84.8393307  70.8692177  45.4577298
  84.4990127  70.0699991  45.8597978  84.1332313  71.1693888  44.8854131
  85.4909779  67.9541490  43.9104621  86.3135848  67.4801968  43.7883511
  85.7347842  68.7331974  44.4103307  84.1318013  70.9829748  34.2067522
  84.8526376  71.3611001  33.7031239  83.5083317  71.7018625  34.3102500
  88.2749136  71.6874897  35.1425855  88.4912750  72.5699535  34.8414683
  87.7943203  71.2961111  34.4131497  83.0148357  74.6460611  41.7196599
  82.8692938  74.9600914  42.6120881  82.5373561  75.2645511  41.1667498
  84.8744740  71.6363159  41.7677489  84.8606309  70.7404252  41.4309787
  85.5917168  71.6433822  42.4015775  86.7270871  72.0700499  43.8130616
  86.4688649  72.9917569  43.8114947  86.1955911  71.6730933  44.5031080
  91.6717060  85.1751286  36.5920702  91.8453937  84.6097708  35.8394554
  92.1645951  85.9752181  36.4100192  77.4894019  77.1865955  44.6584260
  76.9447488  77.9625763  44.7904535  78.3673369  77.5336759  44.5003382
  84.2781636  70.5177539  37.0365059  84.3997547  69.5894185  37.2355946
  83.9883678  70.5316225  36.1243374  87.1472826  68.2032449  40.1731779
  87.1694523  68.2671782  39.2183758  87.5640885  67.3636958  40.3672285
  97.5256451  77.9387709  38.2111001  97.9687597  77.1895034  37.8130125
  96.6482961  77.9297845  37.8284733  92.6592232  84.4918050  33.6917600
  93.3543137  85.1124743  33.9104915  93.0015382  83.6413401  33.9669978
  78.2760041  76.3135851  47.5514417  77.5341777  76.4618487  48.1379048
  77.9552786  76.5744117  46.6881167  94.5583655  81.9417756  35.2204931
  95.0834979  82.2805029  34.4954251  94.4706008  81.0064771  35.0368065
  86.2203704  85.8551829  47.3494807  86.5290830  85.6100976  48.2217507
  87.0179186  86.0598468  46.8613678  86.2424316  88.0089739  39.5800184
  85.8029306  87.5166118  40.2733041  86.9932433  87.4662707  39.3392259
  78.7216655  84.2001280  39.5824812  79.5474675  83.9005052  39.2023456
  78.3710707  83.4308902  40.0314601  83.6898188  83.5527748  41.6522486
  83.0678197  82.8898453  41.3524713  84.3603055  83.5788880  40.9696133
  76.9225260  82.1187606  40.5413746  76.0857168  81.6909781  40.3597747
  76.8948905  82.3120050  41.4784537  83.7622716  72.0309536  51.2454992
  83.8110871  72.9071659  50.8632761  84.3045230  71.4886929  50.6726635
  94.2477561  82.5750659  50.5256129  93.4573105  82.5574798  49.9860628
  94.0110916  83.1138953  51.2805165  94.3675436  79.4243126  47.8388857
  94.4173441  79.2593133  48.7804380  94.2589360  78.5570385  47.4486738
  83.2511695  82.1031671  35.1280946  83.3999815  82.7867136  34.4747619
  84.0578139  82.0836762  35.6430402  91.6579199  75.4074054  49.1548164
  92.5589062  75.2680519  48.8632162  91.7327173  75.5728509  50.0946341
  85.9922004  72.7840909  48.0001350  85.1225313  73.0774475  47.7283939
  86.2281484  73.3681354  48.7208614  95.8693633  81.8440067  48.0830879
  95.5778441  82.2070048  48.9194340  95.2565764  81.1307076  47.9044211
  97.0689315  79.4092947  40.6033449  97.9036207  79.8482751  40.7671009
  97.2048444  78.9331600  39.7841695  94.1180821  76.9672682  46.5510937
  94.5934943  77.1600328  45.7429788  93.1946387  77.0231868  46.3054320
  81.0064328  78.1296849  36.1342015  80.7610370  77.2259179  36.3322225
  81.1760243  78.1314000  35.1921493  88.6961038  69.0020525  45.5166771
  89.2142982  69.7381552  45.1913259  88.3416171  69.3084519  46.3513530
  80.2759976  73.8625207  33.6328176  79.5829221  73.9369562  32.9768212
  80.0311727  73.0985550  34.1549693  88.9473632  65.4220808  41.0367667
  89.2275386  64.7543997  41.6628094  89.7324239  65.6149904  40.5242331
  86.7507101  84.5979802  32.5992694  86.1781068  85.2169989  32.1463165
  87.3239894  85.1479164  33.1332615  92.8182490  73.8438442  44.7839242
  93.7699913  73.9436540  44.8051466  92.6485941  73.0516711  45.2937327
  90.8396870  70.9294025  44.9698643  90.2446802  71.2099038  44.2745132
  90.5546567  71.4187926  45.7415384  89.9704360  84.8816952  33.7301276
  90.9035034  84.8162514  33.9334151  89.8827573  85.7173219  33.2715808
  92.5992377  84.1982822  30.6905223  92.5206009  83.8642686  31.5840981
  93.4202044  84.6904590  30.6896696  95.2970568  77.0644562  43.8981542
  95.2646888  76.1260562  44.0841226  95.9071192  77.1428598  43.1647367
  87.1353899  75.9340615  29.9408746  88.0813004  75.8046823  30.0097164
  86.7568144  75.1955277  30.4178174  95.4465057  73.8555605  43.9439825
  94.9304105  73.0714062  43.7569754  96.3305005  73.5274322  44.1086345
  93.1075784  67.5996621  39.9035638  92.9100605  67.2911709  40.7878970
  93.7175489  68.3258260  40.0333568 101.1147118  78.1260569  43.0387579
 101.8450507  77.8645857  43.5995282 100.5054064  77.3889290  43.0789647
  99.1962415  76.2668431  43.6362030  98.4695579  76.1324396  43.0278522
  98.7809702  76.5745260  44.4418748  87.0192592  79.9858361  51.4009403
  87.9395601  80.1636960  51.5949450  86.9842175  79.0414406  51.2489102
  85.3196816  73.8590591  29.8763631  84.4128272  73.5623704  29.9526345
  85.5972797  73.5620409  29.0097917  76.2374757  75.1796954  40.3262678
  75.9177541  74.3262263  40.0337052  75.6908185  75.3945533  41.0820645
  80.0154664  77.8959395  44.0432184  80.2340674  78.8276503  44.0620218
  80.4280438  77.5367370  44.8286988  86.9358882  68.4027481  36.0307873
  86.1259610  68.0574566  36.4063119  87.6243299  68.0935025  36.6195484
  88.8649430  67.4805528  37.6532169  89.4180469  67.9000981  38.3122192
  89.1019517  66.5541276  37.6955125  84.8882529  73.4692601  53.4334933
  84.7879256  74.4186958  53.3647024  84.6704072  73.1410840  52.5611003
  84.0895601  70.7177526  30.0175610  84.9514765  71.0432425  30.2771428
  84.2745945  69.9309022  29.5048676  76.1063017  78.7999866  42.2955799
  75.4126488  78.3853819  41.7825754  76.8536008  78.8420402  41.6989218
  92.2428237  69.5906053  37.1610833  91.6626906  70.2490857  36.7788886
  91.9764170  68.7683397  36.7498251  90.6931804  68.9911110  39.3632154
  91.1931582  69.1027645  38.5546473  91.3367412  68.6872163  40.0032962
  84.7513800  76.8989740  52.2499995  84.2680881  77.6990100  52.4563884
  84.8374739  76.9097685  51.2967439  78.0199759  78.7318120  40.1721814
  77.9970447  78.8305807  39.2203697  78.3300396  79.5783271  40.4938980
  80.6787137  80.7894275  44.2868429  81.6330391  80.7578217  44.2198360
  80.4799661  80.3284899  45.1018654  81.2686519  79.3595391  46.8539226
  82.0879408  79.8539469  46.8774063  81.5423327  78.4427359  46.8256794
  91.0253115  71.7506143  36.2167182  90.1378970  72.0355794  35.9987376
  91.4407104  71.5899907  35.3694459  94.3767651  71.7752664  39.9321521
  95.1528042  72.2649117  40.2046138  93.6515786  72.2010718  40.3893390
  96.8140210  72.4880283  40.9895462  97.4084701  72.2476019  40.2788770
  96.8866794  71.7687414  41.6168998  79.0337366  86.3313894  41.3038626
  78.8991834  85.5714295  40.7376624  78.6169428  87.0554794  40.8367415
  90.1696329  81.5150818  30.3115202  90.8732179  81.7200820  30.9272857
  89.4458978  82.0827580  30.5764285  90.9994139  77.2660679  36.4317472
  90.9429340  77.7229230  35.5925104  91.5522482  76.5051364  36.2540315
  94.8098945  73.0550411  37.2567591  94.5535879  72.6547047  38.0875799
  94.1851813  73.7694205  37.1317731  99.1211283  75.7946484  39.7638883
  98.5610841  75.8639673  40.5370445  98.5154786  75.6187469  39.0438379
  82.1906492  87.2283211  41.5157069  82.0738876  88.1728644  41.4135759
  81.3698938  86.9256773  41.9042868  92.0783026  81.9533347  32.3613662
  92.9128630  81.5214545  32.1791137  91.9167369  81.7815361  33.2890556
  91.7328918  78.4565460  33.7270001  91.6777722  78.2909732  32.7858445
  91.1074974  79.1641493  33.8832191  76.5221433  73.6933525  47.5531423
  77.1680297  73.1832479  48.0418648  76.3138585  74.4302206  48.1274849
  89.0474826  80.7614372  53.0523564  89.9165985  80.9355024  52.6910199
  88.5681577  81.5808789  52.9299293  85.0425044  67.9573569  33.3055319
  85.0303714  68.9015409  33.4623590  85.9348466  67.7743715  33.0114781
  83.2161006  87.8811473  44.7312997  84.1188253  87.9135083  45.0479492
  82.9898376  86.9511924  44.7459333  84.9714608  86.6342460  41.3923076
  84.0210239  86.6344321  41.2787448  85.2747094  85.8875194  40.8759111
  88.8577163  64.5516346  37.5601256  88.0909559  63.9974833  37.7057939
  89.2687868  64.6238215  38.4215408  80.8618924  70.8401142  51.6506437
  81.7250386  70.4837947  51.8609762  80.2884335  70.5015037  52.3381842
 100.7067301  92.4702998  42.4568839 101.3445711  92.3509745  41.7532179
 100.5888144  93.4183842  42.5156791  97.5157008  92.4230426  42.3930363
  97.1775519  92.3071491  41.5050898  98.3846776  92.0221591  42.3731369
  93.3743823  94.2765903  38.3827254  92.8108688  94.1855840  37.6143542
  93.2596218  93.4565807  38.8629747  97.9976791  93.5765278  48.3516569
  97.9865431  93.1818076  47.4797072  98.1597430  92.8431351  48.9450340
  90.9208255  95.7717094  41.2211475  91.7129547  95.4307919  40.8057774
  91.1604905  95.8812069  42.1413628  98.9543382  97.9436870  33.6941719
  98.3031362  98.5290951  33.3075733  99.7487745  98.4743065  33.7536757
  92.8799009  95.0326007  34.0928853  93.6529885  94.4854995  33.9541729
  93.2324408  95.8970257  34.3043315  94.7184052  96.3602390  47.2995753
  94.4273918  97.2648021  47.1842419  95.3541036  96.4018917  48.0139822
  95.6440259  93.7379238  43.8897112  96.2403831  93.5135261  43.1754075
  95.7015230  92.9963984  44.4922560  95.2165287  91.1918674  31.7247303
  95.4690808  90.6700195  30.9630766  94.2789846  91.0284819  31.8273987
 100.2608570  90.1954452  39.5322047 101.0471659  89.7773875  39.1812464
 100.5247274  91.1000544  39.7003695 100.4318647  95.6327302  34.2310703
  99.7964480  95.7061929  34.9431608 100.1016054  96.2220901  33.5529783
 105.6616997  90.1329685  40.4355025 106.3942169  89.5628902  40.6692855
 104.9056353  89.7451286  40.8761531  94.9361576  93.0946780  33.9271678
  94.8197834  92.4191683  34.5952763  95.0463836  92.6079153  33.1103831
  97.2793117  92.5556927  37.6318368  96.9151324  92.0287548  38.3431289
  98.1360233  92.1655396  37.4584853 103.1842417  83.8451259  44.8949634
 102.8525742  84.7146670  44.6710849 102.5888031  83.5287543  45.5743664
  96.9198604  87.5846826  32.6279716  97.0873006  88.4527063  32.9950187
  96.7295773  87.7474108  31.7041005  99.6773937  96.0463805  44.2945546
  99.3774660  96.9488844  44.1861354  99.3324996  95.7795988  45.1466699
  93.1286418  92.4977602  40.3282251  92.2036915  92.3653816  40.5359943
  93.3770831  93.2771821  40.8252193 103.0771081  88.5646345  41.9742984
 102.1687958  88.4961754  41.6801745 103.0258676  89.0418290  42.8024809
  96.8987825  90.0404484  33.6126383  96.7787450  90.4861535  34.4511863
  96.2040413  90.3889802  33.0539921  90.4895229  92.1410876  41.1626040
  90.6187610  92.3945355  42.0765452  89.8092681  92.7338584  40.8430695
  97.1511946  89.9835991  49.9177881  96.3745280  90.5429911  49.9080746
  97.7902509  90.4692774  50.4392751 104.9432727  86.7662784  43.7520858
 104.3007107  87.0595317  43.1060652 104.4387656  86.6515704  44.5574054
 102.5972891  90.5125957  34.4406717 103.5090747  90.7453344  34.2654414
 102.0882538  91.0963001  33.8781796  95.4058319  92.7921444  49.4795848
  96.1473003  93.3306488  49.2030672  94.6995304  93.4187733  49.6367400
 100.8813658  94.9350585  48.0768009 101.2897014  94.4932995  47.3322642
 100.1590920  94.3603212  48.3302202  97.2344728  89.8723192  45.4501566
  98.0805924  90.2962605  45.5936215  97.1743366  89.2156816  46.1440130
 101.2042473  95.4951775  41.8320298 100.5751335  95.6597490  41.1296366
 100.8168135  95.9093385  42.6031262 100.3844174  87.5327560  47.1082740
 100.1405106  88.2869621  46.5717016 100.6604104  87.9112908  47.9429987
 102.3382636  94.0766172  45.7860006 102.5499532  94.7197932  45.1094387
 102.2912385  93.2428489  45.3181936  99.9408865  86.6883993  42.6896578
  99.0793344  86.9865247  42.9813315  99.9671300  86.9054392  41.7577610
  96.7570435  95.2326184  39.0970383  97.2208780  95.5113887  38.3075006
  96.4927233  94.3309628  38.9143474  93.6494516  94.7797665  42.0350147
  94.2195873  95.2084933  41.3967631  94.2402628  94.4980250  42.7334332
  95.6939321  91.3549336  35.9059949  96.3963364  91.8070380  36.3733875
  95.3619949  90.7133155  36.5339842  94.1419682  89.9461093  50.2811158
  93.5118343  90.6277373  50.5146555  94.0355770  89.8344174  49.3364296
  89.4364655  89.6132889  41.2077082  88.6463709  89.8690417  40.7317193
  89.9275902  90.4281226  41.3129123  91.3879400  89.9777468  38.1660559
  90.5910564  90.0896162  38.6844055  91.1604992  90.3164120  37.3001449
  97.2185068  96.5022171  46.1143073  97.2829500  96.9642578  46.9501245
  96.5095992  95.8719536  46.2425383  87.7202358  89.8663379  43.6392073
  87.9710396  90.7510389  43.9049649  88.2561906  89.6867981  42.8667165
  96.9333086  98.1690279  35.9822054  96.7978760  99.0141814  36.4106902
  97.4742898  98.3709556  35.2187988  93.4200425  84.2481858  52.6436409
  93.0267371  83.6948057  53.3184053  94.2366565  84.5592437  53.0342927
  90.3862483  95.6865717  36.5549979  90.8987003  96.4808967  36.7055544
  91.0385196  94.9892007  36.4883580  92.1957368  98.8031473  38.6372732
  92.3723996  99.7249438  38.4493716  92.9914201  98.4889892  39.0667112
  96.3368386  85.6639738  50.2356666  97.0778100  86.2646891  50.1561128
  96.5686309  84.9217375  49.6774708  91.4809724  90.8496105  48.5134895
  91.3663239  89.9481362  48.8141994  90.6254242  91.0959802  48.1619712
  93.3188683 100.3209647  44.6383074  93.8696108 100.1926710  43.8660068
  92.4800159 100.6204536  44.2877967  97.1155854  96.5860774  48.9827306
  97.6484191  95.8249063  48.7526614  96.5869935  96.2934426  49.7251460
 100.2825549  81.6920840  44.5120947  99.9389818  82.5822482  44.4360058
 100.6504512  81.5022498  43.6490532  88.3511400  94.0154371  37.3309549
  89.1886622  94.4251379  37.1143257  88.5289667  93.0753813  37.3009743
 100.2475832  91.6829452  33.0193382  99.7322455  92.4534056  33.2581770
  99.9753140  91.0094588  33.6426444  97.8322943  86.5279152  38.0778621
  96.9764539  86.1386003  37.8984259  98.2449895  86.6071113  37.2178406
  99.3622089  84.0625496  42.4770181  98.8586885  84.0255631  41.6637986
  99.6552696  84.9718238  42.5366837  95.6064975  84.1464225  41.4836362
  96.4717972  83.9507034  41.1242252  95.6742484  83.9174577  42.4105719
 100.0362135  89.5556544  34.8453164  99.7312271  89.8702693  35.6963307
 100.9892577  89.6337964  34.8880497  98.4808567  95.7146767  36.4946118
  97.9529928  94.9799527  36.1819355  97.9796070  96.4921443  36.2486086
 103.4601413  93.9095787  41.6113164 102.8025087  94.5995049  41.6993292
 104.2641812  94.2992219  41.9547150  93.2127294  86.3766433  38.8552729
  93.7871046  86.1541615  38.1225922  93.7998277  86.4455128  39.6081330
 102.2706872  92.2640160  39.6617106 102.7838753  92.8970152  40.1638815
 102.9208096  91.6641356  39.2960466  93.5396882  88.4070894  32.8748614
  92.7034194  88.7445581  33.1957889  93.4001651  88.2719874  31.9375751
  95.5149962  83.2507682  37.5827798  94.8614374  82.9356699  36.9584413
  95.4730436  82.6283423  38.3087621  96.6261167  93.5326977  29.4981091
  95.7188229  93.3016231  29.6972240  97.1232199  92.7364596  29.6855072
  98.7487703  89.7389616  41.9075446  97.8310264  89.9604563  41.7497134
  99.1647846  89.8135926  41.0487153  99.5322750  91.1381031  37.0378126
 100.2794569  91.6502429  36.7285248  99.8014340  90.8165084  37.8982520
  97.8049400  93.6339572  34.0205081  96.8960620  93.3498605  34.1177550
  97.8344484  94.0538651  33.1608388 101.9801587  88.1738148  39.0196916
 101.2424344  87.6615534  39.3507158 102.2328361  87.7338529  38.2080193
 102.0813215  80.9514400  39.6138685 102.3872092  80.0911763  39.3264600
 102.8065820  81.5432020  39.4137679  88.3737571  91.3545086  38.0020283
  88.1761971  90.7614447  37.2771349  87.8184235  91.0497296  38.7196222
  96.3534294  91.2468193  40.1214876  96.4082904  90.2942029  40.0457353
  95.5425497  91.4027632  40.6056174  97.5025488  95.1748316  31.3593159
  97.0644918  94.4584175  30.8998797  98.2435929  95.4024431  30.7978251
  94.2926654  89.8645252  37.8805255  93.4794520  90.1639423  38.2870447
  94.7885649  89.4700941  38.5979737  96.4435232  99.8603009  39.8139520
  96.4011411 100.0863856  38.8848052  97.3597931  99.6266384  39.9625321
  99.8900866  90.3287077  46.7120149 100.2450254  90.5558550  47.5714615
 100.5372997  90.6605454  46.0897404 105.6198603  93.4505513  37.4169478
 105.4816502  93.6407109  36.4890667 105.2634822  94.2124896  37.8737529
  93.7840729  87.4363608  43.4966490  94.4240108  87.2952367  42.7989453
  92.9518260  87.1498121  43.1205092  94.5601033  96.7366038  39.6101482
  95.3541632  96.2416359  39.4084057  93.8492725  96.2083902  39.2469188
  90.8683797  90.8809120  35.6861235  89.9381385  90.8193576  35.9031197
  90.9641269  90.3585073  34.8897876  90.7869346  87.4063933  38.2739477
  91.0476163  88.3209266  38.1648637  91.6086518  86.9388376  38.4236089
  92.2594271  88.8201690  45.4438301  92.9317324  88.6119052  44.7950950
  91.4324057  88.6223776  45.0043533  98.1619843  85.4463631  47.4603962
  97.5147758  86.1453581  47.3668438  98.9320858  85.8799775  47.8280210
 101.5698641  95.7112483  50.5354515 101.4184147  95.4823035  49.6184599
 101.5603320  96.6683085  50.5485860  98.3383977  93.2844396  45.5200782
  99.2676037  93.4355556  45.3469749  97.9175007  93.3728417  44.6649428
  97.1372309  97.3095060  43.2899319  96.9983395  96.9413845  44.1625258
  96.3486905  97.8242700  43.1183277  98.6877524  96.6876663  40.6788157
  98.3527357  96.6477433  41.5745807  98.1881470  96.0221379  40.2058567
  92.6621768  92.0944293  46.2040738  92.5241566  91.3624532  46.8052277
  93.5726692  92.0053193  45.9224926  95.2904069  91.8064252  45.6924418
  96.0003687  91.1657445  45.6511036  95.2473377  92.0577147  46.6150599
  94.0033003  88.7929470  47.5120057  93.4670360  88.3420209  48.1641654
  93.4149711  88.9275379  46.7690522  93.4135262  88.2518122  30.0746521
  92.5364728  88.1306923  29.7108768  93.8893015  87.4604200  29.8225410
  84.9337402  93.0395281  40.1688028  85.6208442  92.7257011  39.5809044
  84.7785531  93.9436646  39.8955280  89.7372124  87.9285478  44.5973052
  89.6530313  87.3211148  43.8623462  88.9154830  88.4194496  44.5982548
  99.9095838  86.4139042  39.9643247 100.4064537  85.6609004  39.6444317
  99.1382819  86.4503358  39.3986456 100.9925619  95.1710729  37.5381670
 100.0581897  95.2912191  37.3686375 101.1702287  94.2683196  37.2741680
  96.4930807  88.5556425  39.6914932  96.1228594  88.0027465  40.3795837
  96.9889899  87.9514558  39.1389932 104.3798170  91.0128048  38.0731705
 104.8458622  91.8456040  37.9992007 104.8305670  90.5473030  38.7776963
  94.3220005  99.0153920  46.7869950  95.0229465  99.6490403  46.9399344
  93.8515120  99.3568651  46.0265589 102.3514833  83.3808635  42.1122606
 101.4377913  83.6112862  42.2804813 102.7807934  83.4647079  42.9636638
 102.1221291  91.5698527  44.6122500 101.4692741  91.8174434  43.9574953
 102.5001671  90.7562665  44.2784977  98.1708864  92.3118338  51.0988537
  97.4949501  92.2112467  51.7690912  98.9936498  92.1557552  51.5624534
  89.9187723  98.5490275  43.7201052  90.5041160  97.8033963  43.8528956
  89.7212562  98.8594231  44.6037716  92.7726379 101.5841522  38.7363495
  92.1036754 102.0687650  38.2527535  92.6339248 101.8310742  39.6506873
  84.5105378  91.1195875  42.4405495  84.5489478  90.5859465  43.2342613
  84.0045671  90.5931080  41.8216473  91.8896140  85.9660415  45.9368038
  91.9537467  86.8275246  45.5245435  91.8263261  85.3534417  45.2040396
  91.3648413  88.0383548  49.5841072  91.9920452  87.6560625  50.1978596
  90.5076332  87.8197750  49.9496764  88.1413956  89.8459977  35.5159427
  88.4367397  88.9370655  35.4626480  87.2401991  89.8247716  35.1940429
  91.6708203  87.9215974  41.4986975  90.9494788  88.5351941  41.3594449
  92.4601458  88.4573738  41.4203621  94.4734516  85.2570400  47.7727627
  94.9968918  85.5032697  48.5353936  94.2546849  86.0890435  47.3530764
  89.8701797  87.5274075  35.6398752  89.5414503  86.6471454  35.4573858
  90.2241168  87.4721743  36.5275141  92.9843620  87.8147044  36.0074230
  93.3239693  88.3432966  35.2852838  93.4315741  88.1527451  36.7832796
  95.6787061  86.1984095  45.4577298  95.3383882  85.3991908  45.8597978
  94.9726067  86.4985806  44.8854131  96.3303533  83.2833408  43.9104621
  97.1529602  82.8093886  43.7883511  96.5741597  84.0623891  44.4103307
  94.9711768  86.3121666  34.2067522  95.6920130  86.6902919  33.7031239
  94.3477072  87.0310543  34.3102500  99.1142890  87.0166815  35.1425855
  99.3306505  87.8991453  34.8414683  98.6336958  86.6253028  34.4131497
  93.8542112  89.9752528  41.7196599  93.7086692  90.2892831  42.6120881
  93.3767315  90.5937429  41.1667498  95.7138495  86.9655076  41.7677489
  95.7000063  86.0696170  41.4309787  96.4310923  86.9725740  42.4015775
  97.5664625  87.3992416  43.8130616  97.3082403  88.3209487  43.8114947
  97.0349666  87.0022851  44.5031080  88.3287774  92.5157873  44.6584260
  87.7841242  93.2917681  44.7904535  89.2067124  92.8628677  44.5003382
  95.1175391  85.8469456  37.0365059  95.2391302  84.9186103  37.2355946
  94.8277433  85.8608142  36.1243374  97.9866581  83.5324367  40.1731779
  98.0088278  83.5963700  39.2183758  98.4034640  82.6928876  40.3672285
  89.1153796  91.6427769  47.5514417  88.3735532  91.7910404  48.1379048
  88.7946540  91.9036034  46.6881167  89.5610409  99.5293198  39.5824812
  90.3868429  99.2296969  39.2023456  89.2104461  98.7600820  40.0314601
  94.5291943  98.8819666  41.6522486  93.9071952  98.2190371  41.3524713
  95.1996810  98.9080798  40.9696133  87.7619015  97.4479524  40.5413746
  86.9250923  97.0201698  40.3597747  87.7342660  97.6411967  41.4784537
  94.6016470  87.3601454  51.2454992  94.6504626  88.2363577  50.8632761
  95.1438984  86.8178847  50.6726635  94.0905450  97.4323589  35.1280946
  94.2393570  98.1159054  34.4747619  94.8971893  97.4128679  35.6430402
 102.4972953  90.7365971  49.1548164 103.3982816  90.5972436  48.8632162
 102.5720928  90.9020426  50.0946341  96.8315759  88.1132826  48.0001350
  95.9619068  88.4066392  47.7283939  97.0675239  88.6973271  48.7208614
 104.9574576  92.2964600  46.5510937 105.4328698  92.4892246  45.7429788
 104.0340141  92.3523785  46.3054320  91.8458083  93.4588767  36.1342015
  91.6004124  92.5551097  36.3322225  92.0153997  93.4605917  35.1921493
  99.5354792  84.3312443  45.5166771 100.0536736  85.0673470  45.1913259
  99.1809925  84.6376436  46.3513530  91.1153730  89.1917124  33.6328176
  90.4222975  89.2661479  32.9768212  90.8705482  88.4277468  34.1549693
  99.7867387  80.7512726  41.0367667 100.0669140  80.0835915  41.6628094
 100.5717993  80.9441821  40.5242331 103.6576245  89.1730360  44.7839242
 104.6093668  89.2728457  44.8051466 103.4879695  88.3808628  45.2937327
 101.6790624  86.2585943  44.9698643 101.0840556  86.5390956  44.2745132
 101.3940321  86.7479844  45.7415384 106.1364323  92.3936479  43.8981542
 106.1040643  91.4552480  44.0841226 106.7464946  92.4720516  43.1647367
  97.9747654  91.2632532  29.9408746  98.9206758  91.1338740  30.0097164
  97.5961899  90.5247194  30.4178174 106.2858811  89.1847523  43.9439825
 105.7697860  88.4005979  43.7569754 107.1698760  88.8566239  44.1086345
 103.9469538  82.9288538  39.9035638 103.7494359  82.6203627  40.7878970
 104.5569244  83.6550177  40.0333568  97.8586346  95.3150278  51.4009403
  98.7789356  95.4928877  51.5949450  97.8235929  94.3706324  51.2489102
  96.1590571  89.1882509  29.8763631  95.2522026  88.8915621  29.9526345
  96.4366552  88.8912327  29.0097917  87.0768511  90.5088872  40.3262678
  86.7571295  89.6554180  40.0337052  86.5301939  90.7237450  41.0820645
  90.8548419  93.2251313  44.0432184  91.0734428  94.1568421  44.0620218
  91.2674192  92.8659288  44.8286988  97.7752636  83.7319398  36.0307873
  96.9653365  83.3866483  36.4063119  98.4637053  83.4226942  36.6195484
  99.7043185  82.8097445  37.6532169 100.2574223  83.2292899  38.3122192
  99.9413271  81.8833193  37.6955125  95.7276284  88.7984519  53.4334933
  95.6273011  89.7478876  53.3647024  95.5097826  88.4702758  52.5611003
  94.9289355  86.0469444  30.0175610  95.7908519  86.3724342  30.2771428
  95.1139699  85.2600940  29.5048676  86.9456771  94.1291784  42.2955799
  86.2520243  93.7145736  41.7825754  87.6929762  94.1712320  41.6989218
 103.0821992  84.9197970  37.1610833 102.5020661  85.5782774  36.7788886
 102.8157925  84.0975315  36.7498251 101.5325558  84.3203028  39.3632154
 102.0325337  84.4319563  38.5546473 102.1761166  84.0164081  40.0032962
  95.5907554  92.2281658  52.2499995  95.1074636  93.0282018  52.4563884
  95.6768493  92.2389603  51.2967439  88.8593514  94.0610037  40.1721814
  88.8364202  94.1597725  39.2203697  89.1694150  94.9075188  40.4938980
  91.5180892  96.1186192  44.2868429  92.4724145  96.0870135  44.2198360
  91.3193415  95.6576816  45.1018654  92.1080274  94.6887308  46.8539226
  92.9273163  95.1831387  46.8774063  92.3817081  93.7719277  46.8256794
 101.8646870  87.0798061  36.2167182 100.9772725  87.3647711  35.9987376
 102.2800859  86.9191824  35.3694459 105.2161406  87.1044582  39.9321521
 105.9921796  87.5941034  40.2046138 104.4909540  87.5302636  40.3893390
 107.6533965  87.8172201  40.9895462 108.2478455  87.5767937  40.2788770
 107.7260548  87.0979332  41.6168998  89.8731120 101.6605812  41.3038626
  89.7385588 100.9006213  40.7376624  89.4563183 102.3846712  40.8367415
 101.8387894  92.5952597  36.4317472 101.7823095  93.0521148  35.5925104
 102.3916236  91.8343281  36.2540315 105.6492699  88.3842329  37.2567591
 105.3929634  87.9838964  38.0875799 105.0245568  89.0986123  37.1317731
 102.5722673  93.7857378  33.7270001 102.5171477  93.6201649  32.7858445
 101.9468728  94.4933411  33.8832191  87.3615188  89.0225442  47.5531423
  88.0074051  88.5124396  48.0418648  87.1532339  89.7594124  48.1274849
  99.8868580  96.0906290  53.0523564 100.7559740  96.2646942  52.6910199
  99.4075332  96.9100707  52.9299293  95.8818798  83.2865487  33.3055319
  95.8697468  84.2307327  33.4623590  96.7742220  83.1035632  33.0114781
  99.6970918  79.8808264  37.5601256  98.9303314  79.3266750  37.7057939
 100.1081623  79.9530132  38.4215408  91.7012679  86.1693059  51.6506437
  92.5644140  85.8129864  51.8609762  91.1278090  85.8306954  52.3381842
  40.5215281  -3.2795076  34.0241059  40.2305147  -2.3749445  33.9087726
  41.1572265  -3.2378548  34.7385129  41.4471487  -5.9018228  30.6142419
  42.0435060  -6.1262205  29.8999382  41.5046459  -6.6433482  31.2167867
  45.4805166  -3.5933661  31.0190853  45.1805889  -2.6908622  30.9106660
  45.1356225  -3.8601477  31.8712006  40.4625945   3.1710660  23.9861821
  40.3849975   4.1218485  24.0650301  39.8587589   2.8256532  24.6436747
  41.2089547  -6.8476021  36.2041155  41.9504232  -6.3090977  35.9275978
  40.5026533  -6.2209733  36.3612706  46.6844887  -4.7046881  34.8013316
  47.0928243  -5.1464470  34.0567948  45.9622149  -5.2794253  35.0547509
  47.0073702  -4.1445690  28.5565605  46.3782564  -3.9799976  27.8541673
  46.6199364  -3.7304081  29.3276569  50.8862934  -3.2091252  25.9109969
  50.2013972  -2.8292351  25.3607002  50.9706783  -2.5995926  26.6441917
  39.4525745  -4.8599801  28.7595453  40.0227102  -4.4312532  28.1212938
  40.0433857  -5.1417216  29.4579639  49.2559693  -2.6859338  30.6827670
  50.0777137  -3.0879151  30.4010351  49.2522096  -2.7891104  31.6343785
  43.0216297  -3.1375295  32.8388380  43.0860729  -2.6754887  33.6746552
  42.3127221  -3.7677930  32.9670690  44.3632791  -0.8483621  36.8367703
  43.9196645  -1.6347242  36.5188607  45.0250004  -0.6604470  36.1711593
  39.1219912   0.6812181  31.3628381  39.6727337   0.5529244  30.5905375
  38.2831388   0.9807070  31.0123274  46.4614029  -0.5680821  34.8649104
  46.4432504   0.2528060  34.3729373  47.3833949  -0.6926746  35.0899245
  42.9187083  -3.0536691  35.7072612  43.4515420  -3.8148403  35.4771920
  42.3901164  -3.3463039  36.4496767  48.8399897  -2.3951304  24.5141555
  48.3862224  -3.2360394  24.5706745  48.2093863  -1.7589906  24.8516335
  47.2832836  -0.5574807  25.4491373  47.5755810   0.0030250  24.7303739
  47.7931456  -0.2646246  26.2044532  42.2466461   0.2205544  26.5384826
  42.2042640   0.4466390  25.6093358  43.1629160  -0.0131082  26.6870627
  45.1827106  -0.5213332  30.6859157  45.2364129   0.0477604  31.4536872
  44.3141888  -0.3511447  30.3213194  47.3729870  -3.9284983  37.2599822
  47.2215376  -4.1574431  36.3429906  47.3634549  -2.9714381  37.2731167
  44.1415206  -6.3553070  32.2446088  45.0707266  -6.2041910  32.0715056
  43.7206236  -6.2669049  31.3894735  42.9403538  -2.3302405  30.0144626
  42.8014624  -2.6983621  30.8870564  42.1518134  -1.8154766  29.8428584
  44.4908753  -2.9520803  27.4033464  44.1558586  -2.9920033  28.2991114
  43.9912699  -3.6176087  26.9303874  38.4652997  -7.5453173  32.9286045
  38.3272795  -8.2772934  33.5297584  39.3757920  -7.6344273  32.6470233
  49.0822076  -0.8965860  35.3376304  49.0234622  -1.5806640  34.6706887
  49.4841595  -0.1546870  34.8856930  38.1012775   5.9196054  28.1310023
  38.3409373   6.5514578  28.8089041  37.2581972   5.5684094  28.4175382
  49.0839484  -2.9326276  33.5690284  48.1966262  -3.2700354  33.6916682
  49.6538035  -3.6643245  33.8059049  42.6140637   1.7275176  30.5351527
  42.5410808   2.5330148  31.0470831  42.1718030   1.9267142  29.7099548
  42.4030417   0.9646946  24.0454348  41.6197939   1.5068626  24.1392573
  43.1023162   1.4820926  24.4448589  45.0739321   1.6262010  32.6909685
  45.7867293   2.2609475  32.6185587  44.5829349   1.7225876  31.8749687
  40.1251234  -0.6243546  33.5115256  40.8260694   0.0092937  33.6644650
  39.6546349  -0.2828815  32.7510895  44.8859694   1.9660754  25.4395977
  45.0682088   1.1482410  25.9023729  45.7092680   2.1828447  25.0020867
  35.7218952  -1.0907191  30.4446359  36.3072389  -1.8363503  30.5774263
  35.5243791  -0.7803234  31.3283023  38.5757607   1.9444056  25.4608801
  37.9067983   2.4290184  24.9772841  38.4370477   2.1913277  26.3752180
  42.7162876   3.9787800  32.0591460  43.2681184   4.1419421  32.8240545
  43.0569069   4.5692238  31.3871484  47.5673750  -1.1950943  37.9140114
  48.1113654  -0.5820984  37.4195069  46.9860595  -0.6371364  38.4307127
  45.8531263   1.9269775  29.0455142  45.7282403   1.1259515  28.5366087
  46.5110354   2.4215969  28.5569112  47.9166172  -0.2721205  30.6734692
  46.9696507  -0.3915853  30.6013019  48.2648945  -1.1598707  30.7560953
  44.9212605  -0.4768488  26.8739044  44.7737567  -1.4051781  27.0546614
  45.7466098  -0.4548398  26.3896119  48.5246727   0.3460070  27.9603917
  49.4493274   0.1402932  27.8228368  48.3562030   0.0976471  28.8693258
  48.3142043   0.8645738  23.3166008  48.4878920   0.2992160  22.5639861
  48.8070934   1.6646633  23.1345498  42.8628687   1.5446281  34.0740114
  43.1715814   1.2995428  34.9462814  43.6604169   1.7492920  33.5858984
  42.8849299   3.6984191  26.3045491  42.4454290   3.2060570  26.9978347
  43.6357416   3.1557159  26.0637566  40.3323171  -0.7577800  28.3767792
  39.7103181  -1.4207095  28.0770020  41.0028038  -0.7316668  27.6941440
  50.8902545  -1.7354889  37.2501435  50.0998088  -1.7530750  36.7105935
  50.6535899  -1.1966595  38.0050472  52.5118616  -2.4665481  34.8076185
  52.2203425  -2.1035500  35.6439646  51.8990748  -3.1798473  34.6289517
  43.6617575  -4.3247187  38.1254710  44.5820584  -4.1468588  38.3194756
  43.6267158  -5.2691142  37.9734409  36.6579647  -6.4146153  30.7677491
  36.8765657  -5.4829045  30.7865525  37.0705421  -6.7738178  31.5532295
  41.3938783  -7.4115808  38.9745301  40.9105865  -6.6115448  39.1809190
  41.4799722  -7.4007863  38.0212745  37.3212120  -3.5211273  31.0113735
  38.2755374  -3.5527331  30.9443667  37.1224644  -3.9820650  31.8263961
  37.9111502  -4.9510157  33.5784533  38.7304391  -4.4566079  33.6019370
  38.1848310  -5.8678189  33.5502100  35.6762349   2.0208346  28.0283933
  35.5416817   1.2608747  27.4621931  35.2594411   2.7449246  27.5612722
  38.8331475   2.9177663  28.2402376  38.7163859   3.8623096  28.1381066
  38.0123921   2.6151225  28.6288175  45.6899809  -3.5491176  39.7768870
  46.5590969  -3.3750524  39.4155505  45.2106560  -2.7296759  39.6544600
  39.8585989   3.5705925  31.4558304  40.7613236   3.6029535  31.7724799
  39.6323359   2.6406376  31.4704640  41.6139591   2.3236912  28.1168383
  40.6635222   2.3238773  28.0032755  41.9172077   1.5769646  27.6004417
  57.3492285   8.1597450  29.1814145  57.9870695   8.0404197  28.4777485
  57.2313128   9.1078294  29.2402097  54.1581991   8.1124878  29.1175670
  53.8200502   7.9965943  28.2296205  55.0271759   7.7116043  29.0976676
  50.0168807   9.9660355  25.1072561  49.4533672   9.8750291  24.3388849
  49.9021202   9.1460259  25.5875053  54.6401774   9.2659730  35.0761875
  54.6290415   8.8712528  34.2042379  54.8022413   8.5325802  35.6695647
  47.5633239  11.4611546  27.9456781  48.3554530  11.1202371  27.5303081
  47.8029889  11.5706521  28.8658935  55.5968365  13.6331322  20.4187026
  54.9456345  14.2185403  20.0321039  56.3912728  14.1637517  20.4782063
  49.5223992  10.7220459  20.8174160  50.2954868  10.1749446  20.6787036
  49.8749391  11.5864709  21.0288621  51.3609035  12.0496842  34.0241059
  51.0698901  12.9542472  33.9087726  51.9966019  12.0913369  34.7385129
  52.2865242   9.4273690  30.6142419  52.8828814   9.2029713  29.8999382
  52.3440213   8.6858436  31.2167867  51.8590270   6.8813125  18.4492610
  52.1115791   6.3594647  17.6876073  50.9214829   6.7179271  18.5519294
  56.9033553   5.8848904  26.2567353  57.6896642   5.4668327  25.9057770
  57.1672257   6.7894996  26.4249002  57.0743630  11.3221754  20.9556010
  56.4389463  11.3956381  21.6676915  56.7441037  11.9115353  20.2775089
  62.3041980   5.8224137  27.1600332  63.0367152   5.2523354  27.3938161
  61.5481336   5.4345738  27.6006837  51.5786559   8.7841231  20.6516985
  51.4622817   8.1086135  21.3198069  51.6888819   8.2973605  19.8349138
  53.9218100   8.2451379  24.3563674  53.5576307   7.7182000  25.0676596
  54.7785216   7.8549848  24.1830160  59.8267401  -0.4654289  31.6194940
  59.4950725   0.4041122  31.3956155  59.2313014  -0.7818005  32.2988971
  53.5623587   3.2741278  19.3525023  53.7297989   4.1421515  19.7195494
  53.3720756   3.4368560  18.4286312  56.3198920  11.7358257  31.0190853
  56.0199643  12.6383296  30.9106660  55.9749980  11.4690440  31.8712006
  49.7711402   8.1872054  27.0527557  48.8461898   8.0548268  27.2605249
  50.0195815   8.9666273  27.5497500  59.7196064   4.2540797  28.6988290
  58.8112941   4.1856206  28.4047051  59.6683660   4.7312742  29.5270116
  53.5412808   5.7298936  20.3371689  53.4212433   6.1755987  21.1757170
  52.8465396   6.0784253  19.7785228  47.1320213   7.8305328  27.8871347
  47.2612594   8.0839806  28.8010758  46.4517664   8.4233036  27.5676002
  51.3019700  18.5002578  23.9861821  51.2243730  19.4510403  24.0650301
  50.6981343  18.1548450  24.6436747  53.7936930   5.6730443  36.6423188
  53.0170264   6.2324363  36.6326052  54.4327493   6.1587226  37.1638058
  61.5857710   2.4557236  30.4766164  60.9432091   2.7489769  29.8305959
  61.0812639   2.3410156  31.2819361  59.2397874   6.2020409  21.1652024
  60.1515730   6.4347796  20.9899721  58.7307521   6.7857453  20.6027102
  52.0483302   8.4815896  36.2041155  52.7897986   9.0200940  35.9275978
  51.3420287   9.1082185  36.3612706  57.5238642  10.6245037  34.8013316
  57.9321998  10.1827447  34.0567948  56.8015903  10.0497664  35.0547509
  53.8769712   5.5617644  32.1746873  54.7230907   5.9857057  32.3181522
  53.8168349   4.9051268  32.8685436  57.8467456  11.1846227  28.5565605
  57.2176319  11.3491942  27.8541673  57.4593118  11.5987837  29.3276569
  61.7256688  12.1200665  25.9109969  61.0407726  12.4999567  25.3607002
  61.8100537  12.7295992  26.6441917  57.0269157   3.2222012  33.8328047
  56.7830089   3.9764072  33.2962322  57.3029088   3.6007359  34.6675294
  58.9807620   9.7660624  32.5105312  59.1924515  10.4092384  31.8339693
  58.9337368   8.9322941  32.0427242  56.5833849   2.3778445  29.4141884
  55.7218328   2.6759698  29.7058622  56.6096283   2.5948844  28.4822917
  53.3995418  10.9220635  25.8215690  53.8633764  11.2008338  25.0320313
  53.1352216  10.0204080  25.6388781  50.2919499  10.4692117  28.7595453
  50.8620856  10.8979385  28.1212938  50.8827611  10.1874702  29.4579639
  52.3364304   7.0443788  22.6305255  53.0388348   7.4964832  23.0979182
  52.0044933   6.4027607  23.2585148  50.7844666   5.6355544  37.0056465
  50.1543326   6.3171825  37.2391861  50.6780754   5.5238626  36.0609603
  46.0789638   5.3027340  27.9322389  45.2888692   5.5584869  27.4562499
  46.5700886   6.1175678  28.0374429  60.0953448  12.6432580  30.6827670
  60.9170891  12.2412767  30.4010351  60.0915851  12.5400814  31.6343785
  48.0304384   5.6671920  24.8905865  47.2335547   5.7790614  25.4089361
  47.8029976   6.0058572  24.0246756  53.8610051  12.1916623  32.8388380
  53.9254484  12.6537030  33.6746552  53.1520975  11.5613988  32.9670690
  44.3627341   5.5557831  30.3637380  44.6135380   6.4404841  30.6294956
  44.8986890   5.3762432  29.5912471  68.1859441   8.9871328  27.0312641
  67.4323149   8.4178726  26.8756646  68.3206982   8.9533993  27.9783276
  53.5758069  13.8584730  22.7067360  53.4403744  14.7036266  23.1352208
  54.1167881  14.0604008  21.9433294  50.0625408  -0.0623690  39.3681716
  49.6692354  -0.6157491  40.0429360  50.8791549   0.2486889  39.7588233
  47.0287466  11.3760168  23.2795286  47.5411987  12.1703419  23.4300850
  47.6810179  10.6786459  23.2128887  48.8382351  14.4925925  25.3618039
  49.0148979  15.4143889  25.1739023  49.6339184  14.1784344  25.7912418
  52.9793369   1.3534189  36.9601972  53.7203083   1.9541343  36.8806435
  53.2111292   0.6111827  36.4020015  48.1234707   6.5390557  35.2380202
  48.0088223   5.6375814  35.5387301  47.2679225   6.7854253  34.8865018
  55.2026545  14.4808297  36.8367703  54.7590399  13.6944676  36.5188607
  55.8643759  14.6687447  36.1711593  49.9613666  16.0104099  31.3628381
  50.5121091  15.8821162  30.5905375  49.1225142  16.3098988  31.0123274
  57.3007783  14.7611097  34.8649104  57.2826259  15.5819978  34.3729373
  58.2227703  14.6365172  35.0899245  53.7580837  12.2755226  35.7072612
  54.2909174  11.5143515  35.4771920  53.2294919  11.9828878  36.4496767
  44.9936383   9.7048823  24.0554856  45.8311605  10.1145831  23.8388564
  45.1714651   8.7648265  24.0255050  56.8900815   7.3723903  19.7438689
  56.3747439   8.1428508  19.9827076  56.6178124   6.6989040  20.3671750
  54.4747926   2.2173604  24.8023927  53.6189522   1.8280455  24.6229566
  54.8874878   2.2965565  23.9423713  56.0047073  -0.2480052  29.2015487
  55.5011868  -0.2849917  28.3883292  56.2977680   0.6612690  29.2612144
  52.2489959  -0.1641323  28.2081669  53.1142955  -0.3598514  27.8487558
  52.3167468  -0.3930971  29.1351026  61.8635089  10.1256258  21.6791863
  61.0864532   9.7867418  21.2347025  62.5426570  10.1308881  21.0046828
  56.6787118   5.2450996  21.5698470  56.3737254   5.5597145  22.4208613
  57.6317560   5.3232415  21.6125803  55.1233550  11.4041219  23.2191424
  54.5954912  10.6693978  22.9064662  54.6221053  12.1815895  22.9731393
  60.1026396   9.5990239  28.3358470  59.4450071  10.2889501  28.4238599
  60.9066795   9.9886671  28.6792457  49.8552278   2.0660885  25.5798036
  50.4296030   1.8436067  24.8471229  50.4423260   2.1349580  26.3326637
  58.9131855   7.9534612  26.3862412  59.4263737   8.5864604  26.8884122
  59.5633079   7.3535808  26.0205772  52.1574945  -1.0597866  24.3073105
  51.5039358  -1.3748849  23.6829720  52.1155420  -1.6822125  25.0332928
  53.2686150   9.2221429  16.2226397  52.3613212   8.9910683  16.4217546
  53.7657182   8.4259048  16.4100379  56.1754229  17.9318936  19.1423083
  55.5015928  18.2350633  19.7508041  56.5620051  18.7348017  18.7928540
  55.3912686   5.4284068  28.6320753  54.4735247   5.6499015  28.4742441
  55.8072829   5.5030378  27.7732460  56.1747734   6.8275483  23.7623433
  56.9219553   7.3396880  23.4530555  56.4439323   6.5059536  24.6227827
  54.4474384   9.3234024  20.7450387  53.5385603   9.0393057  20.8422857
  54.4769468   9.7433103  19.8853694  59.6793651  12.9340613  24.5141555
  59.2255978  12.0931523  24.5706745  59.0487618  13.5702012  24.8516335
  58.6226571   3.8632600  25.7442222  57.8849328   3.3509986  26.0752465
  58.8753344   3.4232981  24.9325499  58.1226590  14.7717110  25.4491373
  58.4149565  15.3322167  24.7303739  58.6325211  15.0645671  26.2044532
  45.0162554   7.0439538  24.7265590  44.8186954   6.4508899  24.0016656
  44.4609218   6.7391748  25.4441528  52.9959278   6.9362645  26.8460183
  53.0507888   5.9836481  26.7702659  52.1850480   7.0922084  27.3301481
  54.1450472  10.8642768  18.0838466  53.7069901  10.1478627  17.6244103
  54.8860912  11.0918882  17.5223557  50.9351638   5.5539704  24.6050562
  50.1219503   5.8533875  25.0115754  51.4310632   5.1595393  25.3225044
  53.0860216  15.5497461  26.5384826  53.0436394  15.7758308  25.6093358
  54.0022914  15.3160836  26.6870627  56.5325849   6.0181529  33.4365455
  56.8875237   6.2453002  34.2959921  57.1797981   6.3499906  32.8142711
  62.2623586   9.1399965  24.1414784  62.1241485   9.3301561  23.2135974
  61.9059805   9.9019348  24.5982836  50.4265712   3.1258060  30.2211796
  51.0665092   2.9846819  29.5234760  49.5943243   2.8392573  29.8450398
  62.2892966  11.2076492  29.1526056  62.7229473  11.1151781  30.0009110
  63.0024547  11.1833992  28.5146072  51.2026016  12.4260490  26.3346789
  51.9966615  11.9310810  26.1329364  50.4917709  11.8978353  25.9714495
  56.0220861  14.8078586  30.6859157  56.0757883  15.3769522  31.4536872
  55.1535642  14.9780471  30.3213194  47.5108780   6.5703572  22.4106542
  46.5806368   6.5088028  22.6276504  47.6066252   6.0479525  21.6143183
  47.4294329   3.0958385  24.9984783  47.6901146   4.0103718  24.8893944
  48.2511501   2.6282827  25.1481396  48.9019254   4.5096142  32.1683608
  49.5742308   4.3013504  31.5196257  48.0749041   4.3118228  31.7288840
  63.1508516  11.2500192  31.6858941  63.3444406  12.1546003  31.9318216
  63.0509134  10.7907611  32.5197526  54.8044826   1.1358083  34.1849269
  54.1572741   1.8348033  34.0913745  55.5745842   1.5694227  34.5525517
  58.2123624  11.4006935  37.2599822  58.0609131  11.1717487  36.3429906
  58.2028304  12.3577537  37.2731167  54.9808961   8.9738848  32.2446088
  55.9101021   9.1250007  32.0715056  54.5599991   9.0622869  31.3894735
  53.7797292  12.9989512  30.0144626  53.6408378  12.6308297  30.8870564
  52.9911889  13.5137152  29.8428584  54.3745444  18.0998609  21.3570163
  54.5497200  17.6286652  22.1715785  53.6878232  18.7264375  21.5851423
  55.3302508  12.3771115  27.4033464  54.9952340  12.3371885  28.2991114
  54.8306453  11.7115831  26.9303874  49.3046751   7.7838745  32.9286045
  49.1666549   7.0518984  33.5297584  50.2151675   7.6947645  32.6470233
  58.2661699   9.7227149  17.6770523  57.6490870   8.9973977  17.5803576
  57.7978188  10.4836510  17.3337598  51.9329052   7.4958704  32.4169725
  52.6428671   6.8551897  32.3756343  51.8898360   7.7471599  33.3395905
  59.9215831  14.4326058  35.3376304  59.8628377  13.7485278  34.6706887
  60.3235349  15.1745048  34.8856930  50.6457986   4.4823922  34.2365364
  50.1095343   4.0314661  34.8886960  50.0574695   4.6169831  33.4935828
  48.9406530  21.2487972  28.1310023  49.1803128  21.8806496  28.8089041
  48.0975726  20.8976012  28.4175382  59.9233238  12.3965642  33.5690284
  59.0360017  12.0591563  33.6916682  60.4931789  11.6648673  33.8059049
  41.5762385   8.7289733  26.8933335  42.2633425   8.4151463  26.3054350
  41.4210514   9.6331098  26.6200586  46.3797107   3.6179930  31.3218359
  46.2955296   3.0105599  30.5868769  45.5579814   4.1088948  31.3227855
  53.4534391  17.0567094  30.5351527  53.3804563  17.8622065  31.0470831
  53.0111785  17.2559060  29.7099548  53.2424171  16.2938864  24.0454348
  52.4591693  16.8360544  24.1392573  53.9416916  16.8112844  24.4448589
  56.5520821   2.1033493  26.6888554  57.0489521   1.3503456  26.3689624
  55.7807803   2.1397810  26.1231763  64.4050579   7.8073859  28.3306845
  64.3940455   8.6898574  27.9600778  63.5367958   7.4545410  28.1361382
  55.9133075  16.9553928  32.6909685  56.6261047  17.5901393  32.6185587
  55.4223104  17.0517794  31.8749687  57.6350602  10.8605181  24.2626977
  56.7006881  10.9806643  24.0931681  57.8127270   9.9577647  23.9986987
  53.1355790   4.2450876  26.4160238  52.7653577   3.6921917  27.1041144
  53.6314882   3.6409010  25.8635238  61.0223153   6.7022500  24.7977011
  61.4883605   7.5350492  24.7237314  61.4730654   6.2367482  25.5022270
  50.9644989  14.7048371  33.5115256  51.6654448  15.3384854  33.6644650
  50.4940104  15.0463103  32.7510895  59.0899384  13.0466321  21.7963163
  59.3659228  12.9322916  22.7057037  58.2203883  12.6483806  21.7575336
  58.9939816  -0.9296913  28.8367913  58.0802896  -0.6992686  29.0050119
  59.4232917  -0.8458469  29.6881945  58.7646275   7.2592979  31.3367807
  58.1117725   7.5068886  30.6820259  59.1426654   6.4457117  31.0030284
  55.7253448  17.2952672  25.4395977  55.9075843  16.4774328  25.9023729
  56.5486434  17.5120364  25.0020867  56.0595614  16.2220857  22.7011025
  56.5883380  15.7113312  22.0881187  56.3223833  15.9063387  23.5656558
  54.8133848   8.0012790  37.8233844  54.1374485   7.9006919  38.4936219
  55.6361481   7.8452004  38.2869841  46.5612707  14.2384726  30.4446359
  47.1466143  13.4928414  30.5774263  46.3637545  14.5488683  31.3283023
  49.4151362  17.2735974  25.4608801  48.7461737  17.7582102  24.9772841
  49.2764232  17.5205194  26.3752180  41.1530361   6.8090327  29.1650802
  41.1914461   6.2753917  29.9587920  40.6470654   6.2825532  28.5461779
  53.5556630  19.3079717  32.0591460  54.1074938  19.4711339  32.8240545
  53.8962824  19.8984155  31.3871484  48.5321124   1.6554867  32.6613344
  48.5962450   2.5169698  32.2490742  48.4688244   1.0428869  31.9285703
  48.0073396   3.7278000  36.3086379  48.6345435   3.3455077  36.9223903
  47.1501315   3.5092202  36.6742071  58.4067505  14.1340975  37.9140114
  58.9507409  14.7470933  37.4195069  57.8254350  14.6920553  38.4307127
  44.7838939   5.5354429  22.2404733  45.0792380   4.6265107  22.1871787
  43.8826975   5.5142168  21.9185736  56.6925018  17.2561693  29.0455142
  56.5676157  16.4551433  28.5366087  57.3504109  17.7507886  28.5569112
  48.3133186   3.6110425  28.2232282  47.5919772   4.2246393  28.0839755
  49.1026442   4.1468190  28.1448928  58.7559926  15.0570713  30.6734692
  57.8090262  14.9376064  30.6013019  59.1042699  14.1693211  30.7560953
  51.1159499   0.9464852  34.4972934  51.6393901   1.1927148  35.2599243
  50.8971833   1.7784887  34.0776071  46.5126781   3.2168527  22.3644059
  46.1839487   2.3365905  22.1819164  46.8666151   3.1616195  23.2520448
  55.7606359  14.8523429  26.8739044  55.6131322  13.9240137  27.0546614
  56.5859853  14.8743520  26.3896119  49.6268604   3.5041496  22.7319536
  49.9664676   4.0327418  22.0098145  50.0740724   3.8421902  23.5078103
  59.3640481  15.6751988  27.9603917  60.2887029  15.4694849  27.8228368
  59.1955785  15.4268389  28.8693258  52.3212044   1.8878547  32.1822604
  51.9808865   1.0886360  32.5843284  51.6151051   2.1880258  31.6099437
  52.9728516  -1.0272141  30.6349927  53.7954586  -1.5011662  30.5128818
  53.2166580  -0.2481657  31.1348614  51.6136751   2.0016118  20.9312829
  52.3345113   2.3797371  20.4276546  50.9902055   2.7204995  21.0347807
  55.7567874   2.7061267  21.8671161  55.9731488   3.5885905  21.5659989
  55.2761941   2.3147480  21.1376803  50.4967095   5.6646980  28.4441906
  50.3511676   5.9787283  29.3366187  50.0192299   6.2831880  27.8912805
  52.3563478   2.6549528  28.4922795  52.3425047   1.7590621  28.1555093
  53.0735906   2.6620192  29.1261082  54.2089609   3.0886868  30.5375923
  53.9507386   4.0103939  30.5360253  53.6774649   2.6917303  31.2276387
  59.1535797  16.1937655  23.3166008  59.3272675  15.6284078  22.5639861
  59.6464689  16.9938550  23.1345498  44.9712757   8.2052324  31.3829567
  44.4266225   8.9812132  31.5149841  45.8492107   8.5523129  31.2248689
  51.7600374   1.5363908  23.7610366  51.8816285   0.6080555  23.9601253
  51.4702416   1.5502594  22.8488681  54.6291564  -0.7781181  26.8977085
  54.6513261  -0.7141848  25.9429065  55.0459623  -1.6176673  27.0917592
  65.0075189   8.9574078  24.9356308  65.4506335   8.2081404  24.5375431
  64.1301699   8.9484215  24.5530040  60.1410970  15.5104420  20.4162907
  60.8361875  16.1311112  20.6350221  60.4834120  14.6599771  20.6915284
  45.7578779   7.3322221  34.2759724  45.0160515   7.4804856  34.8624354
  45.4371523   7.5930486  33.4126473  62.0402393  12.9604125  21.9450237
  62.5653717  13.2991398  21.2199557  61.9524746  12.0251141  21.7613372
  53.7022442  16.8738199  34.0740114  54.0109568  16.6287346  34.9462814
  54.4997924  17.0784837  33.5858984  53.7243054  19.0276109  26.3045491
  53.2848044  18.5352487  26.9978347  54.4751171  18.4849076  26.0637566
  46.2035393  15.2187649  26.3070119  47.0293413  14.9191421  25.9268762
  45.8529445  14.4495272  26.7559907  51.1716926  14.5714118  28.3767792
  50.5496935  13.9084823  28.0770020  51.8421793  14.5975250  27.6941440
  44.4043998  13.1373976  27.2659052  43.5675906  12.7096150  27.0843053
  44.3767643  13.3306419  28.2029843  51.2441453   3.0495906  37.9700298
  51.2929609   3.9258029  37.5878068  51.7863968   2.5073299  37.3971941
  61.7296299  13.5937029  37.2501435  60.9391843  13.5761168  36.7105935
  61.4929654  14.1325323  38.0050472  61.8494174  10.4429495  34.5634164
  61.8992179  10.2779503  35.5049687  61.7408097   9.5756754  34.1732045
  50.7330433  13.1218041  21.8526253  50.8818553  13.8053505  21.1992925
  51.5396876  13.1023131  22.3675708  59.1397937   6.4260423  35.8793471
  60.0407799   6.2866888  35.5877468  59.2145911   6.5914878  36.8191648
  53.4740742   3.8027278  34.7246657  52.6044051   4.0960844  34.4529245
  53.7100222   4.3867723  35.4453921  63.3512371  12.8626437  34.8076185
  63.0597179  13.2256417  35.6439646  62.7384502  12.1493445  34.6289517
  64.5508053  10.4279317  27.3278756  65.3854945  10.8669121  27.4916316
  64.6867182   9.9517970  26.5087001  61.5999559   7.9859051  33.2756243
  62.0753681   8.1786698  32.4675095  60.6765125   8.0418237  33.0299627
  48.4883066   9.1483219  22.8587322  48.2429108   8.2445549  23.0567532
  48.6578980   9.1500369  21.9166800  56.1779776   0.0206895  32.2412077
  56.6961720   0.7567922  31.9158566  55.8234908   0.3270888  33.0758836
  54.2325838  15.6166171  19.3238000  53.6599805  16.2356359  18.8708472
  54.8058632  16.1665533  19.8577922  60.3001228   4.8624812  31.5084549
  61.2518651   4.9622909  31.5296773  60.1304679   4.0703080  32.0182633
  58.3215608   1.9480395  31.6943950  57.7265540   2.2285408  30.9990439
  58.0365304   2.4374296  32.4660691  57.4523098  15.9003322  20.4546582
  58.3853771  15.8348883  20.6579458  57.3646311  16.7359588  19.9961115
  60.0811115  15.2169192  17.4150530  60.0024746  14.8829056  18.3086288
  60.9020782  15.7090960  17.4142002  62.7789306   8.0830931  30.6226849
  62.7465626   7.1446932  30.8086532  63.3889930   8.1614968  29.8892674
  54.6172637   6.9526984  16.6654053  55.5631742   6.8233192  16.7342471
  54.2386882   6.2141646  17.1423481  62.9283794   4.8741975  30.6685132
  62.4122843   4.0900431  30.4815061  63.8123743   4.5460691  30.8331651
  68.5965856   9.1446938  29.7632885  69.3269244   8.8832226  30.3240589
  67.9872801   8.4075660  29.8034953  66.6781153   7.2854801  30.3607337
  65.9514317   7.1510766  29.7523828  66.2628440   7.5931629  31.1664055
  54.5011329  11.0044730  38.1254710  55.4214339  11.1823329  38.3194756
  54.4660912  10.0600776  37.9734409  43.7193494   6.1983324  27.0507984
  43.3996279   5.3448632  26.7582358  43.1726923   6.4131902  27.8065952
  47.4973402   8.9145765  30.7677491  47.7159412   9.8462873  30.7865525
  47.9099176   8.5553739  31.5532295  54.4177620  -0.5786150  22.7553179
  53.6078348  -0.9239065  23.1308425  55.1062037  -0.8878606  23.3440791
  52.3701267   4.4878971  40.1580240  52.2697994   5.4373328  40.0892331
  52.1522809   4.1597210  39.2856310  43.5881754   9.8186236  29.0201106
  42.8945226   9.4040188  28.5071060  44.3354745   9.8606772  28.4234525
  59.7246975   0.6092422  23.8856140  59.1445644   1.2677226  23.5034192
  59.4582908  -0.2130233  23.4743558  58.1750541   0.0097480  26.0877460
  58.6750320   0.1214015  25.2791779  58.8186149  -0.2941467  26.7278269
  52.2332537   7.9176110  38.9745301  51.7499619   8.7176470  39.1809190
  52.3193476   7.9284055  38.0212745  45.5018497   9.7504489  26.8967121
  45.4789185   9.8492177  25.9449004  45.8119133  10.5969640  27.2184287
  48.1605875  11.8080644  31.0113735  49.1149128  11.7764587  30.9443667
  47.9618398  11.3471268  31.8263961  48.7505257  10.3781760  33.5784533
  49.5698146  10.8725839  33.6019370  49.0242065   9.4613729  33.5502100
  58.5071853   2.7692513  22.9412488  57.6197708   3.0542163  22.7232683
  58.9225842   2.6086276  22.0939765  61.8586389   2.7939034  26.6566828
  62.6346779   3.2835486  26.9291444  61.1334523   3.2197088  27.1138697
  64.2958948   3.5066653  27.7140768  64.8903439   3.2662389  27.0034076
  64.3685532   2.7873783  28.3414305  46.5156104  17.3500264  28.0283933
  46.3810572  16.5900665  27.4621931  46.0988166  18.0741164  27.5612722
  57.6515067  12.5337187  17.0360508  58.3550917  12.7387190  17.6518164
  56.9277715  13.1013949  17.3009592  58.4812877   8.2847049  23.1562778
  58.4248078   8.7415600  22.3170411  59.0341219   7.5237733  22.9785621
  62.2917683   4.0736780  23.9812898  62.0354617   3.6733416  24.8121106
  61.6670551   4.7880574  23.8563037  66.6030021   6.8132854  26.4884189
  66.0429579   6.8826043  27.2615751  65.9973524   6.6373838  25.7683686
  49.6725229  18.2469581  28.2402376  49.5557614  19.1915013  28.1381066
  48.8517676  17.9443142  28.6288175  59.5601764  12.9719717  19.0858968
  60.3947368  12.5400915  18.9036443  59.3986107  12.8001730  20.0135863
  59.2147656   9.4751830  20.4515308  59.1596460   9.3096101  19.5103752
  58.5893711  10.1827863  20.6077497  44.0040171   4.7119894  34.2776730
  44.6499035   4.2018848  34.7663955  43.7957322   5.4488576  34.8520155
  56.5293563  11.7800742  39.7768870  57.3984723  11.9541394  39.4155505
  56.0500315  12.5995159  39.6544600  50.6979744  18.8997843  31.4558304
  51.6006990  18.9321453  31.7724799  50.4717114  17.9698294  31.4704640
  52.4533346  17.6528829  28.1168383  51.5028977  17.6530691  28.0032755
  52.7565832  16.9061564  27.6004417  48.3437662   1.8587511  38.3751744
  49.2069124   1.5024316  38.5855069  47.7703073   1.5201406  39.0627148
  68.1886039  23.4889368  29.1814145  68.8264449  23.3696115  28.4777485
  68.0706882  24.4370212  29.2402097  64.9975745  23.4416796  29.1175670
  64.6594257  23.3257860  28.2296205  65.8665514  23.0407961  29.0976676
  60.8562561  25.2952272  25.1072561  60.2927426  25.2042209  24.3388849
  60.7414956  24.4752177  25.5875053  65.4795528  24.5951648  35.0761875
  65.4684169  24.2004446  34.2042379  65.6416168  23.8617720  35.6695647
  58.4026993  26.7903464  27.9456781  59.1948285  26.4494288  27.5303081
  58.6423643  26.8998439  28.8658935  66.4362120  28.9623240  20.4187026
  65.7850100  29.5477320  20.0321039  67.2306483  29.4929435  20.4782063
  60.3617747  26.0512377  20.8174160  61.1348623  25.5041364  20.6787036
  60.7143146  26.9156626  21.0288621  62.2002790  27.3788759  34.0241059
  61.9092655  28.2834390  33.9087726  62.8359774  27.4205287  34.7385129
  63.1258996  24.7565608  30.6142419  63.7222569  24.5321630  29.8999382
  63.1833968  24.0150353  31.2167867  62.6984025  22.2105043  18.4492610
  62.9509545  21.6886564  17.6876073  61.7608584  22.0471189  18.5519294
  67.7427308  21.2140822  26.2567353  68.5290397  20.7960245  25.9057770
  68.0066012  22.1186914  26.4249002  67.9137385  26.6513672  20.9556010
  67.2783218  26.7248298  21.6676915  67.5834791  27.2407271  20.2775089
  73.1435735  21.1516055  27.1600332  73.8760907  20.5815272  27.3938161
  72.3875090  20.7637655  27.6006837  62.4180314  24.1133149  20.6516985
  62.3016572  23.4378053  21.3198069  62.5282573  23.6265523  19.8349138
  64.7611854  23.5743296  24.3563674  64.3970062  23.0473917  25.0676596
  65.6178970  23.1841765  24.1830160  70.6661155  14.8637629  31.6194940
  70.3344480  15.7333040  31.3956155  70.0706768  14.5473913  32.2988971
  64.4017341  18.6033196  19.3525023  64.5691744  19.4713432  19.7195494
  64.2114510  18.7660478  18.4286312  67.1592675  27.0650175  31.0190853
  66.8593398  27.9675214  30.9106660  66.8143734  26.7982358  31.8712006
  60.6105156  23.5163972  27.0527557  59.6855653  23.3840186  27.2605249
  60.8589569  24.2958191  27.5497500  70.5589818  19.5832715  28.6988290
  69.6506696  19.5148123  28.4047051  70.5077414  20.0604660  29.5270116
  64.3806562  21.0590853  20.3371689  64.2606187  21.5047904  21.1757170
  63.6859151  21.4076171  19.7785228  57.9713967  23.1597245  27.8871347
  58.1006348  23.4131724  28.8010758  57.2911418  23.7524953  27.5676002
  64.6330684  21.0022361  36.6423188  63.8564018  21.5616281  36.6326052
  65.2721247  21.4879144  37.1638058  72.4251465  17.7849153  30.4766164
  71.7825845  18.0781687  29.8305959  71.9206393  17.6702074  31.2819361
  70.0791628  21.5312327  21.1652024  70.9909485  21.7639713  20.9899721
  69.5701276  22.1149371  20.6027102  62.8877056  23.8107814  36.2041155
  63.6291741  24.3492858  35.9275978  62.1814042  24.4374103  36.3612706
  68.3632396  25.9536954  34.8013316  68.7715752  25.5119365  34.0567948
  67.6409658  25.3789582  35.0547509  64.7163466  20.8909561  32.1746873
  65.5624661  21.3148975  32.3181522  64.6562104  20.2343186  32.8685436
  68.6861211  26.5138145  28.5565605  68.0570073  26.6783859  27.8541673
  68.2986873  26.9279755  29.3276569  72.5650443  27.4492583  25.9109969
  71.8801481  27.8291484  25.3607002  72.6494292  28.0587910  26.6441917
  67.8662911  18.5513930  33.8328047  67.6223843  19.3055990  33.2962322
  68.1422842  18.9299277  34.6675294  69.8201374  25.0952542  32.5105312
  70.0318270  25.7384302  31.8339693  69.7731123  24.2614858  32.0427242
  67.4227603  17.7070363  29.4141884  66.5612082  18.0051616  29.7058622
  67.4490038  17.9240761  28.4822917  64.2389173  26.2512553  25.8215690
  64.7027518  26.5300256  25.0320313  63.9745971  25.3495998  25.6388781
  61.1313254  25.7984035  28.7595453  61.7014611  26.2271303  28.1212938
  61.7221366  25.5166619  29.4579639  63.1758059  22.3735706  22.6305255
  63.8782102  22.8256749  23.0979182  62.8438687  21.7319524  23.2585148
  61.6238420  20.9647462  37.0056465  60.9937081  21.6463743  37.2391861
  61.5174508  20.8530544  36.0609603  56.9183393  20.6319258  27.9322389
  56.1282447  20.8876787  27.4562499  57.4094640  21.4467596  28.0374429
  70.9347202  27.9724497  30.6827670  71.7564646  27.5704685  30.4010351
  70.9309605  27.8692732  31.6343785  58.8698138  20.9963837  24.8905865
  58.0729301  21.1082532  25.4089361  58.6423730  21.3350490  24.0246756
  64.7003806  27.5208541  32.8388380  64.7648238  27.9828948  33.6746552
  63.9914730  26.8905906  32.9670690  55.2021096  20.8849749  30.3637380
  55.4529134  21.7696759  30.6294956  55.7380644  20.7054350  29.5912471
  79.0253195  24.3163246  27.0312641  78.2716904  23.7470644  26.8756646
  79.1600736  24.2825910  27.9783276  64.4151823  29.1876648  22.7067360
  64.2797498  30.0328184  23.1352208  64.9561636  29.3895926  21.9433294
  60.9019163  15.2668228  39.3681716  60.5086109  14.7134427  40.0429360
  61.7185303  15.5778806  39.7588233  57.8681221  26.7052086  23.2795286
  58.3805741  27.4995336  23.4300850  58.5203934  26.0078377  23.2128887
  59.6776105  29.8217842  25.3618039  59.8542734  30.7435807  25.1739023
  60.4732939  29.5076262  25.7912418  63.8187124  16.6826107  36.9601972
  64.5596837  17.2833260  36.8806435  64.0505047  15.9403745  36.4020015
  58.9628462  21.8682474  35.2380202  58.8481977  20.9667732  35.5387301
  58.1072980  22.1146171  34.8865018  66.0420300  29.8100215  36.8367703
  65.5984154  29.0236593  36.5188607  66.7037513  29.9979365  36.1711593
  60.8007421  31.3396016  31.3628381  61.3514846  31.2113080  30.5905375
  59.9618897  31.6390905  31.0123274  68.1401538  30.0903015  34.8649104
  68.1220013  30.9111896  34.3729373  69.0621458  29.9657090  35.0899245
  64.5974592  27.6047144  35.7072612  65.1302929  26.8435432  35.4771920
  64.0688673  27.3120796  36.4496767  67.7644287  12.7107210  31.2366254
  67.4208556  13.6008852  31.1605364  68.1323249  12.5208868  30.3735839
  55.8330137  25.0340740  24.0554856  56.6705359  25.4437749  23.8388564
  56.0108405  24.0940183  24.0255050  67.7294570  22.7015821  19.7438689
  67.2141193  23.4720426  19.9827076  67.4571878  22.0280957  20.3671750
  65.3141681  17.5465522  24.8023927  64.4583277  17.1572372  24.6229566
  65.7268632  17.6257483  23.9423713  66.8440827  15.0811865  29.2015487
  66.3405623  15.0442000  28.3883292  67.1371434  15.9904608  29.2612144
  63.0883713  15.1650595  28.2081669  63.9536710  14.9693404  27.8487558
  63.1561222  14.9360947  29.1351026  72.7028844  25.4548176  21.6791863
  71.9258287  25.1159335  21.2347025  73.3820325  25.4600799  21.0046828
  67.5180873  20.5742913  21.5698470  67.2131008  20.8889062  22.4208613
  68.4711315  20.6524333  21.6125803  65.9627305  26.7333137  23.2191424
  65.4348666  25.9985896  22.9064662  65.4614807  27.5107813  22.9731393
  70.9420151  24.9282157  28.3358470  70.2843825  25.6181418  28.4238599
  71.7460550  25.3178589  28.6792457  60.6946032  17.3952803  25.5798036
  61.2689784  17.1727984  24.8471229  61.2817015  17.4641497  26.3326637
  69.7525609  23.2826530  26.3862412  70.2657491  23.9156522  26.8884122
  70.4026833  22.6827725  26.0205772  61.0215619  19.4257264  19.5993921
  60.1852932  19.7631950  19.9203196  60.8820389  19.2906244  18.6621058
  62.9968700  14.2694052  24.3073105  62.3433112  13.9543069  23.6829720
  62.9549174  13.6469792  25.0332928  64.1079905  24.5513347  16.2226397
  63.2006967  24.3202600  16.4217546  64.6050937  23.7550966  16.4100379
  67.0147984  33.2610854  19.1423083  66.3409682  33.5642551  19.7508041
  67.4013806  34.0639934  18.7928540  66.2306440  20.7575985  28.6320753
  65.3129002  20.9790932  28.4742441  66.6466584  20.8322296  27.7732460
  67.0141488  22.1567401  23.7623433  67.7613307  22.6688798  23.4530555
  67.2833078  21.8351454  24.6227827  65.2868138  24.6525942  20.7450387
  64.3779357  24.3684974  20.8422857  65.3163222  25.0725020  19.8853694
  70.5187406  28.2632531  24.5141555  70.0649733  27.4223441  24.5706745
  69.8881372  28.8993930  24.8516335  69.4620325  19.1924517  25.7442222
  68.7243082  18.6801903  26.0752465  69.7147099  18.7524899  24.9325499
  68.9620345  30.1009028  25.4491373  69.2543319  30.6614085  24.7303739
  69.4718965  30.3937589  26.2044532  69.5631953  11.9700769  26.3383992
  69.8690829  11.1098133  26.0509907  70.2884557  12.5618389  26.1382985
  55.8556309  22.3731456  24.7265590  55.6580708  21.7800817  24.0016656
  55.3002973  22.0683666  25.4441528  63.8353032  22.2654562  26.8460183
  63.8901642  21.3128399  26.7702659  63.0244234  22.4214001  27.3301481
  64.9844226  26.1934685  18.0838466  64.5463656  25.4770544  17.6244103
  65.7254667  26.4210800  17.5223557  61.7745392  20.8831622  24.6050562
  60.9613258  21.1825793  25.0115754  62.2704386  20.4887311  25.3225044
  63.9253970  30.8789379  26.5384826  63.8830149  31.1050225  25.6093358
  64.8416669  30.6452754  26.6870627  67.3719604  21.3473446  33.4365455
  67.7268992  21.5744920  34.2959921  68.0191735  21.6791823  32.8142711
  73.1017341  24.4691882  24.1414784  72.9635239  24.6593478  23.2135974
  72.7453560  25.2311265  24.5982836  61.2659467  18.4549978  30.2211796
  61.9058846  18.3138737  29.5234760  60.4336998  18.1684491  29.8450398
  73.1286720  26.5368409  29.1526056  73.5623227  26.4443698  30.0009110
  73.8418301  26.5125910  28.5146072  62.0419771  27.7552408  26.3346789
  62.8360369  27.2602728  26.1329364  61.3311463  27.2270271  25.9714495
  66.8614615  30.1370503  30.6859157  66.9151638  30.7061440  31.4536872
  65.9929397  30.3072389  30.3213194  58.3502534  21.8995490  22.4106542
  57.4200122  21.8379945  22.6276504  58.4460006  21.3771442  21.6143183
  58.2688083  18.4250303  24.9984783  58.5294901  19.3395636  24.8893944
  59.0905256  17.9574745  25.1481396  59.7413009  19.8388060  32.1683608
  60.4136062  19.6305422  31.5196257  58.9142795  19.6410146  31.7288840
  73.9902270  26.5792110  31.6858941  74.1838160  27.4837921  31.9318216
  73.8902888  26.1199529  32.5197526  65.6438581  16.4650001  34.1849269
  64.9966496  17.1639950  34.0913745  66.4139596  16.8986145  34.5525517
  69.0517379  26.7298853  37.2599822  68.9002885  26.5009404  36.3429906
  69.0422058  27.6869454  37.2731167  65.8202715  24.3030766  32.2446088
  66.7494775  24.4541925  32.0715056  65.3993745  24.3914786  31.3894735
  64.6191047  28.3281430  30.0144626  64.4802133  27.9600214  30.8870564
  63.8305643  28.8429069  29.8428584  66.1696262  27.7063033  27.4033464
  65.8346095  27.6663803  28.2991114  65.6700208  27.0407749  26.9303874
  60.1440506  23.1130663  32.9286045  60.0060304  22.3810902  33.5297584
  61.0545429  23.0239563  32.6470233  69.1055454  25.0519067  17.6770523
  68.4884624  24.3265895  17.5803576  68.6371942  25.8128427  17.3337598
  62.7722807  22.8250622  32.4169725  63.4822425  22.1843814  32.3756343
  62.7292115  23.0763517  33.3395905  70.7609585  29.7617975  35.3376304
  70.7022131  29.0777195  34.6706887  71.1629104  30.5036965  34.8856930
  61.4851741  19.8115840  34.2365364  60.9489098  19.3606578  34.8886960
  60.8968449  19.9461749  33.4935828  60.8954000  19.2704491  16.7991828
  60.0183466  19.1493292  16.4354074  61.3711753  18.4790570  16.5470716
  70.7626993  27.7257559  33.5690284  69.8753771  27.3883481  33.6916682
  71.3325544  26.9940591  33.8059049  52.4156140  24.0581651  26.8933335
  53.1027180  23.7443381  26.3054350  52.2604268  24.9623016  26.6200586
  57.2190862  18.9471848  31.3218359  57.1349051  18.3397517  30.5868769
  56.3973568  19.4380866  31.3227855  64.0817926  31.6230782  24.0454348
  63.2985447  32.1652462  24.1392573  64.7810671  32.1404761  24.4448589
  67.3914576  17.4325411  26.6888554  67.8883275  16.6795373  26.3689624
  66.6201557  17.4689728  26.1231763  75.2444333  23.1365777  28.3306845
  75.2334209  24.0190492  27.9600778  74.3761713  22.7837327  28.1361382
  68.4744356  26.1897098  24.2626977  67.5400635  26.3098561  24.0931681
  68.6521025  25.2869565  23.9986987  63.9749544  19.5742794  26.4160238
  63.6047332  19.0213834  27.1041144  64.4708637  18.9700928  25.8635238
  71.8616908  22.0314418  24.7977011  72.3277360  22.8642409  24.7237314
  72.3124408  21.5659399  25.5022270  61.8038743  30.0340289  33.5115256
  62.5048203  30.6676772  33.6644650  61.3333858  30.3755021  32.7510895
  69.9293139  28.3758239  21.7963163  70.2052983  28.2614833  22.7057037
  69.0597638  27.9775724  21.7575336  69.8333571  14.3995005  28.8367913
  68.9196650  14.6299231  29.0050119  70.2626672  14.4833449  29.6881945
  69.6040029  22.5884897  31.3367807  68.9511479  22.8360804  30.6820259
  69.9820409  21.7749035  31.0030284  66.8989368  31.5512775  22.7011025
  67.4277135  31.0405229  22.0881187  67.1617588  31.2355305  23.5656558
  65.6527602  23.3304708  37.8233844  64.9768239  23.2298837  38.4936219
  66.4755236  23.1743921  38.2869841  57.4006461  29.5676644  30.4446359
  57.9859898  28.8220332  30.5774263  57.2031300  29.8780601  31.3283023
  60.2545116  32.6027892  25.4608801  59.5855492  33.0874019  24.9772841
  60.1157986  32.8497112  26.3752180  51.9924116  22.1382244  29.1650802
  52.0308215  21.6045835  29.9587920  51.4864409  21.6117450  28.5461779
  59.3714878  16.9846785  32.6613344  59.4356205  17.8461616  32.2490742
  59.3081998  16.3720787  31.9285703  58.8467151  19.0569917  36.3086379
  59.4739189  18.6746995  36.9223903  57.9895070  18.8384119  36.6742071
  55.6232693  20.8646347  22.2404733  55.9186134  19.9557025  22.1871787
  54.7220729  20.8434086  21.9185736  59.1526940  18.9402343  28.2232282
  58.4313526  19.5538311  28.0839755  59.9420196  19.4760108  28.1448928
  69.5953681  30.3862631  30.6734692  68.6484016  30.2667982  30.6013019
  69.9436454  29.4985129  30.7560953  61.9553254  16.2756770  34.4972934
  62.4787656  16.5219066  35.2599243  61.7365587  17.1076804  34.0776071
  57.3520535  18.5460444  22.3644059  57.0233241  17.6657823  22.1819164
  57.7059906  18.4908113  23.2520448  66.6000114  30.1815347  26.8739044
  66.4525076  29.2532054  27.0546614  67.4253607  30.2035438  26.3896119
  60.4662358  18.8333414  22.7319536  60.8058431  19.3619335  22.0098145
  60.9134479  19.1713820  23.5078103  63.1605799  17.2170465  32.1822604
  62.8202619  16.4178278  32.5843284  62.4544805  17.5172176  31.6099437
  63.8122271  14.3019777  30.6349927  64.6348340  13.8280255  30.5128818
  64.0560334  15.0810261  31.1348614  62.4530505  17.3308036  20.9312829
  63.1738868  17.7089288  20.4276546  61.8295809  18.0496912  21.0347807
  66.5961628  18.0353185  21.8671161  66.8125243  18.9177822  21.5659989
  66.1155695  17.6439398  21.1376803  61.3360850  20.9938898  28.4441906
  61.1905430  21.3079201  29.3366187  60.8586053  21.6123798  27.8912805
  63.1957232  17.9841446  28.4922795  63.1818801  17.0882539  28.1555093
  63.9129661  17.9912110  29.1261082  65.0483363  18.4178786  30.5375923
  64.7901141  19.3395857  30.5360253  64.5168404  18.0209221  31.2276387
  55.8106512  23.5344242  31.3829567  55.2659980  24.3104050  31.5149841
  56.6885862  23.8815047  31.2248689  62.5994128  16.8655826  23.7610366
  62.7210040  15.9372472  23.9601253  62.3096171  16.8794512  22.8488681
  65.4685319  14.5510736  26.8977085  65.4907016  14.6150070  25.9429065
  65.8853378  13.7115245  27.0917592  75.8468943  24.2865996  24.9356308
  76.2900089  23.5373321  24.5375431  74.9695453  24.2776132  24.5530040
  70.9804724  30.8396337  20.4162907  71.6755629  31.4603030  20.6350221
  71.3227875  29.9891689  20.6915284  56.5972534  22.6614138  34.2759724
  55.8554270  22.8096774  34.8624354  56.2765278  22.9222404  33.4126473
  72.8796148  28.2896043  21.9450237  73.4047472  28.6283316  21.2199557
  72.7918500  27.3543058  21.7613372  57.0429147  30.5479567  26.3070119
  57.8687167  30.2483339  25.9268762  56.6923199  29.7787190  26.7559907
  62.0110680  29.9006035  28.3767792  61.3890690  29.2376740  28.0770020
  62.6815547  29.9267167  27.6941440  55.2437752  28.4665894  27.2659052
  54.4069661  28.0388068  27.0843053  55.2161398  28.6598337  28.2029843
  62.0835208  18.3787823  37.9700298  62.1323363  19.2549946  37.5878068
  62.6257722  17.8365216  37.3971941  72.5690054  28.9228947  37.2501435
  71.7785597  28.9053086  36.7105935  72.3323408  29.4617240  38.0050472
  72.6887929  25.7721413  34.5634164  72.7385934  25.6071420  35.5049687
  72.5801852  24.9048672  34.1732045  61.5724187  28.4509959  21.8526253
  61.7212308  29.1345423  21.1992925  62.3790631  28.4315049  22.3675708
  69.9791691  21.7552341  35.8793471  70.8801554  21.6158806  35.5877468
  70.0539666  21.9206796  36.8191648  64.3134496  19.1319196  34.7246657
  63.4437806  19.4252762  34.4529245  64.5493977  19.7159641  35.4453921
  74.1906125  28.1918355  34.8076185  73.8990934  28.5548335  35.6439646
  73.5778257  27.4785363  34.6289517  75.3901808  25.7571234  27.3278756
  76.2248699  26.1961038  27.4916316  75.5260937  25.2809888  26.5087001
  72.4393314  23.3150969  33.2756243  72.9147435  23.5078615  32.4675095
  71.5158879  23.3710155  33.0299627  59.3276820  24.4775136  22.8587322
  59.0822862  23.5737466  23.0567532  59.4972735  24.4792287  21.9166800
  67.0173530  15.3498813  32.2412077  67.5355474  16.0859840  31.9158566
  66.6628663  15.6562806  33.0758836  58.5972468  20.2103494  20.3573483
  57.9041713  20.2847849  19.7013519  58.3524220  19.4463838  20.8795000
  67.2686124  11.7699095  27.7612974  67.5487878  11.1022284  28.3873400
  68.0536731  11.9628191  27.2487638  65.0719593  30.9458089  19.3238000
  64.4993560  31.5648276  18.8708472  65.6452387  31.4957451  19.8577922
  71.1394983  20.1916729  31.5084549  72.0912406  20.2914827  31.5296773
  70.9698433  19.3994998  32.0182633  69.1609362  17.2772312  31.6943950
  68.5659294  17.5577325  30.9990439  68.8759059  17.7666213  32.4660691
  68.2916853  31.2295239  20.4546582  69.2247526  31.1640801  20.6579458
  68.2040065  32.0651506  19.9961115  70.9204869  30.5461110  17.4150530
  70.8418501  30.2120973  18.3086288  71.7414536  31.0382878  17.4142002
  73.6183060  23.4122849  30.6226849  73.5859381  22.4738850  30.8086532
  74.2283684  23.4906886  29.8892674  65.4566391  22.2818902  16.6654053
  66.4025496  22.1525110  16.7342471  65.0780636  21.5433564  17.1423481
  73.7677549  20.2033892  30.6685132  73.2516598  19.4192349  30.4815061
  74.6517498  19.8752609  30.8331651  71.4288276  13.9474908  26.6280944
  71.2313097  13.6389996  27.5124276  72.0387981  14.6736547  26.7578874
  79.4359610  24.4738856  29.7632885  80.1662999  24.2124144  30.3240589
  78.8266556  23.7367578  29.8034953  77.5174907  22.6146718  30.3607337
  76.7908071  22.4802683  29.7523828  77.1022194  22.9223547  31.1664055
  65.3405084  26.3336648  38.1254710  66.2608093  26.5115247  38.3194756
  65.3054667  25.3892693  37.9734409  63.6409309  20.2068878  16.6008938
  62.7340764  19.9101991  16.6771651  63.9185290  19.9098696  15.7343224
  54.5587249  21.5275242  27.0507984  54.2390033  20.6740550  26.7582358
  54.0120677  21.7423820  27.8065952  58.3367156  24.2437683  30.7677491
  58.5553166  25.1754791  30.7865525  58.7492930  23.8845657  31.5532295
  65.2571374  14.7505768  22.7553179  64.4472103  14.4052853  23.1308425
  65.9455791  14.4413312  23.3440791  67.1861923  13.8283815  24.3777476
  67.7392961  14.2479268  25.0367499  67.4232009  12.9019563  24.4200432
  63.2095022  19.8170888  40.1580240  63.1091749  20.7665245  40.0892331
  62.9916564  19.4889127  39.2856310  62.4108093  17.0655814  16.7420917
  63.2727257  17.3910712  17.0016734  62.5958437  16.2787309  16.2293983
  54.4275509  25.1478153  29.0201106  53.7338980  24.7332106  28.5071060
  55.1748500  25.1898690  28.4234525  70.5640730  15.9384340  23.8856140
  69.9839399  16.5969144  23.5034192  70.2976662  15.1161685  23.4743558
  69.0144296  15.3389398  26.0877460  69.5144074  15.4505932  25.2791779
  69.6579904  15.0350451  26.7278269  63.0726292  23.2468027  38.9745301
  62.5893374  24.0468387  39.1809190  63.1587231  23.2575972  38.0212745
  56.3412251  25.0796407  26.8967121  56.3182940  25.1784094  25.9449004
  56.6512888  25.9261558  27.2184287  58.9999629  27.1372562  31.0113735
  59.9542883  27.1056504  30.9443667  58.8012153  26.6763186  31.8263961
  59.5899011  25.7073678  33.5784533  60.4091900  26.2017757  33.6019370
  59.8635819  24.7905646  33.5502100  69.3465608  18.0984430  22.9412488
  68.4591463  18.3834081  22.7232683  69.7619597  17.9378194  22.0939765
  72.6980144  18.1230951  26.6566828  73.4740534  18.6127404  26.9291444
  71.9728278  18.5489006  27.1138697  75.1352702  18.8358571  27.7140768
  75.7297193  18.5954307  27.0034076  75.2079286  18.1165701  28.3414305
  57.3549858  32.6792182  28.0283933  57.2204326  31.9192582  27.4621931
  56.9381920  33.4033081  27.5612722  68.4908821  27.8629105  17.0360508
  69.1944671  28.0679108  17.6518164  67.7671470  28.4305867  17.3009592
  69.3206631  23.6138966  23.1562778  69.2641833  24.0707518  22.3170411
  69.8734974  22.8529651  22.9785621  73.1311437  19.4028698  23.9812898
  72.8748372  19.0025334  24.8121106  72.5064305  20.1172492  23.8563037
  77.4423775  22.1424771  26.4884189  76.8823333  22.2117961  27.2615751
  76.8367279  21.9665756  25.7683686  70.3995518  28.3011634  19.0858968
  71.2341122  27.8692833  18.9036443  70.2379861  28.1293648  20.0135863
  70.0541411  24.8043748  20.4515308  69.9990214  24.6388019  19.5103752
  69.4287466  25.5119780  20.6077497  54.8433926  20.0411812  34.2776730
  55.4892789  19.5310766  34.7663955  54.6351077  20.7780494  34.8520155
  67.3687318  27.1092659  39.7768870  68.2378477  27.2833312  39.4155505
  66.8894069  27.9287076  39.6544600  63.3637536  14.3051857  20.0300626
  63.3516206  15.2493696  20.1868897  64.2560958  14.1222002  19.7360087
  67.1789656  10.8994633  24.2846563  66.4122051  10.3453120  24.4303245
  67.5900361  10.9716502  25.1460715  59.1831417  17.1879429  38.3751744
  60.0462878  16.8316234  38.5855069  58.6096827  16.8493324  39.0627148
  79.0279794  38.8181285  29.1814145  79.6658204  38.6988033  28.4777485
  78.9100636  39.7662129  29.2402097  77.2755874  44.2915158  20.4187026
  76.6243854  44.8769238  20.0321039  78.0700237  44.8221352  20.4782063
  73.5377779  37.5396961  18.4492610  73.7903300  37.0178482  17.6876073
  72.6002338  37.3763106  18.5519294  78.5821062  36.5432739  26.2567353
  79.3684151  36.1252162  25.9057770  78.8459766  37.4478831  26.4249002
  78.7531139  41.9805590  20.9556010  78.1176972  42.0540216  21.6676915
  78.4228546  42.5699188  20.2775089  83.9829489  36.4807972  27.1600332
  84.7154661  35.9107189  27.3938161  83.2268845  36.0929573  27.6006837
  73.2574068  39.4425067  20.6516985  73.1410326  38.7669970  21.3198069
  73.3676328  38.9557441  19.8349138  81.5054910  30.1929547  31.6194940
  81.1738234  31.0624957  31.3956155  80.9100523  29.8765831  32.2988971
  75.2411096  33.9325114  19.3525023  75.4085498  34.8005350  19.7195494
  75.0508265  34.0952395  18.4286312  81.3983573  34.9124633  28.6988290
  80.4900450  34.8440041  28.4047051  81.3471169  35.3896578  29.5270116
  75.2200317  36.3882771  20.3371689  75.0999942  36.8339822  21.1757170
  74.5252905  36.7368089  19.7785228  83.2645219  33.1141071  30.4766164
  82.6219600  33.4073604  29.8305959  82.7600148  32.9993991  31.2819361
  80.9185383  36.8604244  21.1652024  81.8303239  37.0931631  20.9899721
  80.4095030  37.4441288  20.6027102  83.4044197  42.7784501  25.9109969
  82.7195235  43.1583402  25.3607002  83.4888046  43.3879827  26.6441917
  80.6595129  40.4244460  32.5105312  80.8712024  41.0676220  31.8339693
  80.6124877  39.5906776  32.0427242  78.2621358  33.0362280  29.4141884
  77.4005837  33.3343534  29.7058622  78.2883792  33.2532679  28.4822917
  74.0151813  37.7027623  22.6305255  74.7175857  38.1548667  23.0979182
  73.6832442  37.0611442  23.2585148  89.8646950  39.6455164  27.0312641
  89.1110658  39.0762562  26.8756646  89.9994491  39.6117828  27.9783276
  75.2545578  44.5168566  22.7067360  75.1191253  45.3620102  23.1352208
  75.7955390  44.7187843  21.9433294  74.6580878  32.0118025  36.9601972
  75.3990592  32.6125178  36.8806435  74.8898801  31.2695663  36.4020015
  78.6038041  28.0399128  31.2366254  78.2602311  28.9300769  31.1605364
  78.9717004  27.8500785  30.3735839  78.5688324  38.0307739  19.7438689
  78.0534948  38.8012343  19.9827076  78.2965633  37.3572875  20.3671750
  77.6834582  30.4103783  29.2015487  77.1799377  30.3733918  28.3883292
  77.9765189  31.3196526  29.2612144  83.5422598  40.7840093  21.6791863
  82.7652041  40.4451253  21.2347025  84.2214079  40.7892717  21.0046828
  78.3574627  35.9034831  21.5698470  78.0524763  36.2180980  22.4208613
  79.3105069  35.9816251  21.6125803  81.7813905  40.2574075  28.3358470
  81.1237580  40.9473336  28.4238599  82.5854304  40.6470507  28.6792457
  80.5919364  38.6118447  26.3862412  81.1051246  39.2448439  26.8884122
  81.2420588  38.0119643  26.0205772  71.8609374  34.7549182  19.5993921
  71.0246686  35.0923868  19.9203196  71.7214143  34.6198161  18.6621058
  73.8362454  29.5985969  24.3073105  73.1826867  29.2834987  23.6829720
  73.7942929  28.9761710  25.0332928  74.9473659  39.8805264  16.2226397
  74.0400721  39.6494518  16.4217546  75.4444691  39.0842884  16.4100379
  77.8541738  48.5902772  19.1423083  77.1803437  48.8934468  19.7508041
  78.2407560  49.3931852  18.7928540  77.0700195  36.0867903  28.6320753
  76.1522756  36.3082850  28.4742441  77.4860338  36.1614213  27.7732460
  77.8535243  37.4859319  23.7623433  78.6007061  37.9980716  23.4530555
  78.1226832  37.1643371  24.6227827  76.1261893  39.9817859  20.7450387
  75.2173112  39.6976892  20.8422857  76.1556977  40.4016938  19.8853694
  81.3581160  43.5924449  24.5141555  80.9043487  42.7515359  24.5706745
  80.7275127  44.2285847  24.8516335  80.3014080  34.5216435  25.7442222
  79.5636837  34.0093821  26.0752465  80.5540853  34.0816816  24.9325499
  80.4025707  27.2992687  26.3383992  80.7084584  26.4390050  26.0509907
  81.1278312  27.8910307  26.1382985  75.8237981  41.5226603  18.0838466
  75.3857410  40.8062462  17.6244103  76.5648421  41.7502718  17.5223557
  83.9411095  39.7983800  24.1414784  83.8028994  39.9885396  23.2135974
  83.5847314  40.5603183  24.5982836  83.9680475  41.8660327  29.1526056
  84.4016982  41.7735616  30.0009110  84.6812056  41.8417828  28.5146072
  84.8296024  41.9084028  31.6858941  85.0231915  42.8129838  31.9318216
  84.7296643  41.4491447  32.5197526  76.4832335  31.7941918  34.1849269
  75.8360250  32.4931868  34.0913745  77.2533351  32.2278062  34.5525517
  79.9449208  40.3810985  17.6770523  79.3278379  39.6557813  17.5803576
  79.4765697  41.1420345  17.3337598  71.7347754  34.5996409  16.7991828
  70.8577220  34.4785210  16.4354074  72.2105507  33.8082487  16.5470716
  78.2308330  32.7617329  26.6888554  78.7277030  32.0087291  26.3689624
  77.4595312  32.7981645  26.1231763  86.0838088  38.4657694  28.3306845
  86.0727964  39.3482410  27.9600778  85.2155467  38.1129245  28.1361382
  82.7010662  37.3606335  24.7977011  83.1671114  38.1934327  24.7237314
  83.1518163  36.8951317  25.5022270  80.7686893  43.7050157  21.7963163
  81.0446737  43.5906751  22.7057037  79.8991392  43.3067641  21.7575336
  80.6727325  29.7286922  28.8367913  79.7590405  29.9591149  29.0050119
  81.1020426  29.8125366  29.6881945  80.4433783  37.9176814  31.3367807
  79.7905234  38.1652722  30.6820259  80.8214163  37.1040952  31.0030284
  70.2108633  32.3138703  32.6613344  70.2749959  33.1753533  32.2490742
  70.1475753  31.7012704  31.9285703  72.7947008  31.6048687  34.4972934
  73.3181410  31.8510984  35.2599243  72.5759342  32.4368722  34.0776071
  73.9999553  32.5462382  32.1822604  73.6596374  31.7470195  32.5843284
  73.2938560  32.8464093  31.6099437  74.6516025  29.6311695  30.6349927
  75.4742095  29.1572173  30.5128818  74.8954089  30.4102179  31.1348614
  73.2924260  32.6599953  20.9312829  74.0132622  33.0381206  20.4276546
  72.6689564  33.3788830  21.0347807  77.4355383  33.3645102  21.8671161
  77.6518997  34.2469740  21.5659989  76.9549450  32.9731316  21.1376803
  75.8877118  33.7470704  30.5375923  75.6294895  34.6687774  30.5360253
  75.3562158  33.3501138  31.2276387  80.8323306  46.8521491  23.3166008
  81.0060184  46.2867913  22.5639861  81.3252198  47.6522386  23.1345498
  76.3079073  29.8802654  26.8977085  76.3300770  29.9441987  25.9429065
  76.7247132  29.0407163  27.0917592  86.6862698  39.6157914  24.9356308
  87.1293844  38.8665239  24.5375431  85.8089208  39.6068050  24.5530040
  81.8198479  46.1688255  20.4162907  82.5149384  46.7894948  20.6350221
  82.1621629  45.3183606  20.6915284  83.7189902  43.6187961  21.9450237
  84.2441226  43.9575233  21.2199557  83.6312255  42.6834976  21.7613372
  80.8185446  37.0844259  35.8793471  81.7195308  36.9450724  35.5877468
  80.8933420  37.2498714  36.8191648  85.0299880  43.5210272  34.8076185
  84.7384688  43.8840253  35.6439646  84.4172011  42.8077281  34.6289517
  86.2295562  41.0863152  27.3278756  87.0642454  41.5252956  27.4916316
  86.3654691  40.6101805  26.5087001  83.2787068  38.6442887  33.2756243
  83.7541190  38.8370533  32.4675095  82.3552634  38.7002073  33.0299627
  77.8567285  30.6790730  32.2412077  78.3749229  31.4151757  31.9158566
  77.5022417  30.9854724  33.0758836  78.1079879  27.0991013  27.7612974
  78.3881633  26.4314202  28.3873400  78.8930486  27.2920109  27.2487638
  75.9113347  46.2750007  19.3238000  75.3387314  46.8940194  18.8708472
  76.4846141  46.8249369  19.8577922  81.9788737  35.5208647  31.5084549
  82.9306160  35.6206745  31.5296773  81.8092188  34.7286915  32.0182633
  80.0003117  32.6064230  31.6943950  79.4053049  32.8869243  30.9990439
  79.7152813  33.0958131  32.4660691  79.1310607  46.5587157  20.4546582
  80.0641280  46.4932719  20.6579458  79.0433820  47.3943424  19.9961115
  81.7598624  45.8753027  17.4150530  81.6812255  45.5412891  18.3086288
  82.5808291  46.3674795  17.4142002  84.4576815  38.7414767  30.6226849
  84.4253135  37.8030767  30.8086532  85.0677439  38.8198803  29.8892674
  76.2960146  37.6110820  16.6654053  77.2419251  37.4817028  16.7342471
  75.9174391  36.8725482  17.1423481  84.6071303  35.5325810  30.6685132
  84.0910352  34.7484267  30.4815061  85.4911252  35.2044527  30.8331651
  82.2682030  29.2766826  26.6280944  82.0706852  28.9681914  27.5124276
  82.8781736  30.0028465  26.7578874  90.2753365  39.8030773  29.7632885
  91.0056753  39.5416062  30.3240589  89.6660310  39.0659495  29.8034953
  88.3568662  37.9438636  30.3607337  87.6301826  37.8094601  29.7523828
  87.9415949  38.2515465  31.1664055  74.4803063  35.5360796  16.6008938
  73.5734518  35.2393909  16.6771651  74.7579044  35.2390614  15.7343224
  76.0965129  30.0797686  22.7553179  75.2865857  29.7344771  23.1308425
  76.7849546  29.7705229  23.3440791  78.0255677  29.1575733  24.3777476
  78.5786716  29.5771186  25.0367499  78.2625763  28.2311481  24.4200432
  73.2501848  32.3947731  16.7420917  74.1121012  32.7202630  17.0016734
  73.4352192  31.6079227  16.2293983  81.4034484  31.2676258  23.8856140
  80.8233153  31.9261062  23.5034192  81.1370417  30.4453602  23.4743558
  79.8538050  30.6681315  26.0877460  80.3537829  30.7797850  25.2791779
  80.4973658  30.3642368  26.7278269  80.1859362  33.4276348  22.9412488
  79.2985217  33.7125999  22.7232683  80.6013351  33.2670111  22.0939765
  83.5373898  33.4522869  26.6566828  84.3134288  33.9419321  26.9291444
  82.8122032  33.8780923  27.1138697  85.9746457  34.1650488  27.7140768
  86.5690948  33.9246224  27.0034076  86.0473041  33.4457619  28.3414305
  79.3302576  43.1921023  17.0360508  80.0338426  43.3971025  17.6518164
  78.6065224  43.7597785  17.3009592  80.1600386  38.9430884  23.1562778
  80.1035587  39.3999435  22.3170411  80.7128728  38.1821569  22.9785621
  83.9705192  34.7320616  23.9812898  83.7142126  34.3317252  24.8121106
  83.3458060  35.4464410  23.8563037  88.2817530  37.4716689  26.4884189
  87.7217088  37.5409878  27.2615751  87.6761033  37.2957674  25.7683686
  81.2389273  43.6303552  19.0858968  82.0734877  43.1984750  18.9036443
  81.0773616  43.4585566  20.0135863  80.8935165  40.1335665  20.4515308
  80.8383969  39.9679937  19.5103752  80.2681220  40.8411698  20.6077497
  74.2031291  29.6343774  20.0300626  74.1909960  30.5785614  20.1868897
  75.0954712  29.4513920  19.7360087  78.0183410  26.2286551  24.2846563
  77.2515806  25.6745038  24.4303245  78.4294115  26.3008420  25.1460715
  89.8673548  54.1473203  29.1814145  90.5051958  54.0279950  28.4777485
  89.7494391  55.0954047  29.2402097  86.6763254  54.1000631  29.1175670
  86.3381766  53.9841696  28.2296205  87.5453023  53.6991796  29.0976676
  82.5350070  55.9536108  25.1072561  81.9714935  55.8626044  24.3388849
  82.4202465  55.1336012  25.5875053  87.1583037  55.2535483  35.0761875
  87.1471678  54.8588281  34.2042379  87.3203677  54.5201555  35.6695647
  80.0814502  57.4487299  27.9456781  80.8735794  57.1078124  27.5303081
  80.3211152  57.5582274  28.8658935  88.1149629  59.6207075  20.4187026
  87.4637609  60.2061156  20.0321039  88.9093992  60.1513270  20.4782063
  82.0405256  56.7096212  20.8174160  82.8136132  56.1625199  20.6787036
  82.3930655  57.5740462  21.0288621  83.8790298  58.0372595  34.0241059
  83.5880164  58.9418226  33.9087726  84.5147283  58.0789122  34.7385129
  84.8046505  55.4149443  30.6142419  85.4010078  55.1905466  29.8999382
  84.8621477  54.6734189  31.2167867  84.3771534  52.8688879  18.4492610
  84.6297054  52.3470400  17.6876073  83.4396093  52.7055024  18.5519294
  89.4214817  51.8724657  26.2567353  90.2077906  51.4544080  25.9057770
  89.6853521  52.7770749  26.4249002  89.5924894  57.3097507  20.9556010
  88.9570727  57.3832134  21.6676915  89.2622300  57.8991106  20.2775089
  94.8223244  51.8099890  27.1600332  95.5548416  51.2399107  27.3938161
  94.0662599  51.4221491  27.6006837  84.0967822  54.7716984  20.6516985
  83.9804081  54.0961888  21.3198069  84.2070082  54.2849358  19.8349138
  86.4399363  54.2327132  24.3563674  86.0757571  53.7057753  25.0676596
  87.2966479  53.8425601  24.1830160  92.3448664  45.5221464  31.6194940
  92.0131989  46.3916875  31.3956155  91.7494277  45.2057748  32.2988971
  86.0804850  49.2617031  19.3525023  86.2479253  50.1297268  19.7195494
  85.8902019  49.4244313  18.4286312  88.8380184  57.7234010  31.0190853
  88.5380907  58.6259049  30.9106660  88.4931243  57.4566193  31.8712006
  82.2892665  54.1747807  27.0527557  81.3643162  54.0424021  27.2605249
  82.5377078  54.9542026  27.5497500  92.2377327  50.2416550  28.6988290
  91.3294205  50.1731959  28.4047051  92.1864923  50.7188495  29.5270116
  86.0594071  51.7174689  20.3371689  85.9393696  52.1631740  21.1757170
  85.3646660  52.0660006  19.7785228  79.6501476  53.8181081  27.8871347
  79.7793857  54.0715560  28.8010758  78.9698927  54.4108789  27.5676002
  83.8200963  64.4878331  23.9861821  83.7424993  65.4386156  24.0650301
  83.2162607  64.1424203  24.6436747  86.3118193  51.6606196  36.6423188
  85.5351527  52.2200116  36.6326052  86.9508756  52.1462979  37.1638058
  94.1038974  48.4432989  30.4766164  93.4613354  48.7365522  29.8305959
  93.5993902  48.3285909  31.2819361  91.7579137  52.1896162  21.1652024
  92.6696994  52.4223549  20.9899721  91.2488784  52.7733206  20.6027102
  90.0419905  56.6120790  34.8013316  90.4503261  56.1703200  34.0567948
  89.3197167  56.0373417  35.0547509  86.3950975  51.5493397  32.1746873
  87.2412170  51.9732810  32.3181522  86.3349613  50.8927021  32.8685436
  90.3648720  57.1721980  28.5565605  89.7357582  57.3367695  27.8541673
  89.9774382  57.5863590  29.3276569  94.2437952  58.1076418  25.9109969
  93.5588990  58.4875320  25.3607002  94.3281801  58.7171745  26.6441917
  89.5450420  49.2097765  33.8328047  89.3011352  49.9639825  33.2962322
  89.8210351  49.5883113  34.6675294  91.4988883  55.7536377  32.5105312
  91.7105778  56.3968137  31.8339693  91.4518631  54.9198694  32.0427242
  89.1015112  48.3654198  29.4141884  88.2399591  48.6635452  29.7058622
  89.1277547  48.5824597  28.4822917  85.9176682  56.9096389  25.8215690
  86.3815027  57.1884091  25.0320313  85.6533480  56.0079833  25.6388781
  82.8100763  56.4567870  28.7595453  83.3802120  56.8855138  28.1212938
  83.4008875  56.1750455  29.4579639  84.8545568  53.0319541  22.6305255
  85.5569611  53.4840585  23.0979182  84.5226196  52.3903360  23.2585148
  92.6134711  58.6308333  30.6827670  93.4352155  58.2288520  30.4010351
  92.6097114  58.5276567  31.6343785  80.5485647  51.6547673  24.8905865
  79.7516810  51.7666367  25.4089361  80.3211239  51.9934325  24.0246756
  86.3791315  58.1792376  32.8388380  86.4435747  58.6412783  33.6746552
  85.6702239  57.5489741  32.9670690 100.7040704  54.9747081  27.0312641
  99.9504413  54.4054479  26.8756646 100.8388245  54.9409746  27.9783276
  86.0939332  59.8460483  22.7067360  85.9585007  60.6912019  23.1352208
  86.6349145  60.0479761  21.9433294  79.5468730  57.3635922  23.2795286
  80.0593250  58.1579172  23.4300850  80.1991443  56.6662212  23.2128887
  81.3563614  60.4801678  25.3618039  81.5330243  61.4019643  25.1739023
  82.1520448  60.1660097  25.7912418  85.4974633  47.3409942  36.9601972
  86.2384346  47.9417096  36.8806435  85.7292556  46.5987580  36.4020015
  87.7207809  60.4684050  36.8367703  87.2771663  59.6820429  36.5188607
  88.3825022  60.6563201  36.1711593  82.4794930  61.9979852  31.3628381
  83.0302355  61.8696915  30.5905375  81.6406406  62.2974741  31.0123274
  89.8189047  60.7486850  34.8649104  89.8007522  61.5695731  34.3729373
  90.7408967  60.6240925  35.0899245  86.2762101  58.2630979  35.7072612
  86.8090438  57.5019268  35.4771920  85.7476182  57.9704631  36.4496767
  89.4431796  43.3691045  31.2366254  89.0996065  44.2592687  31.1605364
  89.8110758  43.1792703  30.3735839  77.5117646  55.6924576  24.0554856
  78.3492868  56.1021584  23.8388564  77.6895914  54.7524018  24.0255050
  89.4082079  53.3599656  19.7438689  88.8928702  54.1304261  19.9827076
  89.1359387  52.6864793  20.3671750  86.9929190  48.2049357  24.8023927
  86.1370786  47.8156208  24.6229566  87.4056141  48.2841318  23.9423713
  88.5228336  45.7395701  29.2015487  88.0193132  45.7025836  28.3883292
  88.8158943  46.6488443  29.2612144  84.7671222  45.8234430  28.2081669
  85.6324219  45.6277239  27.8487558  84.8348731  45.5944782  29.1351026
  94.3816353  56.1132011  21.6791863  93.6045795  55.7743171  21.2347025
  95.0607834  56.1184634  21.0046828  89.1968382  51.2326749  21.5698470
  88.8918517  51.5472898  22.4208613  90.1498824  51.3108168  21.6125803
  87.6414814  57.3916972  23.2191424  87.1136175  56.6569731  22.9064662
  87.1402316  58.1691648  22.9731393  92.6207660  55.5865992  28.3358470
  91.9631334  56.2765254  28.4238599  93.4248059  55.9762424  28.6792457
  82.3733541  48.0536638  25.5798036  82.9477293  47.8311820  24.8471229
  82.9604524  48.1225333  26.3326637  91.4313118  53.9410365  26.3862412
  91.9445000  54.5740357  26.8884122  92.0814342  53.3411561  26.0205772
  82.7003128  50.0841099  19.5993921  81.8640441  50.4215786  19.9203196
  82.5607898  49.9490079  18.6621058  84.6756209  44.9277887  24.3073105
  84.0220621  44.6126904  23.6829720  84.6336683  44.3053628  25.0332928
  85.7867414  55.2097182  16.2226397  84.8794476  54.9786436  16.4217546
  86.2838446  54.4134801  16.4100379  88.6935493  63.9194689  19.1423083
  88.0197191  64.2226386  19.7508041  89.0801315  64.7223770  18.7928540
  87.9093949  51.4159821  28.6320753  86.9916511  51.6374768  28.4742441
  88.3254093  51.4906131  27.7732460  88.6928997  52.8151236  23.7623433
  89.4400816  53.3272634  23.4530555  88.9620587  52.4935289  24.6227827
  86.9655647  55.3109777  20.7450387  86.0566866  55.0268810  20.8422857
  86.9950731  55.7308856  19.8853694  92.1974915  58.9216367  24.5141555
  91.7437242  58.0807276  24.5706745  91.5668881  59.5577765  24.8516335
  91.1407834  49.8508353  25.7442222  90.4030591  49.3385739  26.0752465
  91.3934608  49.4108734  24.9325499  90.6407854  60.7592863  25.4491373
  90.9330828  61.3197920  24.7303739  91.1506474  61.0521424  26.2044532
  91.2419462  42.6284605  26.3383992  91.5478338  41.7681968  26.0509907
  91.9672066  43.2202225  26.1382985  77.5343818  53.0315291  24.7265590
  77.3368217  52.4384652  24.0016656  76.9790482  52.7267501  25.4441528
  85.5140541  52.9238398  26.8460183  85.5689151  51.9712234  26.7702659
  84.7031743  53.0797837  27.3301481  86.6631735  56.8518521  18.0838466
  86.2251165  56.1354380  17.6244103  87.4042176  57.0794636  17.5223557
  83.4532901  51.5415457  24.6050562  82.6400767  51.8409628  25.0115754
  83.9491895  51.1471146  25.3225044  85.6041479  61.5373214  26.5384826
  85.5617658  61.7634061  25.6093358  86.5204178  61.3036589  26.6870627
  89.0507113  52.0057282  33.4365455  89.4056501  52.2328755  34.2959921
  89.6979244  52.3375659  32.8142711  94.7804850  55.1275718  24.1414784
  94.6422748  55.3177314  23.2135974  94.4241069  55.8895101  24.5982836
  82.9446976  49.1133813  30.2211796  83.5846355  48.9722572  29.5234760
  82.1124506  48.8268326  29.8450398  94.8074229  57.1952245  29.1526056
  95.2410736  57.1027534  30.0009110  95.5205810  57.1709745  28.5146072
  83.7207280  58.4136243  26.3346789  84.5147878  57.9186563  26.1329364
  83.0098972  57.8854106  25.9714495  88.5402124  60.7954339  30.6859157
  88.5939147  61.3645275  31.4536872  87.6716906  60.9656224  30.3213194
  80.0290043  52.5579325  22.4106542  79.0987631  52.4963781  22.6276504
  80.1247515  52.0355278  21.6143183  81.4200518  50.4971895  32.1683608
  82.0923571  50.2889257  31.5196257  80.5930304  50.2993981  31.7288840
  95.6689779  57.2375945  31.6858941  95.8625669  58.1421756  31.9318216
  95.5690397  56.7783364  32.5197526  87.3226090  47.1233836  34.1849269
  86.6754005  47.8223786  34.0913745  88.0927105  47.5569980  34.5525517
  90.7304888  57.3882688  37.2599822  90.5790394  57.1593240  36.3429906
  90.7209567  58.3453290  37.2731167  87.4990224  54.9614601  32.2446088
  88.4282284  55.1125760  32.0715056  87.0781254  55.0498622  31.3894735
  86.2978556  58.9865265  30.0144626  86.1589642  58.6184050  30.8870564
  85.5093152  59.5012905  29.8428584  86.8926708  64.0874362  21.3570163
  87.0678463  63.6162405  22.1715785  86.2059496  64.7140128  21.5851423
  87.8483771  58.3646868  27.4033464  87.5133604  58.3247638  28.2991114
  87.3487717  57.6991584  26.9303874  90.7842963  55.7102902  17.6770523
  90.1672133  54.9849731  17.5803576  90.3159451  56.4712263  17.3337598
  84.4510316  53.4834457  32.4169725  85.1609934  52.8427650  32.3756343
  84.4079624  53.7347352  33.3395905  92.4397094  60.4201811  35.3376304
  92.3809640  59.7361031  34.6706887  92.8416613  61.1620801  34.8856930
  83.1639250  50.4699675  34.2365364  82.6276607  50.0190414  34.8886960
  82.5755958  50.6045584  33.4935828  81.4587793  67.2363725  28.1310023
  81.6984391  67.8682249  28.8089041  80.6156990  66.8851765  28.4175382
  82.5741509  49.9288327  16.7991828  81.6970975  49.8077127  16.4354074
  83.0499262  49.1374405  16.5470716  92.4414502  58.3841395  33.5690284
  91.5541280  58.0467316  33.6916682  93.0113053  57.6524426  33.8059049
  85.9715655  63.0442847  30.5351527  85.8985826  63.8497818  31.0470831
  85.5293048  63.2434813  29.7099548  85.7605435  62.2814617  24.0454348
  84.9772956  62.8236297  24.1392573  86.4598180  62.7988597  24.4448589
  89.0702085  48.0909246  26.6888554  89.5670784  47.3379209  26.3689624
  88.2989066  48.1273563  26.1231763  96.9231842  53.7949612  28.3306845
  96.9121718  54.6774327  27.9600778  96.0549222  53.4421163  28.1361382
  88.4314338  62.9429681  32.6909685  89.1442311  63.5777146  32.6185587
  87.9404367  63.0393547  31.8749687  90.1531865  56.8480934  24.2626977
  89.2188144  56.9682396  24.0931681  90.3308534  55.9453400  23.9986987
  85.6537053  50.2326629  26.4160238  85.2834841  49.6797670  27.1041144
  86.1496146  49.6284763  25.8635238  93.5404417  52.6898253  24.7977011
  94.0064869  53.5226245  24.7237314  93.9911917  52.2243235  25.5022270
  83.4826252  60.6924124  33.5115256  84.1835712  61.3260607  33.6644650
  83.0121367  61.0338856  32.7510895  91.6080648  59.0342074  21.7963163
  91.8840492  58.9198669  22.7057037  90.7385147  58.6359559  21.7575336
  91.5121079  45.0578840  28.8367913  90.5984159  45.2883067  29.0050119
  91.9414181  45.1417284  29.6881945  91.2827538  53.2468732  31.3367807
  90.6298988  53.4944639  30.6820259  91.6607918  52.4332870  31.0030284
  88.2434712  63.2828425  25.4395977  88.4257106  62.4650081  25.9023729
  89.0667698  63.4996117  25.0020867  88.5776877  62.2096610  22.7011025
  89.1064644  61.6989065  22.0881187  88.8405097  61.8939140  23.5656558
  87.3315111  53.9888543  37.8233844  86.6555748  53.8882672  38.4936219
  88.1542745  53.8327757  38.2869841  79.0793970  60.2260480  30.4446359
  79.6647407  59.4804167  30.5774263  78.8818809  60.5364436  31.3283023
  81.9332625  63.2611727  25.4608801  81.2643001  63.7457855  24.9772841
  81.7945495  63.5080947  26.3752180  86.0737894  65.2955470  32.0591460
  86.6256202  65.4587092  32.8240545  86.4144087  65.8859908  31.3871484
  81.0502387  47.6430620  32.6613344  81.1143714  48.5045451  32.2490742
  80.9869507  47.0304622  31.9285703  90.9248768  60.1216728  37.9140114
  91.4688672  60.7346686  37.4195069  90.3435613  60.6796306  38.4307127
  77.3020202  51.5230182  22.2404733  77.5973643  50.6140860  22.1871787
  76.4008238  51.5017921  21.9185736  89.2106281  63.2437446  29.0455142
  89.0857421  62.4427186  28.5366087  89.8685372  63.7383639  28.5569112
  80.8314449  49.5986178  28.2232282  80.1101035  50.2122146  28.0839755
  81.6207705  50.1343943  28.1448928  91.2741190  61.0446466  30.6734692
  90.3271525  60.9251817  30.6013019  91.6223963  60.1568964  30.7560953
  83.6340763  46.9340605  34.4972934  84.1575165  47.1802901  35.2599243
  83.4153096  47.7660640  34.0776071  79.0308044  49.2044280  22.3644059
  78.7020750  48.3241658  22.1819164  79.3847415  49.1491948  23.2520448
  88.2787623  60.8399182  26.8739044  88.1312585  59.9115890  27.0546614
  89.1041116  60.8619273  26.3896119  82.1449867  49.4917249  22.7319536
  82.4845940  50.0203171  22.0098145  82.5921988  49.8297655  23.5078103
  91.8821745  61.6627741  27.9603917  92.8068292  61.4570602  27.8228368
  91.7137048  61.4144142  28.8693258  84.8393308  47.8754300  32.1822604
  84.4990128  47.0762113  32.5843284  84.1332314  48.1756011  31.6099437
  85.4909780  44.9603612  30.6349927  86.3135849  44.4864091  30.5128818
  85.7347843  45.7394096  31.1348614  84.1318014  47.9891871  20.9312829
  84.8526377  48.3673124  20.4276546  83.5083318  48.7080748  21.0347807
  88.2749137  48.6937020  21.8671161  88.4912752  49.5761658  21.5659989
  87.7943204  48.3023233  21.1376803  83.0148359  51.6522733  28.4441906
  82.8692939  51.9663036  29.3366187  82.5373562  52.2707633  27.8912805
  84.8744741  48.6425281  28.4922795  84.8606310  47.7466374  28.1555093
  85.5917170  48.6495945  29.1261082  86.7270872  49.0762621  30.5375923
  86.4688650  49.9979692  30.5360253  86.1955913  48.6793056  31.2276387
  91.6717061  62.1813408  23.3166008  91.8453938  61.6159831  22.5639861
  92.1645952  62.9814303  23.1345498  84.2781637  47.5239661  23.7610366
  84.3997549  46.5956308  23.9601253  83.9883680  47.5378347  22.8488681
  87.1472828  45.2094572  26.8977085  87.1694525  45.2733905  25.9429065
  87.5640887  44.3699080  27.0917592  97.5256452  54.9449831  24.9356308
  97.9687598  54.1957157  24.5375431  96.6482962  54.9359968  24.5530040
  92.6592233  61.4980173  20.4162907  93.3543138  62.1186866  20.6350221
  93.0015384  60.6475524  20.6915284  94.5583657  58.9479878  21.9450237
  95.0834981  59.2867151  21.2199557  94.4706009  58.0126894  21.7613372
  86.2203705  62.8613952  34.0740114  86.5290832  62.6163099  34.9462814
  87.0179187  63.0660590  33.5858984  86.2424317  65.0151862  26.3045491
  85.8029308  64.5228240  26.9978347  86.9932434  64.4724829  26.0637566
  78.7216656  61.2063403  26.3070119  79.5474676  60.9067174  25.9268762
  78.3710708  60.4371025  26.7559907  83.6898189  60.5589871  28.3767792
  83.0678199  59.8960576  28.0770020  84.3603056  60.5851003  27.6941440
  76.9225261  59.1249729  27.2659052  76.0857170  58.6971903  27.0843053
  76.8948907  59.3182172  28.2029843  94.2477563  59.5812782  37.2501435
  93.4573106  59.5636921  36.7105935  94.0110917  60.1201076  38.0050472
  94.3675438  56.4305248  34.5634164  94.4173443  56.2655256  35.5049687
  94.2589361  55.5632507  34.1732045  83.2511696  59.1093794  21.8526253
  83.3999817  59.7929258  21.1992925  84.0578140  59.0898884  22.3675708
  91.6579200  52.4136176  35.8793471  92.5589063  52.2742641  35.5877468
  91.7327175  52.5790631  36.8191648  85.9922005  49.7903031  34.7246657
  85.1225315  50.0836597  34.4529245  86.2281486  50.3743476  35.4453921
  95.8693634  58.8502190  34.8076185  95.5778443  59.2132170  35.6439646
  95.2565766  58.1369198  34.6289517  97.0689317  56.4155070  27.3278756
  97.9036208  56.8544874  27.4916316  97.2048446  55.9393723  26.5087001
  94.1180823  53.9734805  33.2756243  94.5934944  54.1662451  32.4675095
  93.1946388  54.0293990  33.0299627  81.0064329  55.1358972  22.8587322
  80.7610371  54.2321302  23.0567532  81.1760244  55.1376122  21.9166800
  88.6961039  46.0082648  32.2412077  89.2142983  46.7443675  31.9158566
  88.3416172  46.3146641  33.0758836  80.2759977  50.8687329  20.3573483
  79.5829222  50.9431684  19.7013519  80.0311729  50.1047673  20.8795000
  88.9473633  42.4282931  27.7612974  89.2275387  41.7606120  28.3873400
  89.7324240  42.6212026  27.2487638  86.7507102  61.6041925  19.3238000
  86.1781069  62.2232112  18.8708472  87.3239896  62.1541286  19.8577922
  92.8182492  50.8500565  31.5084549  93.7699915  50.9498662  31.5296773
  92.6485942  50.0578833  32.0182633  90.8396871  47.9356148  31.6943950
  90.2446803  48.2161161  30.9990439  90.5546568  48.4250049  32.4660691
  89.9704362  61.8879075  20.4546582  90.9035035  61.8224636  20.6579458
  89.8827574  62.7235342  19.9961115  92.5992378  61.2044945  17.4150530
  92.5206010  60.8704809  18.3086288  93.4202045  61.6966713  17.4142002
  95.2970569  54.0706684  30.6226849  95.2646890  53.1322685  30.8086532
  95.9071193  54.1490721  29.8892674  87.1353900  52.9402737  16.6654053
  88.0813005  52.8108945  16.7342471  86.7568145  52.2017399  17.1423481
  95.4465058  50.8617728  30.6685132  94.9304107  50.0776184  30.4815061
  96.3305006  50.5336444  30.8331651  93.1075785  44.6058743  26.6280944
  92.9100606  44.2973831  27.5124276  93.7175490  45.3320382  26.7578874
 101.1147119  55.1322691  29.7632885 101.8450508  54.8707979  30.3240589
 100.5054065  54.3951413  29.8034953  99.1962416  53.2730554  30.3607337
  98.4695580  53.1386519  29.7523828  98.7809703  53.5807382  31.1664055
  87.0192593  56.9920483  38.1254710  87.9395602  57.1699082  38.3194756
  86.9842176  56.0476529  37.9734409  85.3196817  50.8652714  16.6008938
  84.4128273  50.5685826  16.6771651  85.5972798  50.5682532  15.7343224
  76.2374758  52.1859077  27.0507984  75.9177542  51.3324385  26.7582358
  75.6908186  52.4007655  27.8065952  80.0154665  54.9021518  30.7677491
  80.2340675  55.8338626  30.7865525  80.4280439  54.5429492  31.5532295
  86.9358883  45.4089603  22.7553179  86.1259612  45.0636688  23.1308425
  87.6243300  45.0997147  23.3440791  88.8649431  44.4867650  24.3777476
  89.4180470  44.9063104  25.0367499  89.1019518  43.5603398  24.4200432
  84.0895602  47.7239649  16.7420917  84.9514766  48.0494547  17.0016734
  84.2745946  46.9371145  16.2293983  92.2428239  46.5968175  23.8856140
  91.6626908  47.2552979  23.5034192  91.9764171  45.7745520  23.4743558
  90.6931805  45.9973233  26.0877460  91.1931583  46.1089768  25.2791779
  91.3367413  45.6934286  26.7278269  78.0199760  55.7380242  26.8967121
  77.9970449  55.8367930  25.9449004  78.3300397  56.5845393  27.2184287
  80.6787138  57.7956397  31.0113735  81.6330392  57.7640340  30.9443667
  80.4799662  57.3347021  31.8263961  91.0253117  48.7568266  22.9412488
  90.1378972  49.0417916  22.7232683  91.4407106  48.5962029  22.0939765
  94.3767653  48.7814787  26.6566828  95.1528043  49.2711239  26.9291444
  93.6515787  49.2072841  27.1138697  96.8140211  49.4942406  27.7140768
  97.4084702  49.2538142  27.0034076  96.8866795  48.7749536  28.3414305
  79.0337367  63.3376017  28.0283933  78.8991835  62.5776418  27.4621931
  78.6169429  64.0616917  27.5612722  90.1696330  58.5212940  17.0360508
  90.8732180  58.7262943  17.6518164  89.4458979  59.0889702  17.3009592
  90.9994140  54.2722802  23.1562778  90.9429342  54.7291353  22.3170411
  91.5522483  53.5113486  22.9785621  94.8098946  50.0612534  23.9812898
  94.5535880  49.6609169  24.8121106  94.1851814  50.7756327  23.8563037
  99.1211284  52.8008607  26.4884189  98.5610842  52.8701796  27.2615751
  98.5154787  52.6249591  25.7683686  82.1906493  64.2345334  28.2402376
  82.0738877  65.1790766  28.1381066  81.3698939  63.9318895  28.6288175
  92.0783027  58.9595470  19.0858968  92.9128631  58.5276668  18.9036443
  91.9167370  58.7877483  20.0135863  91.7328920  55.4627583  20.4515308
  91.6777723  55.2971854  19.5103752  91.1074975  56.1703616  20.6077497
  89.0474827  57.7676495  39.7768870  89.9165986  57.9417147  39.4155505
  88.5681578  58.5870912  39.6544600  85.0425045  44.9635692  20.0300626
  85.0303715  45.9077532  20.1868897  85.9348467  44.7805837  19.7360087
  83.2161007  64.8873596  31.4558304  84.1188254  64.9197206  31.7724799
  82.9898377  63.9574047  31.4704640  84.9714609  63.6404582  28.1168383
  84.0210240  63.6406444  28.0032755  85.2747095  62.8937317  27.6004417
  88.8577165  41.5578469  24.2846563  88.0909560  41.0036955  24.4303245
  89.2687870  41.6300337  25.1460715 100.7067303  69.4765121  29.1814145
 101.3445713  69.3571868  28.4777485 100.5888145  70.4245965  29.2402097
  97.5157009  69.4292549  29.1175670  97.1775520  69.3133614  28.2296205
  98.3846777  69.0283714  29.0976676  93.3743825  71.2828025  25.1072561
  92.8108690  71.1917962  24.3388849  93.2596220  70.4627930  25.5875053
  97.9976792  70.5827401  35.0761875  97.9865433  70.1880199  34.2042379
  98.1597431  69.8493473  35.6695647  90.9208256  72.7779217  27.9456781
  91.7129548  72.4370041  27.5303081  91.1604907  72.8874192  28.8658935
  98.9543383  74.9498993  20.4187026  98.3031363  75.5353073  20.0321039
  99.7487746  75.4805188  20.4782063  92.8799010  72.0388130  20.8174160
  93.6529886  71.4917117  20.6787036  93.2324409  72.9032379  21.0288621
  94.7184053  73.3664512  34.0241059  94.4273919  74.2710143  33.9087726
  95.3541037  73.4081040  34.7385129  95.6440260  70.7441361  30.6142419
  96.2403832  70.5197383  29.8999382  95.7015231  70.0026106  31.2167867
  95.2165288  68.1980796  18.4492610  95.4690809  67.6762317  17.6876073
  94.2789847  68.0346942  18.5519294 100.2608571  67.2016575  26.2567353
 101.0471660  66.7835998  25.9057770 100.5247275  68.1062667  26.4249002
 100.4318648  72.6389425  20.9556010  99.7964481  72.7124051  21.6676915
 100.1016055  73.2283024  20.2775089 105.6616998  67.1391808  27.1600332
 106.3942170  66.5691025  27.3938161 104.9056354  66.7513408  27.6006837
  94.9361577  70.1008902  20.6516985  94.8197835  69.4253806  21.3198069
  95.0463837  69.6141276  19.8349138  97.2793118  69.5619049  24.3563674
  96.9151325  69.0349670  25.0676596  98.1360234  69.1717518  24.1830160
 103.1842419  60.8513382  31.6194940 102.8525743  61.7208793  31.3956155
 102.5888032  60.5349666  32.2988971  96.9198605  64.5908949  19.3525023
  97.0873007  65.4589185  19.7195494  96.7295774  64.7536231  18.4286312
  99.6773938  73.0525928  31.0190853  99.3774661  73.9550967  30.9106660
  99.3324998  72.7858111  31.8712006  93.1286420  69.5039725  27.0527557
  92.2036916  69.3715939  27.2605249  93.3770833  70.2833944  27.5497500
 103.0771082  65.5708468  28.6988290 102.1687959  65.5023876  28.4047051
 103.0258678  66.0480413  29.5270116  96.8987826  67.0466606  20.3371689
  96.7787451  67.4923657  21.1757170  96.2040414  67.3951924  19.7785228
  90.4895231  69.1472998  27.8871347  90.6187612  69.4007477  28.8010758
  89.8092682  69.7400706  27.5676002  94.6594718  79.8170248  23.9861821
  94.5818748  80.7678073  24.0650301  94.0556361  79.4716121  24.6436747
  97.1511948  66.9898114  36.6423188  96.3745282  67.5492034  36.6326052
  97.7902511  67.4754897  37.1638058 104.9432728  63.7724906  30.4766164
 104.3007108  64.0657440  29.8305959 104.4387657  63.6577827  31.2819361
 102.5972892  67.5188080  21.1652024 103.5090748  67.7515466  20.9899721
 102.0882539  68.1025124  20.6027102  95.4058320  69.7983567  36.2041155
  96.1473004  70.3368611  35.9275978  94.6995305  70.4249856  36.3612706
 100.8813660  71.9412707  34.8013316 101.2897016  71.4995118  34.0567948
 100.1590921  71.3665335  35.0547509  97.2344730  66.8785314  32.1746873
  98.0805925  67.3024728  32.3181522  97.1743367  66.2218939  32.8685436
 101.2042474  72.5013898  28.5565605 100.5751337  72.6659612  27.8541673
 100.8168136  72.9155508  29.3276569 105.0831706  73.4368336  25.9109969
 104.3982744  73.8167237  25.3607002 105.1675555  74.0463663  26.6441917
 100.3844175  64.5389683  33.8328047 100.1405107  65.2931743  33.2962322
 100.6604105  64.9175030  34.6675294 102.3382638  71.0828295  32.5105312
 102.5499533  71.7260055  31.8339693 102.2912386  70.2490612  32.0427242
  99.9408867  63.6946116  29.4141884  99.0793346  63.9927369  29.7058622
  99.9671301  63.9116515  28.4822917  96.7570436  72.2388306  25.8215690
  97.2208782  72.5176009  25.0320313  96.4927234  71.3371751  25.6388781
  93.6494517  71.7859788  28.7595453  94.2195874  72.2147056  28.1212938
  94.2402629  71.5042372  29.4579639  95.6939322  68.3611459  22.6305255
  96.3963365  68.8132502  23.0979182  95.3619951  67.7195277  23.2585148
  94.1419684  66.9523215  37.0056465  93.5118344  67.6339496  37.2391861
  94.0355772  66.8406297  36.0609603  89.4364656  66.6195011  27.9322389
  88.6463710  66.8752540  27.4562499  89.9275903  67.4343349  28.0374429
 103.4528466  73.9600250  30.6827670 104.2745909  73.5580438  30.4010351
 103.4490869  73.8568485  31.6343785  91.3879401  66.9839590  24.8905865
  90.5910565  67.0958285  25.4089361  91.1604994  67.3226243  24.0246756
  97.2185069  73.5084294  32.8388380  97.2829502  73.9704701  33.6746552
  96.5095993  72.8781659  32.9670690  87.7202359  66.8725502  30.3637380
  87.9710398  67.7572512  30.6294956  88.2561907  66.6930103  29.5912471
  96.9333087  75.1752401  22.7067360  96.7978762  76.0203937  23.1352208
  97.4742899  75.3771679  21.9433294  93.4200426  61.2543981  39.3681716
  93.0267372  60.7010180  40.0429360  94.2366567  61.5654559  39.7588233
  90.3862484  72.6927839  23.2795286  90.8987005  73.4871089  23.4300850
  91.0385197  71.9954130  23.2128887  92.1957369  75.8093595  25.3618039
  92.3723997  76.7311560  25.1739023  92.9914202  75.4952015  25.7912418
  96.3368387  62.6701860  36.9601972  97.0778101  63.2709013  36.8806435
  96.5686310  61.9279498  36.4020015  91.4809725  67.8558227  35.2380202
  91.3663241  66.9543485  35.5387301  90.6254243  68.1021924  34.8865018
  98.5601563  75.7975968  36.8367703  98.1165417  75.0112346  36.5188607
  99.2218777  75.9855118  36.1711593  93.3188684  77.3271769  31.3628381
  93.8696109  77.1988833  30.5905375  92.4800160  77.6266658  31.0123274
 100.6582801  76.0778768  34.8649104 100.6401277  76.8987649  34.3729373
 101.5802721  75.9532843  35.0899245  97.1155855  73.5922897  35.7072612
  97.6484192  72.8311185  35.4771920  96.5869936  73.2996549  36.4496767
 100.2825550  58.6982963  31.2366254  99.9389820  59.5884605  31.1605364
 100.6504513  58.5084621  30.3735839  88.3511401  71.0216494  24.0554856
  89.1886623  71.4313502  23.8388564  88.5289669  70.0815936  24.0255050
 100.2475833  68.6891574  19.7438689  99.7322457  69.4596179  19.9827076
  99.9753142  68.0156710  20.3671750  97.8322944  63.5341275  24.8023927
  96.9764540  63.1448125  24.6229566  98.2449896  63.6133236  23.9423713
  99.3622091  61.0687618  29.2015487  98.8586886  61.0317753  28.3883292
  99.6552698  61.9780361  29.2612144  95.6064977  61.1526348  28.2081669
  96.4717973  60.9569157  27.8487558  95.6742486  60.9236700  29.1351026
 105.2210107  71.4423929  21.6791863 104.4439550  71.1035088  21.2347025
 105.9001588  71.4476552  21.0046828 100.0362136  66.5618666  21.5698470
  99.7312272  66.8764815  22.4208613 100.9892578  66.6400086  21.6125803
  98.4808568  72.7208890  23.2191424  97.9529930  71.9861649  22.9064662
  97.9796071  73.4983566  22.9731393 103.4601414  70.9157910  28.3358470
 102.8025089  71.6057171  28.4238599 104.2641813  71.3054342  28.6792457
  93.2127296  63.3828556  25.5798036  93.7871048  63.1603737  24.8471229
  93.7998278  63.4517250  26.3326637 102.2706873  69.2702283  26.3862412
 102.7838755  69.9032275  26.8884122 102.9208097  68.6703478  26.0205772
  93.5396883  65.4133017  19.5993921  92.7034195  65.7507703  19.9203196
  93.4001652  65.2781997  18.6621058  95.5149963  60.2569805  24.3073105
  94.8614376  59.9418822  23.6829720  95.4730438  59.6345545  25.0332928
  96.6261168  70.5389100  16.2226397  95.7188230  70.3078353  16.4217546
  97.1232200  69.7426719  16.4100379  98.7487704  66.7451738  28.6320753
  97.8310265  66.9666685  28.4742441  99.1647847  66.8198049  27.7732460
  99.5322752  68.1443154  23.7623433 100.2794570  68.6564551  23.4530555
  99.8014341  67.8227207  24.6227827  97.8049402  70.6401695  20.7450387
  96.8960621  70.3560728  20.8422857  97.8344486  71.0600773  19.8853694
 103.0368669  74.2508284  24.5141555 102.5830996  73.4099194  24.5706745
 102.4062636  74.8869683  24.8516335 101.9801589  65.1800270  25.7442222
 101.2424345  64.6677656  26.0752465 102.2328362  64.7400652  24.9325499
 101.4801608  76.0884781  25.4491373 101.7724583  76.6489838  24.7303739
 101.9900229  76.3813342  26.2044532 102.0813216  57.9576522  26.3383992
 102.3872093  57.0973886  26.0509907 102.8065821  58.5494142  26.1382985
  88.3737572  68.3607209  24.7265590  88.1761972  67.7676570  24.0016656
  87.8184236  68.0559419  25.4441528  96.3534296  68.2530315  26.8460183
  96.4082906  67.3004152  26.7702659  95.5425498  68.4089754  27.3301481
  97.5025490  72.1810438  18.0838466  97.0644919  71.4646297  17.6244103
  98.2435930  72.4086553  17.5223557  94.2926656  66.8707375  24.6050562
  93.4794521  67.1701546  25.0115754  94.7885650  66.4763064  25.3225044
  96.4435234  76.8665132  26.5384826  96.4011412  77.0925978  25.6093358
  97.3597932  76.6328507  26.6870627  99.8900867  67.3349200  33.4365455
 100.2450255  67.5620673  34.2959921 100.5372999  67.6667576  32.8142711
 105.6198604  70.4567635  24.1414784 105.4816503  70.6469231  23.2135974
 105.2634823  71.2187018  24.5982836  93.7840730  64.4425731  30.2211796
  94.4240110  64.3014490  29.5234760  92.9518261  64.1560244  29.8450398
 105.6467984  72.5244162  29.1526056 106.0804491  72.4319452  30.0009110
 106.3599565  72.5001663  28.5146072  94.5601034  73.7428161  26.3346789
  95.3541633  73.2478481  26.1329364  93.8492727  73.2146024  25.9714495
  99.3795879  76.1246257  30.6859157  99.4332901  76.6937193  31.4536872
  98.5110660  76.2948142  30.3213194  90.8683798  67.8871243  22.4106542
  89.9381386  67.8255698  22.6276504  90.9641270  67.3647195  21.6143183
  90.7869347  64.4126056  24.9984783  91.0476164  65.3271389  24.8893944
  91.6086519  63.9450498  25.1481396  92.2594272  65.8263813  32.1683608
  92.9317326  65.6181175  31.5196257  91.4324059  65.6285899  31.7288840
 106.5083533  72.5667863  31.6858941 106.7019424  73.4713674  31.9318216
 106.4084152  72.1075282  32.5197526  98.1619844  62.4525754  34.1849269
  97.5147759  63.1515703  34.0913745  98.9320860  62.8861898  34.5525517
 101.5698642  72.7174606  37.2599822 101.4184149  72.4885158  36.3429906
 101.5603322  73.6745207  37.2731167  98.3383979  70.2906519  32.2446088
  99.2676039  70.4417678  32.0715056  97.9175009  70.3790539  31.3894735
  97.1372310  74.3157183  30.0144626  96.9983396  73.9475967  30.8870564
  96.3486907  74.8304822  29.8428584  97.7320462  79.4166279  21.3570163
  97.9072218  78.9454323  22.1715785  97.0453250  80.0432046  21.5851423
  98.6877525  73.6938786  27.4033464  98.3527358  73.6539556  28.2991114
  98.1881471  73.0283502  26.9303874  92.6621769  69.1006416  32.9286045
  92.5241567  68.3686655  33.5297584  93.5726693  69.0115316  32.6470233
  95.2904070  68.8126375  32.4169725  96.0003689  68.1719567  32.3756343
  95.2473378  69.0639270  33.3395905 103.2790849  75.7493728  35.3376304
 103.2203395  75.0652948  34.6706887 103.6810367  76.4912718  34.8856930
  94.0033004  65.7991593  34.2365364  93.4670361  65.3482331  34.8886960
  93.4149713  65.9337502  33.4935828  92.2981548  82.5655642  28.1310023
  92.5378146  83.1974166  28.8089041  91.4550744  82.2143682  28.4175382
  93.4135263  65.2580244  16.7991828  92.5364729  65.1369045  16.4354074
  93.8893016  64.4666323  16.5470716 103.2808256  73.7133312  33.5690284
 102.3935035  73.3759234  33.6916682 103.8506807  72.9816344  33.8059049
  84.9337403  70.0457404  26.8933335  85.6208443  69.7319134  26.3054350
  84.7785532  70.9498769  26.6200586  89.7372125  64.9347601  31.3218359
  89.6530314  64.3273270  30.5868769  88.9154832  65.4256619  31.3227855
  96.8109409  78.3734765  30.5351527  96.7379581  79.1789736  31.0470831
  96.3686803  78.5726730  29.7099548  96.5999189  77.6106535  24.0454348
  95.8166711  78.1528215  24.1392573  97.2991934  78.1280514  24.4448589
  99.9095839  63.4201164  26.6888554 100.4064539  62.6671126  26.3689624
  99.1382821  63.4565481  26.1231763 107.7625597  69.1241530  28.3306845
 107.7515473  70.0066245  27.9600778 106.8942976  68.7713081  28.1361382
  99.2708093  78.2721599  32.6909685  99.9836065  78.9069064  32.6185587
  98.7798122  78.3685465  31.8749687 100.9925620  72.1772851  24.2626977
 100.0581899  72.2974314  24.0931681 101.1702288  71.2745318  23.9986987
  96.4930808  65.5618547  26.4160238  96.1228595  65.0089588  27.1041144
  96.9889900  64.9576681  25.8635238 104.3798171  68.0190171  24.7977011
 104.8458623  68.8518162  24.7237314 104.8305672  67.5535152  25.5022270
  94.3220006  76.0216042  33.5115256  95.0229466  76.6552525  33.6644650
  93.8515121  76.3630774  32.7510895 102.4474402  74.3633992  21.7963163
 102.7234246  74.2490587  22.7057037 101.5778901  73.9651477  21.7575336
 102.3514834  60.3870758  28.8367913 101.4377914  60.6174984  29.0050119
 102.7807935  60.4709202  29.6881945 102.1221292  68.5760650  31.3367807
 101.4692743  68.8236557  30.6820259 102.5001672  67.7624788  31.0030284
  99.0828466  78.6120343  25.4395977  99.2650861  77.7941999  25.9023729
  99.9061452  78.8288035  25.0020867  99.4170632  77.5388528  22.7011025
  99.9458398  77.0280982  22.0881187  99.6798851  77.2231058  23.5656558
  98.1708865  69.3180461  37.8233844  97.4949503  69.2174590  38.4936219
  98.9936499  69.1619674  38.2869841  89.9187725  75.5552397  30.4446359
  90.5041161  74.8096085  30.5774263  89.7212563  75.8656354  31.3283023
  92.7726380  78.5903645  25.4608801  92.1036755  79.0749772  24.9772841
  92.6339249  78.8372865  26.3752180  84.5105379  68.1257997  29.1650802
  84.5489479  67.5921588  29.9587920  84.0045672  67.5993203  28.5461779
  96.9131648  80.6247388  32.0591460  97.4649956  80.7879010  32.8240545
  97.2537842  81.2151826  31.3871484  91.8896142  62.9722538  32.6613344
  91.9537468  63.8337369  32.2490742  91.8263262  62.3596540  31.9285703
  91.3648414  65.0445670  36.3086379  91.9920453  64.6622748  36.9223903
  90.5076333  64.8259872  36.6742071 101.7642523  75.4508646  37.9140114
 102.3082427  76.0638604  37.4195069 101.1829368  76.0088224  38.4307127
  88.1413957  66.8522100  22.2404733  88.4367398  65.9432778  22.1871787
  87.2401993  66.8309839  21.9185736 100.0500036  78.5729364  29.0455142
  99.9251175  77.7719103  28.5366087 100.7079127  79.0675557  28.5569112
  91.6708204  64.9278096  28.2232282  90.9494790  65.5414064  28.0839755
  92.4601460  65.4635861  28.1448928 102.1134944  76.3738384  30.6734692
 101.1665280  76.2543735  30.6013019 102.4617717  75.4860882  30.7560953
  94.4734517  62.2632523  34.4972934  94.9968919  62.5094819  35.2599243
  94.2546851  63.0952557  34.0776071  89.8701798  64.5336197  22.3644059
  89.5414505  63.6533576  22.1819164  90.2241169  64.4783866  23.2520448
  99.1181377  76.1691100  26.8739044  98.9706340  75.2407807  27.0546614
  99.9434871  76.1911191  26.3896119  92.9843622  64.8209167  22.7319536
  93.3239694  65.3495088  22.0098145  93.4315742  65.1589573  23.5078103
 102.7215499  76.9919659  27.9603917 103.6462047  76.7862520  27.8228368
 102.5530803  76.7436060  28.8693258  95.6787062  63.2046218  32.1822604
  95.3383883  62.4054031  32.5843284  94.9726069  63.5047929  31.6099437
  96.3303534  60.2895530  30.6349927  97.1529604  59.8156008  30.5128818
  96.5741598  61.0686014  31.1348614  94.9711769  63.3183789  20.9312829
  95.6920131  63.6965041  20.4276546  94.3477073  64.0372665  21.0347807
  99.1142892  64.0228938  21.8671161  99.3306506  64.9053575  21.5659989
  98.6336959  63.6315151  21.1376803  93.8542113  66.9814651  28.4441906
  93.7086694  67.2954954  29.3366187  93.3767317  67.5999551  27.8912805
  95.7138496  63.9717199  28.4922795  95.7000065  63.0758292  28.1555093
  96.4310924  63.9787863  29.1261082  97.5664627  64.4054539  30.5375923
  97.3082404  65.3271610  30.5360253  97.0349667  64.0084974  31.2276387
 102.5110815  77.5105326  23.3166008 102.6847693  76.9451749  22.5639861
 103.0039707  78.3106221  23.1345498  88.3287775  69.5219995  31.3829567
  87.7841243  70.2979803  31.5149841  89.2067125  69.8690800  31.2248689
  95.1175392  62.8531579  23.7610366  95.2391303  61.9248225  23.9601253
  94.8277434  62.8670265  22.8488681  97.9866582  60.5386490  26.8977085
  98.0088279  60.6025823  25.9429065  98.4034641  59.6990998  27.0917592
  89.1153797  68.6489891  34.2759724  88.3735533  68.7972527  34.8624354
  88.7946541  68.9098157  33.4126473 105.3977411  74.2771796  21.9450237
 105.9228735  74.6159069  21.2199557 105.3099764  73.3418811  21.7613372
  97.0597460  78.1905870  34.0740114  97.3684586  77.9455016  34.9462814
  97.8572942  78.3952508  33.5858984  97.0818072  80.3443779  26.3045491
  96.6423062  79.8520158  26.9978347  97.8326189  79.8016747  26.0637566
  89.5610411  76.5355320  26.3070119  90.3868431  76.2359092  25.9268762
  89.2104463  75.7662943  26.7559907  94.5291944  75.8881788  28.3767792
  93.9071953  75.2252493  28.0770020  95.1996811  75.9142920  27.6941440
  87.7619016  74.4541647  27.2659052  86.9250924  74.0263821  27.0843053
  87.7342661  74.6474090  28.2029843  94.6016471  64.3663576  37.9700298
  94.6504627  65.2425699  37.5878068  95.1438986  63.8240969  37.3971941
 105.0871317  74.9104700  37.2501435 104.2966861  74.8928839  36.7105935
 104.8504672  75.4492993  38.0050472 105.2069192  71.7597166  34.5634164
 105.2567197  71.5947174  35.5049687 105.0983115  70.8924425  34.1732045
  94.0905451  74.4385712  21.8526253  94.2393571  75.1221176  21.1992925
  94.8971894  74.4190802  22.3675708 102.4972955  67.7428094  35.8793471
 103.3982817  67.6034559  35.5877468 102.5720929  67.9082549  36.8191648
  96.8315760  65.1194949  34.7246657  95.9619069  65.4128515  34.4529245
  97.0675240  65.7035394  35.4453921 106.7087389  74.1794108  34.8076185
 106.4172197  74.5424088  35.6439646 106.0959520  73.4661116  34.6289517
 104.9574577  69.3026722  33.2756243 105.4328699  69.4954369  32.4675095
 104.0340143  69.3585908  33.0299627  91.8458084  70.4650889  22.8587322
  91.6004126  69.5613219  23.0567532  92.0153998  70.4668040  21.9166800
  99.5354794  61.3374566  32.2412077 100.0536738  62.0735593  31.9158566
  99.1809926  61.6438559  33.0758836  91.1153731  66.1979247  20.3573483
  90.4222976  66.2723602  19.7013519  90.8705483  65.4339591  20.8795000
  99.7867388  57.7574848  27.7612974 100.0669142  57.0898037  28.3873400
 100.5717995  57.9503944  27.2487638 103.6576246  66.1792482  31.5084549
 104.6093669  66.2790580  31.5296773 103.4879697  65.3870751  32.0182633
 101.6790626  63.2648066  31.6943950 101.0840558  63.5453078  30.9990439
 101.3940322  63.7541966  32.4660691 106.1364324  69.3998602  30.6226849
 106.1040644  68.4614603  30.8086532 106.7464948  69.4782639  29.8892674
  97.9747655  68.2694655  16.6654053  98.9206760  68.1400863  16.7342471
  97.5961900  67.5309317  17.1423481 106.2858812  66.1909645  30.6685132
 105.7697861  65.4068102  30.4815061 107.1698761  65.8628362  30.8331651
 103.9469539  59.9350661  26.6280944 103.7494361  59.6265749  27.5124276
 104.5569245  60.6612300  26.7578874  97.8586347  72.3212401  38.1254710
  98.7789357  72.4991000  38.3194756  97.8235930  71.3768446  37.9734409
  96.1590572  66.1944631  16.6008938  95.2522027  65.8977744  16.6771651
  96.4366553  65.8974449  15.7343224  87.0768512  67.5150995  27.0507984
  86.7571297  66.6616303  26.7582358  86.5301941  67.7299573  27.8065952
  90.8548420  70.2313436  30.7677491  91.0734430  71.1630544  30.7865525
  91.2674194  69.8721410  31.5532295  97.7752638  60.7381521  22.7553179
  96.9653366  60.3928606  23.1308425  98.4637055  60.4289065  23.3440791
  99.7043186  59.8159568  24.3777476 100.2574225  60.2355021  25.0367499
  99.9413272  58.8895316  24.4200432  95.7276285  65.8046642  40.1580240
  95.6273012  66.7540998  40.0892331  95.5097827  65.4764880  39.2856310
  94.9289357  63.0531567  16.7420917  95.7908521  63.3786465  17.0016734
  95.1139701  62.2663062  16.2293983  86.9456772  71.1353906  29.0201106
  86.2520244  70.7207859  28.5071060  87.6929763  71.1774443  28.4234525
 103.0821993  61.9260093  23.8856140 102.5020662  62.5844897  23.5034192
 102.8157926  61.1037438  23.4743558 101.5325559  61.3265151  26.0877460
 102.0325338  61.4381685  25.2791779 102.1761167  61.0226204  26.7278269
  95.5907555  69.2343780  38.9745301  95.1074637  70.0344140  39.1809190
  95.6768494  69.2451725  38.0212745  88.8593515  71.0672160  26.8967121
  88.8364203  71.1659847  25.9449004  89.1694151  71.9137311  27.2184287
  91.5180893  73.1248315  31.0113735  92.4724146  73.0932257  30.9443667
  91.3193416  72.6638939  31.8263961  92.1080275  71.6949431  33.5784533
  92.9273164  72.1893510  33.6019370  92.3817083  70.7781399  33.5502100
 101.8646871  64.0860183  22.9412488 100.9772726  64.3709834  22.7232683
 102.2800860  63.9253947  22.0939765 105.2161407  64.1106704  26.6566828
 105.9921797  64.6003157  26.9291444 104.4909541  64.5364759  27.1138697
 107.6533966  64.8234324  27.7140768 108.2478457  64.5830060  27.0034076
 107.7260550  64.1041454  28.3414305  89.8731122  78.6667935  28.0283933
  89.7385589  77.9068335  27.4621931  89.4563184  79.3908834  27.5612722
 101.8387895  69.6014719  23.1562778 101.7823096  70.0583271  22.3170411
 102.3916237  68.8405404  22.9785621 105.6492701  65.3904451  23.9812898
 105.3929635  64.9901087  24.8121106 105.0245569  66.1048245  23.8563037
  93.0300247  79.5637252  28.2402376  92.9132632  80.5082684  28.1381066
  92.2092694  79.2610813  28.6288175 102.5722674  70.7919501  20.4515308
 102.5171478  70.6263772  19.5103752 101.9468729  71.4995533  20.6077497
  87.3615189  66.0287565  34.2776730  88.0074053  65.5186519  34.7663955
  87.1532340  66.7656247  34.8520155  99.8868581  73.0968412  39.7768870
 100.7559741  73.2709065  39.4155505  99.4075333  73.9162829  39.6544600
  95.8818800  60.2927610  20.0300626  95.8697469  61.2369450  20.1868897
  96.7742221  60.1097755  19.7360087  94.0554762  80.2165513  31.4558304
  94.9582008  80.2489124  31.7724799  93.8292132  79.2865964  31.4704640
  95.8108364  78.9696500  28.1168383  94.8603995  78.9698362  28.0032755
  96.1140850  78.2229235  27.6004417  99.6970919  56.8870386  24.2846563
  98.9303315  56.3328873  24.4303245 100.1081624  56.9592255  25.1460715
  91.7012680  63.1755182  38.3751744  92.5644142  62.8191987  38.5855069
  91.1278091  62.8369077  39.0627148 101.7602011  88.1071135  27.9456781
 102.5523303  87.7661959  27.5303081 101.9998661  88.2166110  28.8658935
 105.5577807  88.6956430  34.0241059 105.2667673  89.6002061  33.9087726
 106.1934792  88.7372958  34.7385129 106.4834014  86.0733279  30.6142419
 107.0797587  85.8489301  29.8999382 106.5408986  85.3318024  31.2167867
 103.9680174  84.8331642  27.0527557 103.0430671  84.7007856  27.2605249
 104.2164587  85.6125862  27.5497500 101.3288985  84.4764916  27.8871347
 101.4581366  84.7299395  28.8010758 100.6486436  85.0692624  27.5676002
 106.2452074  85.1275485  36.2041155 106.9866759  85.6660529  35.9275978
 105.5389060  85.7541773  36.3612706 104.9813438  82.2815133  37.0056465
 104.3512099  82.9631414  37.2391861 104.8749526  82.1698214  36.0609603
 100.2758411  81.9486929  27.9322389  99.4857465  82.2044457  27.4562499
 100.7669658  82.7635267  28.0374429 108.0578824  88.8376211  32.8388380
 108.1223256  89.2996619  33.6746552 107.3489747  88.2073576  32.9670690
  98.5596114  82.2017419  30.3637380  98.8104152  83.0864429  30.6294956
  99.0955662  82.0222021  29.5912471 104.2594181  76.5835899  39.3681716
 103.8661126  76.0302097  40.0429360 105.0760321  76.8946477  39.7588233
 107.1762142  77.9993778  36.9601972 107.9171855  78.6000931  36.8806435
 107.4080065  77.2571416  36.4020015 102.3203480  83.1850145  35.2380202
 102.2056995  82.2835402  35.5387301 101.4647998  83.4313842  34.8865018
 106.4458731  76.4818266  28.2081669 107.3111728  76.2861074  27.8487558
 106.5136240  76.2528617  29.1351026 104.0521050  78.7120474  25.5798036
 104.6264802  78.4895655  24.8471229 104.6392033  78.7809168  26.3326637
 106.3543718  75.5861722  24.3073105 105.7008130  75.2710740  23.6829720
 106.3124192  74.9637463  25.0332928  99.2131327  83.6899127  24.7265590
  99.0155726  83.0968487  24.0016656  98.6577991  83.3851337  25.4441528
 107.1928050  83.5822233  26.8460183 107.2476660  82.6296069  26.7702659
 106.3819252  83.7381672  27.3301481 104.6234485  79.7717648  30.2211796
 105.2633864  79.6306407  29.5234760 103.7912015  79.4852162  29.8450398
 101.6263101  79.7417973  24.9984783 101.8869919  80.6563306  24.8893944
 102.4480274  79.2742416  25.1481396 103.0988027  81.1555730  32.1683608
 103.7711080  80.9473093  31.5196257 102.2717813  80.9577816  31.7288840
 103.5015524  84.4298333  32.9286045 103.3635322  83.6978572  33.5297584
 104.4120447  84.3407233  32.6470233 106.1297825  84.1418293  32.4169725
 106.8397443  83.5011485  32.3756343 106.0867133  84.3931188  33.3395905
 104.8426759  81.1283511  34.2365364 104.3064116  80.6774249  34.8886960
 104.2543467  81.2629419  33.4935828  95.7731158  85.3749322  26.8933335
  96.4602197  85.0611052  26.3054350  95.6179286  86.2790686  26.6200586
 100.5765880  80.2639518  31.3218359 100.4924069  79.6565188  30.5868769
  99.7548586  80.7548537  31.3227855 107.3324562  80.8910465  26.4160238
 106.9622350  80.3381505  27.1041144 107.8283655  80.2868598  25.8635238
 105.1613761  91.3507960  33.5115256 105.8623220  91.9844443  33.6644650
 104.6908876  91.6922691  32.7510895 100.7581479  90.8844315  30.4446359
 101.3434916  90.1388003  30.5774263 100.5606318  91.1948272  31.3283023
  95.3499134  83.4549915  29.1650802  95.3883233  82.9213506  29.9587920
  94.8439427  82.9285121  28.5461779 102.7289896  78.3014456  32.6613344
 102.7931223  79.1629286  32.2490742 102.6657016  77.6888457  31.9285703
 102.2042169  80.3737588  36.3086379 102.8314207  79.9914665  36.9223903
 101.3470087  80.1551790  36.6742071 102.5101958  80.2570014  28.2232282
 101.7888544  80.8705982  28.0839755 103.2995214  80.7927779  28.1448928
 105.3128272  77.5924440  34.4972934 105.8362674  77.8386737  35.2599243
 105.0940605  78.4244475  34.0776071 100.7095553  79.8628115  22.3644059
 100.3808259  78.9825494  22.1819164 101.0634924  79.8075784  23.2520448
 106.5180817  78.5338135  32.1822604 106.1777637  77.7345948  32.5843284
 105.8119823  78.8339846  31.6099437 107.1697289  75.6187448  30.6349927
 107.9923358  75.1447926  30.5128818 107.4135352  76.3977932  31.1348614
 104.6935868  82.3106568  28.4441906 104.5480448  82.6246872  29.3366187
 104.2161071  82.9291469  27.8912805 106.5532250  79.3009116  28.4922795
 106.5393819  78.4050210  28.1555093 107.2704679  79.3079780  29.1261082
  99.1681530  84.8511913  31.3829567  98.6234998  85.6271721  31.5149841
 100.0460880  85.1982717  31.2248689  99.9547552  83.9781809  34.2759724
  99.2129288  84.1264445  34.8624354  99.6340296  84.2390075  33.4126473
  98.6012770  89.7833564  27.2659052  97.7644679  89.3555739  27.0843053
  98.5736416  89.9766008  28.2029843 105.4410226  79.6955494  37.9700298
 105.4898381  80.5717617  37.5878068 105.9832740  79.1532887  37.3971941
 107.6709514  80.4486867  34.7246657 106.8012824  80.7420433  34.4529245
 107.9068995  81.0327312  35.4453921  97.9162267  82.8442912  27.0507984
  97.5965051  81.9908221  26.7582358  97.3695695  83.0591491  27.8065952
 101.6942174  85.5605353  30.7677491 101.9128184  86.4922461  30.7865525
 102.1067948  85.2013328  31.5532295 106.5670040  81.1338559  40.1580240
 106.4666767  82.0832916  40.0892331 106.3491582  80.8056798  39.2856310
  97.7850527  86.4645824  29.0201106  97.0913998  86.0499777  28.5071060
  98.5323518  86.5066360  28.4234525 106.4301310  84.5635698  38.9745301
 105.9468391  85.3636058  39.1809190 106.5162249  84.5743643  38.0212745
  99.6987269  86.3964078  26.8967121  99.6757957  86.4951765  25.9449004
 100.0087906  87.2429229  27.2184287 102.3574647  88.4540233  31.0113735
 103.3117901  88.4224175  30.9443667 102.1587171  87.9930856  31.8263961
 102.9474029  87.0241349  33.5784533 103.7666918  87.5185427  33.6019370
 103.2210837  86.1073317  33.5502100  98.2008944  81.3579483  34.2776730
  98.8467807  80.8478437  34.7663955  97.9926095  82.0948164  34.8520155
 102.5406435  78.5047100  38.3751744 103.4037896  78.1483905  38.5855069
 101.9671845  78.1660995  39.0627148  62.2002791   4.3850882  20.7486366
  61.9092657   5.2896513  20.6333032  62.8359775   4.4267410  21.4630436
  63.1258998   1.7627730  17.3387726  63.7222570   1.5383753  16.6244689
  63.1833969   1.0212476  17.9413173  67.1592676   4.0712297  17.7436160
  66.8593399   4.9737336  17.6351967  66.8143735   3.8044481  18.5957313
  62.1413456  10.8356618  10.7107127  62.0637485  11.7864443  10.7895608
  61.5375099  10.4902490  11.3682054  62.8877058   0.8169937  22.9286461
  63.6291742   1.3554981  22.6521285  62.1814043   1.4436225  23.0858013
  68.3632397   2.9599077  21.5258623  68.7715753   2.5181488  20.7813255
  67.6409659   2.3851705  21.7792816  68.6861212   3.5200268  15.2810912
  68.0570074   3.6845982  14.5786979  68.2986874   3.9341877  16.0521876
  72.5650444   4.4554706  12.6355275  71.8801482   4.8353607  12.0852309
  72.6494293   5.0650032  13.3687223  61.1313255   2.8046157  15.4840760
  61.7014612   3.2333426  14.8458244  61.7221367   2.5228742  16.1824946
  70.9347203   4.9786620  17.4072976  71.7564647   4.5766807  17.1255658
  70.9309606   4.8754854  18.3589092  64.7003807   4.5270663  19.5633687
  64.7648239   4.9891070  20.3991859  63.9914731   3.8968028  19.6915997
  66.0420301   6.8162337  23.5613009  65.5984155   6.0298716  23.2433914
  66.7037515   7.0041488  22.8956900  60.8007422   8.3458139  18.0873688
  61.3514847   8.2175202  17.3150682  59.9618898   8.6453028  17.7368580
  68.1401539   7.0965137  21.5894410  68.1220014   7.9174018  21.0974680
  69.0621459   6.9719212  21.8144552  64.5974593   4.6109267  22.4317919
  65.1302930   3.8497555  22.2017227  64.0688674   4.3182918  23.1742073
  70.5187407   5.2694654  11.2386862  70.0649734   4.4285564  11.2952052
  69.8881374   5.9056052  11.5761642  68.9620346   7.1071150  12.1736680
  69.2543321   7.6676208  11.4549045  69.4718967   7.3999711  12.9289839
  63.9253971   7.8851502  13.2630133  63.8830150   8.1112348  12.3338665
  64.8416670   7.6514876  13.4115934  66.8614617   7.1432626  17.4104463
  66.9151639   7.7123562  18.1782179  65.9929398   7.3134511  17.0458500
  69.0517380   3.7360975  23.9845129  68.9002886   3.5071527  23.0675212
  69.0422059   4.6931577  23.9976474  65.8202716   1.3092888  18.9691395
  66.7494776   1.4604048  18.7960362  65.3993746   1.3976909  18.1140042
  64.6191048   5.3343553  16.7389933  64.4802134   4.9662337  17.6115871
  63.8305644   5.8491192  16.5673890  66.1696263   4.7125155  14.1278770
  65.8346096   4.6725925  15.0236420  65.6700209   4.0469871  13.6549181
  60.1440507   0.1192785  19.6531352  60.0060305  -0.6126976  20.2542891
  61.0545431   0.0301685  19.3715539  70.7609587   6.7680098  22.0621610
  70.7022133   6.0839318  21.3952193  71.1629105   7.5099088  21.6102236
  59.7800285  13.5842012  14.8555329  60.0196884  14.2160536  15.5334348
  58.9369482  13.2330052  15.1420689  70.7626994   4.7319682  20.2935590
  69.8753773   4.3945604  20.4161989  71.3325545   4.0002713  20.5304356
  64.2928147   9.3921134  17.2596833  64.2198319  10.1976106  17.7716138
  63.8505540   9.5913100  16.4344855  64.0817927   8.6292904  10.7699655
  63.2985449   9.1714584  10.8637879  64.7810672   9.1466884  11.1693896
  66.7526831   9.2907968  19.4154992  67.4654803   9.9255433  19.3430893
  66.2616859   9.3871834  18.5994994  61.8038744   7.0402412  20.2360563
  62.5048204   7.6738895  20.3889957  61.3333859   7.3817143  19.4756202
  66.5647204   9.6306712  12.1641283  66.7469599   8.8128368  12.6269036
  67.3880190   9.8474405  11.7266173  57.4006462   6.5738767  17.1691666
  57.9859899   5.8282455  17.3019570  57.2031301   6.8842723  18.0528329
  60.2545118   9.6090014  12.1854108  59.5855493  10.0936142  11.7018148
  60.1157987   9.8559235  13.0997486  64.3950386  11.6433758  18.7836766
  64.9468694  11.8065379  19.5485851  64.7356580  12.2338195  18.1116791
  69.2461260   6.4695015  24.6385421  69.7901164   7.0824973  24.1440375
  68.6648105   7.0274594  25.1552434  67.5318773   9.5915733  15.7700448
  67.4069913   8.7905473  15.2611394  68.1897865  10.0861927  15.2814418
  69.5953682   7.3924753  17.3979999  68.6484017   7.2730104  17.3258325
  69.9436455   6.5047251  17.4806260  66.6000115   7.1877470  13.5984351
  66.4525078   6.2594177  13.7791921  67.4253609   7.2097560  13.1141426
  70.2034237   8.0106028  14.6849223  71.1280784   7.8048890  14.5473675
  70.0349540   7.7622429  15.5938565  69.9929553   8.5291696  10.0411315
  70.1666431   7.9638118   9.2885167  70.4858444   9.3292591   9.8590805
  56.5972535  -0.3323739  21.0005031  55.8554271  -0.1841104  21.5869661
  56.2765279  -0.0715473  20.1371780  64.5416197   9.2092239  20.7985421
  64.8503324   8.9641386  21.6708120  65.3391680   9.4138878  20.3104291
  64.5636810  11.3630149  13.0290797  64.1241800  10.8706528  13.7223654
  65.3144926  10.8203117  12.7882872  62.0110682   6.9068158  15.1013099
  61.3890691   6.2438863  14.8015327  62.6815549   6.9329290  14.4186747
  72.5690055   5.9291069  23.9746742  71.7785599   5.9115208  23.4351241
  72.3323409   6.4679363  24.7295779  74.1906127   5.1980477  21.5321492
  73.8990935   5.5610458  22.3684953  73.5778258   4.4847485  21.3534824
  65.3405085   3.3398771  24.8500016  66.2608095   3.5177370  25.0440063
  65.3054668   2.3954816  24.6979716  58.3367158   1.2499805  17.4922797
  58.5553167   2.1816913  17.5110831  58.7492932   0.8907780  18.2777601
  63.0726293   0.2530150  25.6990608  62.5893375   1.0530510  25.9054497
  63.1587232   0.2638095  24.7458052  58.9999631   4.1434685  17.7359042
  59.9542884   4.1118627  17.6688973  58.8012154   3.6825308  18.5509268
  59.5899013   2.7135801  20.3029839  60.4091902   3.2079879  20.3264677
  59.8635820   1.7967769  20.2747407  57.3549859   9.6854304  14.7529240
  57.2204327   8.9254705  14.1867238  56.9381922  10.4095204  14.2858029
  60.5118985  10.5823621  14.9647682  60.3951369  11.5269054  14.8626373
  59.6911431  10.2797183  15.3533482  67.3687319   4.1154782  26.5014177
  68.2378479   4.2895434  26.1400812  66.8894071   4.9349199  26.3789906
  61.5373499  11.2351883  18.1803611  62.4400746  11.2675493  18.4970106
  61.3110869  10.3052334  18.1949947  63.2927101   9.9882870  14.8413689
  62.3422732   9.9884731  14.7278062  63.5959588   9.2415604  14.3249724
  79.0279795  15.8243408  15.9059452  79.6658205  15.7050155  15.2022792
  78.9100638  16.7724252  15.9647404  75.8369501  15.7770836  15.8420976
  75.4988013  15.6611901  14.9541511  76.7059269  15.3762001  15.8221983
  71.6956317  17.6306312  11.8317867  71.1321182  17.5396249  11.0634155
  71.5808712  16.8106217  12.3120360  76.3189284  16.9305688  21.8007182
  76.3077925  16.5358486  20.9287686  76.4809924  16.1971760  22.3940953
  69.2420749  19.1257504  14.6702088  70.0342041  18.7848329  14.2548387
  69.4817399  19.2352479  15.5904241  77.2755876  21.2977280   7.1432332
  76.6243855  21.8831361   6.7566346  78.0700238  21.8283475   7.2027370
  71.2011503  18.3866417   7.5419467  71.9742379  17.8395404   7.4032342
  71.5536902  19.2510667   7.7533928  73.0396545  19.7142800  20.7486366
  72.7486411  20.6188430  20.6333032  73.6753530  19.7559327  21.4630436
  73.9652752  17.0919648  17.3387726  74.5616324  16.8675671  16.6244689
  74.0227724  16.3504394  17.9413173  78.5821063  13.5494862  12.9812660
  79.3684153  13.1314285  12.6303077  78.8459768  14.4540954  13.1494308
  78.7531141  18.9867712   7.6801317  78.1176974  19.0602339   8.3922221
  78.4228547  19.5761311   7.0020396  73.2574069  16.4487189   7.3762292
  73.1410327  15.7732093   8.0443376  73.3676329  15.9619563   6.5594445
  75.6005610  15.9097337  11.0808981  75.2363817  15.3827957  11.7921902
  76.4572726  15.5195806  10.9075466  81.5054911   7.1991669  18.3440247
  81.1738236   8.0687080  18.1201462  80.9100524   6.8827953  19.0234277
  77.9986430  19.4004215  17.7436160  77.6987153  20.3029254  17.6351967
  77.6537490  19.1336398  18.5957313  71.4498912  15.8518012  13.7772864
  70.5249408  15.7194226  13.9850556  71.6983325  16.6312231  14.2742806
  81.3983574  11.9186755  15.4233597  80.4900451  11.8502164  15.1292358
  81.3471170  12.3958700  16.2515422  75.2200318  13.3944894   7.0616996
  75.0999943  13.8401944   7.9002476  74.5252906  13.7430211   6.5030534
  68.8107723  15.4951285  14.6116653  68.9400104  15.7485764  15.5256065
  68.1305174  16.0878993  14.2921308  72.9807210  26.1648535  10.7107127
  72.9031240  27.1156361  10.7895608  72.3768854  25.8194408  11.3682054
  75.4724440  13.3376401  23.3668494  74.6957774  13.8970321  23.3571359
  76.1115003  13.8233184  23.8883364  83.2645221  10.1203194  17.2011471
  82.6219601  10.4135727  16.5551265  82.7600149  10.0056114  18.0064668
  73.7270812  16.1461854  22.9286461  74.4685497  16.6846898  22.6521285
  73.0207798  16.7728143  23.0858013  79.2026152  18.2890995  21.5258623
  79.6109508  17.8473405  20.7813255  78.4803413  17.7143622  21.7792816
  75.5557222  13.2263601  18.8992180  76.4018417  13.6503015  19.0426829
  75.4955860  12.5697226  19.5930743  79.5254967  18.8492185  15.2810912
  78.8963829  19.0137899  14.5786979  79.1380629  19.2633795  16.0521876
  83.4044198  19.7846623  12.6355275  82.7195237  20.1645525  12.0852309
  83.4888048  20.3941950  13.3687223  78.7056667  10.8867970  20.5573353
  78.4617599  11.6410030  20.0207629  78.9816598  11.2653317  21.3920600
  80.6595130  17.4306582  19.2350619  80.8712025  18.0738342  18.5585000
  80.6124878  16.5968899  18.7672549  78.2621359  10.0424403  16.1387191
  77.4005838  10.3405656  16.4303929  78.2883794  10.2594802  15.2068224
  75.0782928  18.5866593  12.5460997  75.5421274  18.8654296  11.7565619
  74.8139726  17.6850038  12.3634087  71.9707009  18.1338075  15.4840760
  72.5408367  18.5625343  14.8458244  72.5615121  17.8520660  16.1824946
  74.0151814  14.7089746   9.3550562  74.7175858  15.1610789   9.8224488
  73.6832443  14.0673565   9.9830455  72.4632176  13.3001502  23.7301771
  71.8330837  13.9817783  23.9637168  72.3568264  13.1884584  22.7854910
  67.7577148  12.9673298  14.6567695  66.9676202  13.2230827  14.1807806
  68.2488396  13.7821636  14.7619736  81.7740958  20.3078538  17.4072976
  82.5958402  19.9058725  17.1255658  81.7703361  20.2046772  18.3589092
  69.7091894  13.3317878  11.6151172  68.9123057  13.4436572  12.1334668
  69.4817486  13.6704530  10.7492063  75.5397561  19.8562581  19.5633687
  75.6041994  20.3182988  20.3991859  74.8308485  19.2259946  19.6915997
  66.0414851  13.2203789  17.0882686  66.2922890  14.1050799  17.3540262
  66.5774400  13.0408390  16.3157778  75.2545579  21.5230688   9.4312667
  75.1191254  22.3682224   9.8597515  75.7955392  21.7249966   8.6678601
  71.7412919   7.6022268  26.0927022  71.3479864   7.0488467  26.7674667
  72.5579059   7.9132847  26.4833540  68.7074976  19.0406126  10.0040592
  69.2199497  19.8349377  10.1546157  69.3597689  18.3432417   9.9374194
  70.5169861  22.1571883  12.0863345  70.6936489  23.0789847  11.8984329
  71.3126695  21.8430302  12.5157725  74.6580880   9.0180147  23.6847279
  75.3990593   9.6187300  23.6051741  74.8898803   8.2757785  23.1265321
  69.8022218  14.2036515  21.9625509  69.6875733  13.3021772  22.2632607
  68.9466735  14.4500211  21.6110325  76.8814055  22.1454255  23.5613009
  76.4377910  21.3590633  23.2433914  77.5431269  22.3333405  22.8956900
  71.6401177  23.6750057  18.0873688  72.1908602  23.5467120  17.3150682
  70.8012653  23.9744946  17.7368580  78.9795294  22.4257055  21.5894410
  78.9613769  23.2465936  21.0974680  79.9015214  22.3011130  21.8144552
  75.4368348  19.9401184  22.4317919  75.9696684  19.1789473  22.2017227
  74.9082429  19.6474836  23.1742073  66.6723893  17.3694781  10.7800163
  67.5099115  17.7791789  10.5633870  66.8502161  16.4294223  10.7500357
  76.1535436   9.8819562  11.5269234  75.2977033   9.4926413  11.3474873
  76.5662388   9.9611523  10.6669020  77.6834583   7.4165905  15.9260794
  77.1799379   7.3796041  15.1128599  77.9765190   8.3258648  15.9857450
  73.9277469   7.5004635  14.9326976  74.7930466   7.3047444  14.5732865
  73.9954978   7.2714987  15.8596332  76.8021060  19.0687177   9.9436731
  76.2742422  18.3339936   9.6309968  76.3008563  19.8461853   9.6976699
  81.7813906  17.2636197  15.0603777  81.1237581  17.9535459  15.1483906
  82.5854306  17.6532629  15.4037763  71.5339788   9.7306843  12.3043342
  72.1083540   9.5082025  11.5716535  72.1210770   9.7995538  13.0571944
  80.5919365  15.6180570  13.1107719  81.1051247  16.2510562  13.6129429
  81.2420589  15.0181765  12.7451079  73.8362456   6.6048092  11.0318412
  73.1826868   6.2897109  10.4075027  73.7942930   5.9823832  11.7578235
  77.8541739  25.5964894   5.8668390  77.1803438  25.8996591   6.4753348
  78.2407561  26.3993975   5.5173847  77.0700196  13.0930026  15.3566059
  76.1522757  13.3144973  15.1987747  77.4860340  13.1676336  14.4977767
  77.8535244  14.4921441  10.4868740  78.6007063  15.0042838  10.1775862
  78.1226833  14.1705494  11.3473133  76.1261894  16.9879982   7.4695694
  75.2173113  16.7039015   7.5668164  76.1556978  17.4079061   6.6099001
  81.3581161  20.5986571  11.2386862  80.9043489  19.7577481  11.2952052
  80.7275128  21.2347970  11.5761642  79.8014101  22.4363068  12.1736680
  80.0937075  22.9968125  11.4549045  80.3112721  22.7291629  12.9289839
  66.6950064  14.7085496  11.4510896  66.4974464  14.1154857  10.7261963
  66.1396728  14.4037706  12.1686835  74.6746788  14.6008603  13.5705489
  74.7295398  13.6482439  13.4947966  73.8637990  14.7568042  14.0546788
  72.6139148  13.2185662  11.3295868  71.8007013  13.5179833  11.7361060
  73.1098142  12.8241351  12.0470350  74.7647726  23.2143419  13.2630133
  74.7223905  23.4404266  12.3338665  75.6810425  22.9806794  13.4115934
  78.2113360  13.6827487  20.1610762  78.5662747  13.9098960  21.0205228
  78.8585491  14.0145864  19.5388017  72.1053223  10.7904018  16.9457103
  72.7452602  10.6492777  16.2480066  71.2730753  10.5038531  16.5695705
  83.9680476  18.8722450  15.8771363  84.4016983  18.7797739  16.7254417
  84.6812057  18.8479950  15.2391379  72.8813527  20.0906448  13.0592096
  73.6754125  19.5956768  12.8574671  72.1705219  19.5624311  12.6959801
  77.7008371  22.4724544  17.4104463  77.7545393  23.0415480  18.1782179
  76.8323152  22.6426429  17.0458500  69.1896290  14.2349530   9.1351848
  68.2593878  14.1733985   9.3521810  69.2853762  13.7125483   8.3388490
  69.1081839  10.7604343  11.7230090  69.3688656  11.6749676  11.6139250
  69.9299011  10.2928785  11.8726703  70.5806764  12.1742100  18.8928914
  71.2529818  11.9659462  18.2441563  69.7536551  11.9764186  18.4534147
  84.8296026  18.9146150  18.4104248  85.0231916  19.8191961  18.6563523
  84.7296644  18.4553569  19.2442833  76.4832336   8.8004041  20.9094575
  75.8360252   9.4993991  20.8159052  77.2533352   9.2340185  21.2770824
  79.8911134  19.0652893  23.9845129  79.7396641  18.8363445  23.0675212
  79.8815814  20.0223494  23.9976474  76.6596471  16.6384806  18.9691395
  77.5888531  16.7895965  18.7960362  76.2387501  16.7268827  18.1140042
  75.4584803  20.6635470  16.7389933  75.3195888  20.2954255  17.6115871
  74.6699399  21.1783110  16.5673890  76.0532955  25.7644567   8.0815469
  76.2284710  25.2932610   8.8961092  75.3665743  26.3910333   8.3096730
  77.0090018  20.0417073  14.1278770  76.6739850  20.0017843  15.0236420
  76.5093963  19.3761789  13.6549181  70.9834262  15.4484703  19.6531352
  70.8454060  14.7164942  20.2542891  71.8939185  15.3593603  19.3715539
  73.6116562  15.1604662  19.1415031  74.3216181  14.5197854  19.1001650
  73.5685871  15.4117557  20.0641212  81.6003341  22.0972016  22.0621610
  81.5415887  21.4131236  21.3952193  82.0022859  22.8391006  21.6102236
  72.3245496  12.1469880  20.9610671  71.7882853  11.6960619  21.6132267
  71.7362205  12.2815789  20.2181135  70.6194040  28.9133929  14.8555329
  70.8590638  29.5452454  15.5334348  69.7763236  28.5621969  15.1420689
  81.6020748  20.0611600  20.2935590  80.7147527  19.7237521  20.4161989
  82.1719299  19.3294631  20.5304356  63.2549895  16.3935691  13.6178642
  63.9420935  16.0797421  13.0299657  63.0998024  17.2977056  13.3445893
  68.0584618  11.2825888  18.0463665  67.9742806  10.6751557  17.3114075
  67.2367324  11.7734906  18.0473162  75.1321902  24.7213052  17.2596833
  75.0592073  25.5268023  17.7716138  74.6899295  24.9205018  16.4344855
  74.9211681  23.9584822  10.7699655  74.1379203  24.5006502  10.8637879
  75.6204427  24.4758802  11.1693896  78.2308331   9.7679451  13.4133860
  78.7277031   9.0149414  13.0934931  77.4595313   9.8043768  12.8477070
  86.0838089  15.4719817  15.0552152  86.0727965  16.3544532  14.6846085
  85.2155468  15.1191368  14.8606689  77.5920585  24.6199886  19.4154992
  78.3048557  25.2547351  19.3430893  77.1010614  24.7163752  18.5994994
  79.3138112  18.5251139  10.9872284  78.3794391  18.6452601  10.8176988
  79.4914781  17.6223605  10.7232294  74.8143300  11.9096834  13.1405545
  74.4441088  11.3567875  13.8286450  75.3102393  11.3054968  12.5880545
  72.6432499  22.3694329  20.2360563  73.3441958  23.0030812  20.3889957
  72.1727614  22.7109061  19.4756202  80.7686895  20.7112279   8.5208470
  81.0446739  20.5968874   9.4302344  79.8991393  20.3129764   8.4820643
  80.6727326   6.7349045  15.5613219  79.7590406   6.9653272  15.7295426
  81.1020428   6.8187489  16.4127252  80.4433785  14.9238937  18.0613113
  79.7905235  15.1714844  17.4065566  80.8214165  14.1103075  17.7275590
  77.4040959  24.9598630  12.1641283  77.5863353  24.1420286  12.6269036
  78.2273945  25.1766322  11.7266173  77.7383124  23.8866815   9.4256332
  78.2670891  23.3759270   8.8126494  78.0011344  23.5709345  10.2901865
  76.4921358  15.6658748  24.5479150  75.8161995  15.5652877  25.2181525
  77.3148992  15.5097962  25.0115147  68.2400217  21.9030684  17.1691666
  68.8253654  21.1574372  17.3019570  68.0425055  22.2134641  18.0528329
  71.0938872  24.9381932  12.1854108  70.4249247  25.4228059  11.7018148
  70.9551742  25.1851152  13.0997486  62.8317872  14.4736285  15.8896109
  62.8701971  13.9399875  16.6833227  62.3258164  13.9471490  15.2707086
  75.2344141  26.9725675  18.7836766  75.7862449  27.1357297  19.5485851
  75.5750334  27.5630113  18.1116791  70.2108634   9.3200825  19.3858651
  70.2749960  10.1815656  18.9736049  70.1475754   8.7074827  18.6531009
  69.6860906  11.3923958  23.0331685  70.3132945  11.0101035  23.6469210
  68.8288825  11.1738160  23.3987378  80.0855015  21.7986933  24.6385421
  80.6294919  22.4116891  24.1440375  79.5041860  22.3566511  25.1552434
  66.4626449  13.2000387   8.9650040  66.7579890  12.2911065   8.9117094
  65.5614485  13.1788126   8.6431042  78.3712528  24.9207651  15.7700448
  78.2463667  24.1197391  15.2611394  79.0291619  25.4153844  15.2814418
  69.9920696  11.2756383  14.9477589  69.2707282  11.8892351  14.8085062
  70.7813952  11.8114148  14.8694235  80.4347436  22.7216671  17.3979999
  79.4877772  22.6022022  17.3258325  80.7830209  21.8339169  17.4806260
  72.7947010   8.6110810  21.2218240  73.3181411   8.8573106  21.9844550
  72.5759343   9.4430845  20.8021378  68.1914291  10.8814484   9.0889365
  67.8626997  10.0011863   8.9064471  68.5453661  10.8262153   9.9765754
  77.4393870  22.5169387  13.5984351  77.2918832  21.5886095  13.7791921
  78.2647363  22.5389478  13.1141426  71.3056114  11.1687454   9.4564843
  71.6452186  11.6973376   8.7343451  71.7528234  11.5067860  10.2323409
  81.0427991  23.3397946  14.6849223  81.9674539  23.1340807  14.5473675
  80.8743295  23.0914347  15.5938565  73.9999555   9.5524505  18.9067911
  73.6596375   8.7532318  19.3088591  73.2938561   9.8526216  18.3344744
  74.6516027   6.6373817  17.3595234  75.4742096   6.1634296  17.2374124
  74.8954090   7.4164301  17.8593920  72.1754605  13.3292938  15.1687213
  72.0299186  13.6433241  16.0611494  71.6979809  13.9477838  14.6158111
  74.0350988  10.3195486  15.2168102  74.0212557   9.4236579  14.8800400
  74.7523416  10.3266150  15.8506388  75.8877119  10.7532826  17.2621230
  75.6294897  11.6749897  17.2605560  75.3562159  10.3563261  17.9521694
  80.8323308  23.8583613  10.0411315  81.0060185  23.2930036   9.2885167
  81.3252199  24.6584508   9.8590805  66.6500267  15.8698282  18.1074874
  66.1053736  16.6458090  18.2395148  67.5279617  16.2169087  17.9493995
  73.4387884   9.2009866  10.4855672  73.5603795   8.2726512  10.6846560
  73.1489926   9.2148552   9.5733988  76.3079075   6.8864777  13.6222392
  76.3300771   6.9504110  12.6674372  76.7247134   6.0469285  13.8162898
  81.8198480  23.1750378   7.1408213  82.5149385  23.7957070   7.3595528
  82.1621630  22.3245729   7.4160591  67.4366289  14.9968179  21.0005031
  66.6948025  15.1450814  21.5869661  67.1159034  15.2576444  20.1371780
  75.3809952  24.5384157  20.7985421  75.6897078  24.2933304  21.6708120
  76.1785434  24.7430795  20.3104291  75.4030564  26.6922067  13.0290797
  74.9635554  26.1998445  13.7223654  76.1538681  26.1495034  12.7882872
  67.8822903  22.8833607  13.0315425  68.7080923  22.5837379  12.6514069
  67.5316955  22.1141230  13.4805214  72.8504436  22.2360076  15.1013099
  72.2284445  21.5730781  14.8015327  73.5209303  22.2621208  14.4186747
  66.0831508  20.8019934  13.9904359  65.2463416  20.3742108  13.8088360
  66.0555153  20.9952377  14.9275150  72.9228964  10.7141864  24.6945605
  72.9717119  11.5903986  24.3123374  73.4651478  10.1719257  24.1217248
  83.4083809  21.2582987  23.9746742  82.6179353  21.2407126  23.4351241
  83.1717164  21.7971281  24.7295779  83.5281684  18.1075453  21.2879470
  83.5779689  17.9425461  22.2294993  83.4195608  17.2402712  20.8977351
  72.4117943  20.7863999   8.5771559  72.5606063  21.4699463   7.9238232
  73.2184387  20.7669089   9.0921015  80.8185447  14.0906381  22.6038777
  81.7195310  13.9512846  22.3122775  80.8933421  14.2560836  23.5436955
  75.1528252  11.4673236  21.4491964  74.2831562  11.7606802  21.1774552
  75.3887732  12.0513681  22.1699227  85.0299881  20.5272395  21.5321492
  84.7384690  20.8902375  22.3684953  84.4172012  19.8139403  21.3534824
  83.2787069  15.6505009  20.0001550  83.7541191  15.8432656  19.1920401
  82.3552635  15.7064195  19.7544934  70.1670576  16.8129177   9.5832628
  69.9216618  15.9091507   9.7812838  70.3366491  16.8146327   8.6412106
  77.8567286   7.6852853  18.9657384  78.3749230   8.4213880  18.6403872
  77.5022419   7.9916846  19.8004143  75.9113349  23.2812129   6.0483307
  75.3387316  23.9002317   5.5953779  76.4846142  23.8311491   6.5823229
  81.9788738  12.5270770  18.2329856  82.9306161  12.6268867  18.2542080
  81.8092189  11.7349038  18.7427940  80.0003118   9.6126353  18.4189257
  79.4053050   9.8931365  17.7235745  79.7152815  10.1020254  19.1905998
  79.1310608  23.5649280   7.1791889  80.0641282  23.4994841   7.3824765
  79.0433821  24.4005546   6.7206422  84.4576816  15.7476889  17.3472155
  84.4253136  14.8092890  17.5331839  85.0677440  15.8260926  16.6137980
  84.6071305  12.5387933  17.3930438  84.0910353  11.7546389  17.2060367
  85.4911253  12.2106649  17.5576958  88.3568663  14.9500759  17.0852643
  87.6301827  14.8156724  16.4769135  87.9415950  15.2577587  17.8909361
  76.1798840  18.6690688  24.8500016  77.1001849  18.8469287  25.0440063
  76.1448423  17.7246734  24.6979716  65.3981005  13.8629282  13.7753291
  65.0783789  13.0094590  13.4827665  64.8514433  14.0777860  14.5311258
  69.1760912  16.5791723  17.4922797  69.3946922  17.5108831  17.5110831
  69.5886686  16.2199697  18.2777601  74.0488777  12.1524929  26.8825546
  73.9485504  13.1019286  26.8137637  73.8310320  11.8243168  26.0101616
  65.2669265  17.4832193  15.7446413  64.5732736  17.0686146  15.2316367
  66.0142256  17.5252730  15.1479831  73.9120048  15.5822068  25.6990608
  73.4287129  16.3822428  25.9054497  73.9980987  15.5930012  24.7458052
  67.1806007  17.4150447  13.6212427  67.1576695  17.5138135  12.6694310
  67.4906644  18.2615598  13.9429594  69.8393385  19.4726602  17.7359042
  70.7936639  19.4410545  17.6688973  69.6405909  19.0117226  18.5509268
  70.4292767  18.0427718  20.3029839  71.2485656  18.5371797  20.3264677
  70.7029575  17.1259686  20.2747407  68.1943614  25.0146222  14.7529240
  68.0598082  24.2546623  14.1867238  67.7775676  25.7387122  14.2858029
  71.3512740  25.9115539  14.9647682  71.2345124  26.8560971  14.8626373
  70.5305186  25.6089100  15.3533482  65.6827681  12.3765852  21.0022037
  66.3286545  11.8664806  21.4909262  65.4744833  13.1134534  21.5765462
  78.2081074  19.4446700  26.5014177  79.0772233  19.6187352  26.1400812
  77.7287825  20.2641117  26.3789906  72.3767254  26.5643801  18.1803611
  73.2794501  26.5967411  18.4970106  72.1504624  25.6344252  18.1949947
  74.1320856  25.3174787  14.8413689  73.1816487  25.3176649  14.7278062
  74.4353342  24.5707522  14.3249724  70.0225172   9.5233469  25.0997051
  70.8856634   9.1670274  25.3100375  69.4490583   9.1847364  25.7872455
  89.8673549  31.1535326  15.9059452  90.5051959  31.0342073  15.2022792
  89.7494392  32.1016170  15.9647404  86.6763256  31.1062754  15.8420976
  86.3381767  30.9903818  14.9541511  87.5453024  30.7053919  15.8221983
  82.5350071  32.9598230  11.8317867  81.9714936  32.8688167  11.0634155
  82.4202466  32.1398135  12.3120360  87.1583039  32.2597605  21.8007182
  87.1471679  31.8650404  20.9287686  87.3203678  31.5263678  22.3940953
  80.0814503  34.4549422  14.6702088  80.8735795  34.1140246  14.2548387
  80.3211153  34.5644397  15.5904241  88.1149630  36.6269198   7.1432332
  87.4637610  37.2123278   6.7566346  88.9093993  37.1575393   7.2027370
  82.0405257  33.7158335   7.5419467  82.8136133  33.1687322   7.4032342
  82.3930656  34.5802584   7.7533928  83.8790300  35.0434717  20.7486366
  83.5880166  35.9480348  20.6333032  84.5147284  35.0851245  21.4630436
  84.8046507  32.4211566  17.3387726  85.4010079  32.1967588  16.6244689
  84.8621478  31.6796311  17.9413173  89.4214818  28.8786779  12.9812660
  90.2077907  28.4606203  12.6303077  89.6853522  29.7832872  13.1494308
  89.5924895  34.3159630   7.6801317  88.9570728  34.3894256   8.3922221
  89.2622302  34.9053229   7.0020396  84.0967824  31.7779107   7.3762292
  83.9804082  31.1024010   8.0443376  84.2070084  31.2911481   6.5594445
  86.4399365  31.2389254  11.0808981  86.0757572  30.7119875  11.7921902
  87.2966481  30.8487723  10.9075466  92.3448665  22.5283587  18.3440247
  92.0131990  23.3978998  18.1201462  91.7494279  22.2119871  19.0234277
  88.8380185  34.7296133  17.7436160  88.5380908  35.6321172  17.6351967
  88.4931244  34.4628316  18.5957313  82.2892666  31.1809930  13.7772864
  81.3643163  31.0486144  13.9850556  82.5377080  31.9604149  14.2742806
  92.2377329  27.2478673  15.4233597  91.3294206  27.1794081  15.1292358
  92.1864924  27.7250618  16.2515422  86.0594073  28.7236811   7.0616996
  85.9393698  29.1693862   7.9002476  85.3646661  29.0722129   6.5030534
  79.6501477  30.8243203  14.6116653  79.7793859  31.0777682  15.5256065
  78.9698929  31.4170911  14.2921308  83.8200965  41.4940453  10.7107127
  83.7424994  42.4448278  10.7895608  83.2162608  41.1486326  11.3682054
  86.3118194  28.6668319  23.3668494  85.5351528  29.2262239  23.3571359
  86.9508757  29.1525102  23.8883364  94.1038975  25.4495111  17.2011471
  93.4613355  25.7427645  16.5551265  93.5993904  25.3348032  18.0064668
  84.5664567  31.4753772  22.9286461  85.3079251  32.0138816  22.6521285
  83.8601552  32.1020061  23.0858013  90.0419906  33.6182912  21.5258623
  90.4503262  33.1765323  20.7813255  89.3197168  33.0435540  21.7792816
  86.3950976  28.5555519  18.8992180  87.2412172  28.9794933  19.0426829
  86.3349614  27.8989143  19.5930743  90.3648721  34.1784103  15.2810912
  89.7357583  34.3429817  14.5786979  89.9774383  34.5925713  16.0521876
  94.2437953  35.1138541  12.6355275  93.5588991  35.4937442  12.0852309
  94.3281802  35.7233868  13.3687223  89.5450422  26.2159888  20.5573353
  89.3011354  26.9701948  20.0207629  89.8210352  26.5945235  21.3920600
  91.4988884  32.7598500  19.2350619  91.7105780  33.4030260  18.5585000
  91.4518633  31.9260816  18.7672549  89.1015113  25.3716321  16.1387191
  88.2399592  25.6697574  16.4303929  89.1277548  25.5886719  15.2068224
  85.9176683  33.9158511  12.5460997  86.3815028  34.1946214  11.7565619
  85.6533481  33.0141956  12.3634087  82.8100764  33.4629993  15.4840760
  83.3802121  33.8917261  14.8458244  83.4008876  33.1812577  16.1824946
  84.8545569  30.0381663   9.3550562  85.5569612  30.4902707   9.8224488
  84.5226197  29.3965482   9.9830455  83.3025930  28.6293420  23.7301771
  82.6724591  29.3109701  23.9637168  83.1962018  28.5176502  22.7854910
  78.5970903  28.2965216  14.6567695  77.8069957  28.5522745  14.1807806
  79.0882150  29.1113554  14.7619736  92.6134712  35.6370455  17.4072976
  93.4352156  35.2350643  17.1255658  92.6097115  35.5338689  18.3589092
  80.5485648  28.6609795  11.6151172  79.7516812  28.7728490  12.1334668
  80.3211240  28.9996448  10.7492063  86.3791316  35.1854499  19.5633687
  86.4435748  35.6474906  20.3991859  85.6702240  34.5551864  19.6915997
  76.8808606  28.5495707  17.0882686  77.1316644  29.4342716  17.3540262
  77.4168154  28.3700308  16.3157778  86.0939334  36.8522606   9.4312667
  85.9585008  37.6974142   9.8597515  86.6349146  37.0541884   8.6678601
  82.5806673  22.9314186  26.0927022  82.1873619  22.3780384  26.7674667
  83.3972814  23.2424764  26.4833540  79.5468731  34.3698044  10.0040592
  80.0593252  35.1641294  10.1546157  80.1991444  33.6724335   9.9374194
  81.3563616  37.4863800  12.0863345  81.5330244  38.4081765  11.8984329
  82.1520449  37.1722220  12.5157725  85.4974634  24.3472065  23.6847279
  86.2384348  24.9479218  23.6051741  85.7292557  23.6049703  23.1265321
  80.6415972  29.5328432  21.9625509  80.5269487  28.6313690  22.2632607
  79.7860490  29.7792129  21.6110325  87.7207810  37.4746173  23.5613009
  87.2771664  36.6882551  23.2433914  88.3825024  37.6625323  22.8956900
  82.4794931  39.0041974  18.0873688  83.0302356  38.8759038  17.3150682
  81.6406407  39.3036863  17.7368580  89.8189048  37.7548973  21.5894410
  89.8007523  38.5757854  21.0974680  90.7408968  37.6303048  21.8144552
  86.2762102  35.2693102  22.4317919  86.8090439  34.5081390  22.2017227
  85.7476183  34.9766754  23.1742073  89.4431797  20.3753168  17.9611561
  89.0996067  21.2654810  17.8850671  89.8110760  20.1854826  17.0981146
  77.5117648  32.6986698  10.7800163  78.3492870  33.1083707  10.5633870
  77.6895915  31.7586141  10.7500357  86.9929191  25.2111480  11.5269234
  86.1370787  24.8218330  11.3474873  87.4056143  25.2903441  10.6669020
  88.5228338  22.7457823  15.9260794  88.0193133  22.7087958  15.1128599
  88.8158944  23.6550566  15.9857450  84.7671223  22.8296553  14.9326976
  85.6324220  22.6339362  14.5732865  84.8348732  22.6006905  15.8596332
  87.6414815  34.3979094   9.9436731  87.1136176  33.6631854   9.6309968
  87.1402318  35.1753771   9.6976699  92.6207661  32.5928115  15.0603777
  91.9631335  33.2827376  15.1483906  93.4248060  32.9824547  15.4037763
  82.3733542  25.0598761  12.3043342  82.9477294  24.8373942  11.5716535
  82.9604525  25.1287455  13.0571944  91.4313120  30.9472488  13.1107719
  91.9445001  31.5802480  13.6129429  92.0814344  30.3473683  12.7451079
  82.7003130  27.0903222   6.3239228  81.8640442  27.4277908   6.6448502
  82.5607899  26.9552202   5.3866365  84.6756210  21.9340010  11.0318412
  84.0220623  21.6189027  10.4075027  84.6336684  21.3115750  11.7578235
  88.6935494  40.9256812   5.8668390  88.0197193  41.2288509   6.4753348
  89.0801316  41.7285892   5.5173847  87.9093951  28.4221943  15.3566059
  86.9916512  28.6436890  15.1987747  88.3254094  28.4968254  14.4977767
  88.6928998  29.8213359  10.4868740  89.4400817  30.3334756  10.1775862
  88.9620588  29.4997412  11.3473133  86.9655648  32.3171900   7.4695694
  86.0566868  32.0330932   7.5668164  86.9950732  32.7370978   6.6099001
  92.1974916  35.9278489  11.2386862  91.7437243  35.0869399  11.2952052
  91.5668883  36.5639887  11.5761642  90.6407855  37.7654986  12.1736680
  90.9330830  38.3260043  11.4549045  91.1506476  38.0583547  12.9289839
  77.5343819  30.0377414  11.4510896  77.3368219  29.4446774  10.7261963
  76.9790483  29.7329624  12.1686835  85.5140543  29.9300520  13.5705489
  85.5689152  28.9774357  13.4947966  84.7031745  30.0859959  14.0546788
  83.4532902  28.5477580  11.3295868  82.6400768  28.8471751  11.7361060
  83.9491897  28.1533269  12.0470350  85.6041480  38.5435337  13.2630133
  85.5617659  38.7696183  12.3338665  86.5204179  38.3098711  13.4115934
  89.0507114  29.0119404  20.1610762  89.4056502  29.2390878  21.0205228
  89.6979245  29.3437781  19.5388017  82.9446977  26.1195935  16.9457103
  83.5846357  25.9784695  16.2480066  82.1124508  25.8330449  16.5695705
  94.8074231  34.2014367  15.8771363  95.2410737  34.1089656  16.7254417
  95.5205811  34.1771868  15.2391379  83.7207281  35.4198366  13.0592096
  84.5147880  34.9248686  12.8574671  83.0098973  34.8916229  12.6959801
  88.5402126  37.8016461  17.4104463  88.5939148  38.3707398  18.1782179
  87.6716907  37.9718346  17.0458500  80.0290045  29.5641448   9.1351848
  79.0987633  29.5025903   9.3521810  80.1247517  29.0417400   8.3388490
  79.9475594  26.0896260  11.7230090  80.2082411  27.0041594  11.6139250
  80.7692766  25.6220703  11.8726703  81.4200519  27.5034018  18.8928914
  82.0923572  27.2951380  18.2441563  80.5930305  27.3056104  18.4534147
  95.6689780  34.2438068  18.4104248  95.8625670  35.1483878  18.6563523
  95.5690398  33.7845487  19.2442833  87.3226091  24.1295959  20.9094575
  86.6754006  24.8285908  20.8159052  88.0927106  24.5632102  21.2770824
  90.7304889  34.3944811  23.9845129  90.5790395  34.1655362  23.0675212
  90.7209568  35.3515412  23.9976474  87.4990225  31.9676723  18.9691395
  88.4282285  32.1187883  18.7960362  87.0781255  32.0560744  18.1140042
  86.2978557  35.9927388  16.7389933  86.1589643  35.6246172  17.6115871
  85.5093153  36.5075027  16.5673890  86.8926709  41.0936484   8.0815469
  87.0678465  40.6224528   8.8961092  86.2059497  41.7202251   8.3096730
  87.8483772  35.3708991  14.1278770  87.5133605  35.3309761  15.0236420
  87.3487718  34.7053707  13.6549181  81.8228016  30.7776621  19.6531352
  81.6847814  30.0456859  20.2542891  82.7332940  30.6885521  19.3715539
  84.4510317  30.4896580  19.1415031  85.1609935  29.8489772  19.1001650
  84.4079625  30.7409475  20.0641212  92.4397096  37.4263933  22.0621610
  92.3809642  36.7423153  21.3952193  92.8416614  38.1682923  21.6102236
  83.1639251  27.4761798  20.9610671  82.6276608  27.0252536  21.6132267
  82.5755959  27.6107707  20.2181135  81.4587794  44.2425847  14.8555329
  81.6984393  44.8744371  15.5334348  80.6156991  43.8913887  15.1420689
  92.4414503  35.3903517  20.2935590  91.5541282  35.0529439  20.4161989
  93.0113054  34.6586548  20.5304356  74.0943650  31.7227609  13.6178642
  74.7814690  31.4089339  13.0299657  73.9391779  32.6268974  13.3445893
  78.8978372  26.6117806  18.0463665  78.8136561  26.0043475  17.3114075
  78.0761078  27.1026824  18.0473162  85.9715656  40.0504970  17.2596833
  85.8985828  40.8559941  17.7716138  85.5293049  40.2496935  16.4344855
  85.7605436  39.2876740  10.7699655  84.9772958  39.8298420  10.8637879
  86.4598181  39.8050719  11.1693896  89.0702086  25.0971369  13.4133860
  89.5670785  24.3441331  13.0934931  88.2989067  25.1335686  12.8477070
  96.9231843  30.8011735  15.0552152  96.9121720  31.6836450  14.6846085
  96.0549223  30.4483285  14.8606689  88.4314340  39.9491804  19.4154992
  89.1442312  40.5839268  19.3430893  87.9404368  40.0455670  18.5994994
  90.1531867  33.8543056  10.9872284  89.2188145  33.9744519  10.8176988
  90.3308535  32.9515523  10.7232294  85.6537055  27.2388752  13.1405545
  85.2834842  26.6859792  13.8286450  86.1496147  26.6346886  12.5880545
  83.4826253  37.6986247  20.2360563  84.1835713  38.3322730  20.3889957
  83.0121368  38.0400979  19.4756202  91.6080649  36.0404197   8.5208470
  91.8840493  35.9260791   9.4302344  90.7385148  35.6421682   8.4820643
  91.5121081  22.0640963  15.5613219  90.5984161  22.2945189  15.7295426
  91.9414182  22.1479407  16.4127252  91.2827539  30.2530855  18.0613113
  90.6298989  30.5006762  17.4065566  91.6607919  29.4394993  17.7275590
  88.2434713  40.2890548  12.1641283  88.4257108  39.4712204  12.6269036
  89.0667699  40.5058240  11.7266173  88.5776879  39.2158733   9.4256332
  89.1064645  38.7051187   8.8126494  88.8405098  38.9001263  10.2901865
  87.3315112  30.9950666  24.5479150  86.6555749  30.8944795  25.2181525
  88.1542746  30.8389879  25.0115147  79.0793971  37.2322602  17.1691666
  79.6647408  36.4866290  17.3019570  78.8818810  37.5426559  18.0528329
  81.9332627  40.2673850  12.1854108  81.2643002  40.7519977  11.7018148
  81.7945496  40.5143070  13.0997486  73.6711626  29.8028202  15.8896109
  73.7095726  29.2691793  16.6833227  73.1651919  29.2763408  15.2707086
  86.0737895  42.3017593  18.7836766  86.6256203  42.4649215  19.5485851
  86.4144089  42.8922031  18.1116791  81.0502388  24.6492743  19.3858651
  81.1143715  25.5107574  18.9736049  80.9869509  24.0366744  18.6531009
  80.5254661  26.7215875  23.0331685  81.1526700  26.3392953  23.6469210
  79.6682580  26.5030077  23.3987378  90.9248769  37.1278851  24.6385421
  91.4688673  37.7408809  24.1440375  90.3435614  37.6858429  25.1552434
  77.3020204  28.5292304   8.9650040  77.5973645  27.6202983   8.9117094
  76.4008239  28.5080044   8.6431042  89.2106282  40.2499569  15.7700448
  89.0857422  39.4489308  15.2611394  89.8685374  40.7445762  15.2814418
  80.8314451  26.6048301  14.9477589  80.1101036  27.2184269  14.8085062
  81.6207706  27.1406066  14.8694235  91.2741191  38.0508589  17.3979999
  90.3271526  37.9313940  17.3258325  91.6223964  37.1631087  17.4806260
  83.6340764  23.9402728  21.2218240  84.1575166  24.1865024  21.9844550
  83.4153097  24.7722762  20.8021378  79.0308045  26.2106402   9.0889365
  78.7020751  25.3303781   8.9064471  79.3847416  26.1554071   9.9765754
  88.2787624  37.8461305  13.5984351  88.1312587  36.9178012  13.7791921
  89.1041118  37.8681396  13.1141426  82.1449868  26.4979372   9.4564843
  82.4845941  27.0265293   8.7343451  82.5921989  26.8359778  10.2323409
  91.8821746  38.6689864  14.6849223  92.8068293  38.4632725  14.5473675
  91.7137049  38.4206265  15.5938565  84.8393309  24.8816423  18.9067911
  84.4990130  24.0824236  19.3088591  84.1332315  25.1818134  18.3344744
  85.4909781  21.9665735  17.3595234  86.3135850  21.4926213  17.2374124
  85.7347845  22.7456219  17.8593920  83.0148360  28.6584856  15.1687213
  82.8692941  28.9725159  16.0611494  82.5373563  29.2769756  14.6158111
  84.8744743  25.6487404  15.2168102  84.8606311  24.7528497  14.8800400
  85.5917171  25.6558067  15.8506388  86.7270873  26.0824744  17.2621230
  86.4688651  27.0041815  17.2605560  86.1955914  25.6855178  17.9521694
  91.6717062  39.1875531  10.0411315  91.8453940  38.6221954   9.2885167
  92.1645953  39.9876426   9.8590805  77.4894022  31.1990200  18.1074874
  76.9447490  31.9750008  18.2395148  78.3673372  31.5461005  17.9493995
  84.2781639  24.5301784  10.4855672  84.3997550  23.6018430  10.6846560
  83.9883681  24.5440470   9.5733988  87.1472829  22.2156694  13.6222392
  87.1694526  22.2796028  12.6674372  87.5640888  21.3761203  13.8162898
  92.6592235  38.5042295   7.1408213  93.3543139  39.1248988   7.3595528
  93.0015385  37.6537647   7.4160591  78.2760044  30.3260096  21.0005031
  77.5341780  30.4742732  21.5869661  77.9552788  30.5868362  20.1371780
  86.2203706  39.8676075  20.7985421  86.5290833  39.6225221  21.6708120
  87.0179188  40.0722713  20.3104291  86.2424319  42.0213984  13.0290797
  85.8029309  41.5290363  13.7223654  86.9932435  41.4786952  12.7882872
  78.7216657  38.2125525  13.0315425  79.5474677  37.9129297  12.6514069
  78.3710709  37.4433148  13.4805214  83.6898191  37.5651993  15.1013099
  83.0678200  36.9022698  14.8015327  84.3603058  37.5913125  14.4186747
  76.9225263  36.1311852  13.9904359  76.0857171  35.7034026  13.8088360
  76.8948908  36.3244295  14.9275150  83.7622718  26.0433781  24.6945605
  83.8110874  26.9195904  24.3123374  84.3045232  25.5011174  24.1217248
  94.2477564  36.5874905  23.9746742  93.4573108  36.5699043  23.4351241
  94.0110918  37.1263198  24.7295779  94.3675439  33.4367371  21.2879470
  94.4173444  33.2717378  22.2294993  94.2589362  32.5694630  20.8977351
  83.2511698  36.1155917   8.5771559  83.3999818  36.7991381   7.9238232
  84.0578141  36.0961007   9.0921015  91.6579201  29.4198299  22.6038777
  92.5589064  29.2804764  22.3122775  91.7327176  29.5852754  23.5436955
  85.9922007  26.7965154  21.4491964  85.1225316  27.0898720  21.1774552
  86.2281487  27.3805599  22.1699227  95.8693636  35.8564312  21.5321492
  95.5778444  36.2194293  22.3684953  95.2565767  35.1431321  21.3534824
  94.1180824  30.9796927  20.0001550  94.5934946  31.1724573  19.1920401
  93.1946389  31.0356113  19.7544934  81.0064331  32.1421094   9.5832628
  80.7610372  31.2383424   9.7812838  81.1760245  32.1438245   8.6412106
  88.6961040  23.0144771  18.9657384  89.2142984  23.7505798  18.6403872
  88.3416173  23.3208764  19.8004143  80.2759978  27.8749452   7.0818790
  79.5829223  27.9493807   6.4258826  80.0311730  27.1109796   7.6040307
  86.7507103  38.6104047   6.0483307  86.1781070  39.2294234   5.5953779
  87.3239897  39.1603409   6.5823229  92.8182493  27.8562687  18.2329856
  93.7699916  27.9560785  18.2542080  92.6485943  27.0640956  18.7427940
  90.8396872  24.9418270  18.4189257  90.2446805  25.2223283  17.7235745
  90.5546569  25.4312171  19.1905998  89.9704363  38.8941197   7.1791889
  90.9035036  38.8286759   7.3824765  89.8827576  39.7297464   6.7206422
  95.2970571  31.0768807  17.3472155  95.2646891  30.1384808  17.5331839
  95.9071194  31.1552844  16.6137980  95.4465059  27.8679850  17.3930438
  94.9304108  27.0838307  17.2060367  96.3305008  27.5398567  17.5576958
  99.1962418  30.2792676  17.0852643  98.4695581  30.1448641  16.4769135
  98.7809705  30.5869505  17.8909361  87.0192594  33.9982606  24.8500016
  87.9395604  34.1761205  25.0440063  86.9842177  33.0538651  24.6979716
  76.2374759  29.1921200  13.7753291  75.9177543  28.3386508  13.4827665
  75.6908187  29.4069778  14.5311258  80.0154667  31.9083641  17.4922797
  80.2340676  32.8400748  17.5110831  80.4280440  31.5491615  18.2777601
  84.8882532  27.4816846  26.8825546  84.7879259  28.4311203  26.8137637
  84.6704074  27.1535085  26.0101616  76.1063019  32.8124111  15.7446413
  75.4126491  32.3978064  15.2316367  76.8536010  32.8544648  15.1479831
  84.7513802  30.9113985  25.6990608  84.2680884  31.7114345  25.9054497
  84.8374741  30.9221930  24.7458052  78.0199762  32.7442365  13.6212427
  77.9970450  32.8430052  12.6694310  78.3300398  33.5907516  13.9429594
  80.6787140  34.8018520  17.7359042  81.6330393  34.7702462  17.6688973
  80.4799663  34.3409144  18.5509268  81.2686522  33.3719636  20.3029839
  82.0879411  33.8663715  20.3264677  81.5423329  32.4551604  20.2747407
  79.0337368  40.3438139  14.7529240  78.8991836  39.5838540  14.1867238
  78.6169431  41.0679039  14.2858029  82.1906494  41.2407456  14.9647682
  82.0738878  42.1852889  14.8626373  81.3698940  40.9381018  15.3533482
  76.5221436  27.7057770  21.0022037  77.1680300  27.1956724  21.4909262
  76.3138587  28.4426452  21.5765462  89.0474828  34.7738617  26.5014177
  89.9165988  34.9479270  26.1400812  88.5681580  35.5933034  26.3789906
  83.2161008  41.8935718  18.1803611  84.1188255  41.9259329  18.4970106
  82.9898378  40.9636169  18.1949947  84.9714610  40.6466705  14.8413689
  84.0210241  40.6468567  14.7278062  85.2747096  39.8999439  14.3249724
  80.8618927  24.8525387  25.0997051  81.7250388  24.4962192  25.3100375
  80.2884338  24.5139282  25.7872455 100.7067304  46.4827243  15.9059452
 101.3445714  46.3633991  15.2022792 100.5888147  47.4308087  15.9647404
  97.5157010  46.4354671  15.8420976  97.1775522  46.3195736  14.9541511
  98.3846778  46.0345837  15.8221983  93.3743826  48.2890148  11.8317867
  92.8108691  48.1980085  11.0634155  93.2596221  47.4690052  12.3120360
  97.9976793  47.5889523  21.8007182  97.9865434  47.1942321  20.9287686
  98.1597433  46.8555596  22.3940953  90.9208258  49.7841339  14.6702088
  91.7129550  49.4432164  14.2548387  91.1604908  49.8936314  15.5904241
  98.9543385  51.9561116   7.1432332  98.3031364  52.5415196   6.7566346
  99.7487747  52.4867310   7.2027370  92.8799012  49.0450253   7.5419467
  93.6529888  48.4979240   7.4032342  93.2324411  49.9094502   7.7533928
  94.7184054  50.3726635  20.7486366  94.4273920  51.2772266  20.6333032
  95.3541039  50.4143163  21.4630436  95.6440261  47.7503483  17.3387726
  96.2403833  47.5259506  16.6244689  95.7015233  47.0088229  17.9413173
 100.2608572  44.2078697  12.9812660 101.0471662  43.7898120  12.6303077
 100.5247277  45.1124789  13.1494308 100.4318650  49.6451547   7.6801317
  99.7964483  49.7186174   8.3922221 100.1016056  50.2345146   7.0020396
  94.9361578  47.1071025   7.3762292  94.8197836  46.4315928   8.0443376
  95.0463838  46.6203399   6.5594445  97.2793119  46.5681172  11.0808981
  96.9151326  46.0411793  11.7921902  98.1360235  46.1779641  10.9075466
 103.1842420  37.8575504  18.3440247 102.8525745  38.7270915  18.1201462
 102.5888033  37.5411788  19.0234277  99.6773939  50.0588050  17.7436160
  99.3774662  50.9613089  17.6351967  99.3324999  49.7920234  18.5957313
  93.1286421  46.5101847  13.7772864  92.2036917  46.3778061  13.9850556
  93.3770834  47.2896067  14.2742806 103.0771083  42.5770591  15.4233597
 102.1687960  42.5085999  15.1292358 103.0258679  43.0542536  16.2515422
  96.8987827  44.0528729   7.0616996  96.7787452  44.4985780   7.9002476
  96.2040415  44.4014047   6.5030534  90.4895232  46.1535121  14.6116653
  90.6187613  46.4069600  15.5256065  89.8092683  46.7462829  14.2921308
  94.6594719  56.8232371  10.7107127  94.5818749  57.7740196  10.7895608
  94.0556363  56.4778243  11.3682054  97.1511949  43.9960236  23.3668494
  96.3745283  44.5554156  23.3571359  97.7902512  44.4817019  23.8883364
 104.9432730  40.7787029  17.2011471 104.3007110  41.0719562  16.5551265
 104.4387658  40.6639949  18.0064668  95.4058321  46.8045690  22.9286461
  96.1473006  47.3430734  22.6521285  94.6995307  47.4311978  23.0858013
 100.8813661  48.9474830  21.5258623 101.2897017  48.5057241  20.7813255
 100.1590922  48.3727458  21.7792816  97.2344731  43.8847437  18.8992180
  98.0805926  44.3086850  19.0426829  97.1743369  43.2281061  19.5930743
 101.2042475  49.5076021  15.2810912 100.5751338  49.6721735  14.5786979
 100.8168138  49.9217630  16.0521876 105.0831707  50.4430459  12.6355275
 104.3982746  50.8229360  12.0852309 105.1675557  51.0525785  13.3687223
 100.3844176  41.5451805  20.5573353 100.1405108  42.2993866  20.0207629
 100.6604107  41.9237153  21.3920600 102.3382639  48.0890418  19.2350619
 102.5499534  48.7322177  18.5585000 102.2912387  47.2552734  18.7672549
  99.9408868  40.7008238  16.1387191  99.0793347  40.9989492  16.4303929
  99.9671303  40.9178637  15.2068224  96.7570437  49.2450429  12.5460997
  97.2208783  49.5238132  11.7565619  96.4927235  48.3433873  12.3634087
  93.6494518  48.7921910  15.4840760  94.2195875  49.2209179  14.8458244
  94.2402630  48.5104495  16.1824946  95.6939323  45.3673581   9.3550562
  96.3963367  45.8194625   9.8224488  95.3619952  44.7257400   9.9830455
  94.1419685  43.9585338  23.7301771  93.5118346  44.6401619  23.9637168
  94.0355773  43.8468419  22.7854910  89.4364657  43.6257134  14.6567695
  88.6463711  43.8814662  14.1807806  89.9275905  44.4405472  14.7619736
 103.4528467  50.9662373  17.4072976 104.2745911  50.5642560  17.1255658
 103.4490870  50.8630607  18.3589092  91.3879403  43.9901713  11.6151172
  90.5910566  44.1020407  12.1334668  91.1604995  44.3288365  10.7492063
  97.2185070  50.5146416  19.5633687  97.2829503  50.9766824  20.3991859
  96.5095994  49.8843781  19.6915997  87.7202360  43.8787624  17.0882686
  87.9710399  44.7634634  17.3540262  88.2561909  43.6992226  16.3157778
  96.9333088  52.1814524   9.4312667  96.7978763  53.0266059   9.8597515
  97.4742901  52.3833801   8.6678601  93.4200428  38.2606104  26.0927022
  93.0267373  37.7072302  26.7674667  94.2366568  38.5716682  26.4833540
  90.3862485  49.6989962  10.0040592  90.8987006  50.4933212  10.1546157
  91.0385198  49.0016252   9.9374194  92.1957370  52.8155718  12.0863345
  92.3723998  53.7373683  11.8984329  92.9914204  52.5014137  12.5157725
  96.3368389  39.6763983  23.6847279  97.0778102  40.2771136  23.6051741
  96.5686311  38.9341620  23.1265321  91.4809727  44.8620350  21.9625509
  91.3663242  43.9605607  22.2632607  90.6254244  45.1084047  21.6110325
  98.5601564  52.8038090  23.5613009  98.1165419  52.0174469  23.2433914
  99.2218778  52.9917241  22.8956900  93.3188686  54.3333892  18.0873688
  93.8696111  54.2050955  17.3150682  92.4800161  54.6328781  17.7368580
 100.6582802  53.0840890  21.5894410 100.6401278  53.9049771  21.0974680
 101.5802723  52.9594965  21.8144552  97.1155857  50.5985020  22.4317919
  97.6484193  49.8373308  22.2017227  96.5869938  50.3058671  23.1742073
 100.2825552  35.7045086  17.9611561  99.9389821  36.5946727  17.8850671
 100.6504514  35.5146743  17.0981146  88.3511402  48.0278616  10.7800163
  89.1886624  48.4375624  10.5633870  88.5289670  47.0878058  10.7500357
  97.8322945  40.5403398  11.5269234  96.9764542  40.1510248  11.3474873
  98.2449897  40.6195358  10.6669020  99.3622092  38.0749741  15.9260794
  98.8586888  38.0379876  15.1128599  99.6552699  38.9842484  15.9857450
  95.6064978  38.1588471  14.9326976  96.4717975  37.9631279  14.5732865
  95.6742487  37.9298822  15.8596332  98.4808569  49.7271012   9.9436731
  97.9529931  48.9923772   9.6309968  97.9796072  50.5045689   9.6976699
 103.4601415  47.9220033  15.0603777 102.8025090  48.6119294  15.1483906
 104.2641815  48.3116465  15.4037763  93.2127297  40.3890678  12.3043342
  93.7871049  40.1665860  11.5716535  93.7998279  40.4579373  13.0571944
 102.2706874  46.2764405  13.1107719 102.7838756  46.9094397  13.6129429
 102.9208098  45.6765601  12.7451079  93.5396884  42.4195139   6.3239228
  92.7034196  42.7569826   6.6448502  93.4001654  42.2844119   5.3866365
  95.5149965  37.2631927  11.0318412  94.8614377  36.9480945  10.4075027
  95.4730439  36.6407668  11.7578235  98.7487705  43.7513861  15.3566059
  97.8310266  43.9728808  15.1987747  99.1647849  43.8260171  14.4977767
  99.5322753  45.1505277  10.4868740 100.2794572  45.6626674  10.1775862
  99.8014342  44.8289329  11.3473133  97.8049403  47.6463817   7.4695694
  96.8960622  47.3622850   7.5668164  97.8344487  48.0662896   6.6099001
 103.0368670  51.2570407  11.2386862 102.5830997  50.4161317  11.2952052
 102.4062637  51.8931805  11.5761642 101.4801610  53.0946903  12.1736680
 101.7724584  53.6551961  11.4549045 101.9900230  53.3875464  12.9289839
  88.3737573  45.3669331  11.4510896  88.1761973  44.7738692  10.7261963
  87.8184237  45.0621542  12.1686835  96.3534297  45.2592438  13.5705489
  96.4082907  44.3066274  13.4947966  95.5425499  45.4151877  14.0546788
  94.2926657  43.8769498  11.3295868  93.4794522  44.1763668  11.7361060
  94.7885651  43.4825186  12.0470350  96.4435235  53.8727255  13.2630133
  96.4011414  54.0988101  12.3338665  97.3597934  53.6390629  13.4115934
  99.8900869  44.3411322  20.1610762 100.2450256  44.5682795  21.0205228
 100.5373000  44.6729699  19.5388017  93.7840732  41.4487853  16.9457103
  94.4240111  41.3076612  16.2480066  92.9518262  41.1622367  16.5695705
 105.6467985  49.5306285  15.8771363 106.0804492  49.4381574  16.7254417
 106.3599566  49.5063785  15.2391379  94.5601036  50.7490284  13.0592096
  95.3541634  50.2540604  12.8574671  93.8492728  50.2208147  12.6959801
  99.3795880  53.1308379  17.4104463  99.4332902  53.6999315  18.1782179
  98.5110661  53.3010264  17.0458500  90.8683799  44.8933365   9.1351848
  89.9381387  44.8317821   9.3521810  90.9641271  44.3709318   8.3388490
  90.7869348  41.4188178  11.7230090  91.0476165  42.3333511  11.6139250
  91.6086520  40.9512621  11.8726703  92.2594273  42.8325935  18.8928914
  92.9317327  42.6243297  18.2441563  91.4324060  42.6348021  18.4534147
 106.5083535  49.5729986  18.4104248 106.7019425  50.4775796  18.6563523
 106.4084153  49.1137405  19.2442833  98.1619845  39.4587876  20.9094575
  97.5147760  40.1577826  20.8159052  98.9320861  39.8924020  21.2770824
 101.5698643  49.7236728  23.9845129 101.4184150  49.4947280  23.0675212
 101.5603323  50.6807330  23.9976474  98.3383980  47.2968641  18.9691395
  99.2676040  47.4479801  18.7960362  97.9175010  47.3852662  18.1140042
  97.1372312  51.3219306  16.7389933  96.9983397  50.9538090  17.6115871
  96.3486908  51.8366945  16.5673890  97.7320464  56.4228402   8.0815469
  97.9072219  55.9516445   8.8961092  97.0453252  57.0494168   8.3096730
  98.6877527  50.7000908  14.1278770  98.3527359  50.6601678  15.0236420
  98.1881472  50.0345624  13.6549181  92.6621771  46.1068538  19.6531352
  92.5241569  45.3748777  20.2542891  93.5726694  46.0177438  19.3715539
  95.2904071  45.8188498  19.1415031  96.0003690  45.1781690  19.1001650
  95.2473380  46.0701392  20.0641212 103.2790850  52.7555851  22.0621610
 103.2203396  52.0715071  21.3952193 103.6810368  53.4974841  21.6102236
  94.0033005  42.8053716  20.9610671  93.4670362  42.3544454  21.6132267
  93.4149714  42.9399624  20.2181135  92.2981549  59.5717765  14.8555329
  92.5378147  60.2036289  15.5334348  91.4550745  59.2205805  15.1420689
 103.2808257  50.7195435  20.2935590 102.3935036  50.3821357  20.4161989
 103.8506808  49.9878466  20.5304356  84.9337404  47.0519527  13.6178642
  85.6208444  46.7381257  13.0299657  84.7785533  47.9560891  13.3445893
  89.7372127  41.9409723  18.0463665  89.6530315  41.3335393  17.3114075
  88.9154833  42.4318742  18.0473162  96.8109411  55.3796887  17.2596833
  96.7379582  56.1851859  17.7716138  96.3686804  55.5788853  16.4344855
  96.5999190  54.6168657  10.7699655  95.8166712  55.1590337  10.8637879
  97.2991935  55.1342637  11.1693896  99.9095840  40.4263287  13.4133860
 100.4064540  39.6733249  13.0934931  99.1382822  40.4627603  12.8477070
 107.7625598  46.1303652  15.0552152 107.7515474  47.0128368  14.6846085
 106.8942977  45.7775203  14.8606689  99.2708094  55.2783721  19.4154992
  99.9836066  55.9131186  19.3430893  98.7798123  55.3747587  18.5994994
 100.9925621  49.1834974  10.9872284 100.0581900  49.3036436  10.8176988
 101.1702290  48.2807441  10.7232294  96.4930809  42.5680670  13.1405545
  96.1228597  42.0151710  13.8286450  96.9889902  41.9638803  12.5880545
  94.3220008  53.0278165  20.2360563  95.0229467  53.6614648  20.3889957
  93.8515123  53.3692896  19.4756202 102.4474404  51.3696115   8.5208470
 102.7234247  51.2552709   9.4302344 101.5778902  50.9713599   8.4820643
 102.3514835  37.3932880  15.5613219 101.4377915  37.6237107  15.7295426
 102.7807937  37.4771324  16.4127252 102.1221294  45.5822772  18.0613113
 101.4692744  45.8298680  17.4065566 102.5001674  44.7686910  17.7275590
  99.0828468  55.6182465  12.1641283  99.2650862  54.8004121  12.6269036
  99.9061454  55.8350158  11.7266173  99.4170633  54.5450651   9.4256332
  99.9458400  54.0343105   8.8126494  99.6798853  54.2293181  10.2901865
  98.1708867  46.3242583  24.5479150  97.4949504  46.2236713  25.2181525
  98.9936501  46.1681797  25.0115147  89.9187726  52.5614520  17.1691666
  90.5041163  51.8158208  17.3019570  89.7212564  52.8718477  18.0528329
  92.7726381  55.5965767  12.1854108  92.1036756  56.0811895  11.7018148
  92.6339251  55.8434988  13.0997486  84.5105381  45.1320120  15.8896109
  84.5489480  44.5983711  16.6833227  84.0045673  44.6055326  15.2707086
  96.9131650  57.6309511  18.7836766  97.4649958  57.7941132  19.5485851
  97.2537843  58.2213949  18.1116791  91.8896143  39.9784661  19.3858651
  91.9537469  40.8399491  18.9736049  91.8263263  39.3658662  18.6531009
  91.3648415  42.0507793  23.0331685  91.9920454  41.6684870  23.6469210
  90.5076334  41.8321995  23.3987378 101.7642524  52.4570768  24.6385421
 102.3082428  53.0700726  24.1440375 101.1829369  53.0150347  25.1552434
  88.1413958  43.8584222   8.9650040  88.4367399  42.9494901   8.9117094
  87.2401994  43.8371962   8.6431042 100.0500037  55.5791486  15.7700448
  99.9251176  54.7781226  15.2611394 100.7079128  56.0737680  15.2814418
  91.6708205  41.9340219  14.9477589  90.9494791  42.5476186  14.8085062
  92.4601461  42.4697984  14.8694235 102.1134945  53.3800506  17.3979999
 101.1665281  53.2605858  17.3258325 102.4617718  52.4923004  17.4806260
  94.4734519  39.2694645  21.2218240  94.9968920  39.5156942  21.9844550
  94.2546852  40.1014680  20.8021378  89.8701800  41.5398320   9.0889365
  89.5414506  40.6595699   8.9064471  90.2241170  41.4845989   9.9765754
  99.1181379  53.1753223  13.5984351  98.9706341  52.2469930  13.7791921
  99.9434872  53.1973313  13.1141426  92.9843623  41.8271290   9.4564843
  93.3239695  42.3557211   8.7343451  93.4315743  42.1651696  10.2323409
 102.7215500  53.9981781  14.6849223 103.6462048  53.7924643  14.5473675
 102.5530804  53.7498182  15.5938565  95.6787064  40.2108340  18.9067911
  95.3383884  39.4116153  19.3088591  94.9726070  40.5110051  18.3344744
  96.3303536  37.2957653  17.3595234  97.1529605  36.8218131  17.2374124
  96.5741599  38.0748137  17.8593920  93.8542114  43.9876773  15.1687213
  93.7086695  44.3017076  16.0611494  93.3767318  44.6061674  14.6158111
  95.7138497  40.9779321  15.2168102  95.7000066  40.0820415  14.8800400
  96.4310925  40.9849985  15.8506388  97.5664628  41.4116662  17.2621230
  97.3082406  42.3333732  17.2605560  97.0349668  41.0147096  17.9521694
 102.5110817  54.5167449  10.0411315 102.6847694  53.9513871   9.2885167
 103.0039708  55.3168344   9.8590805  88.3287776  46.5282118  18.1074874
  87.7841245  47.3041926  18.2395148  89.2067126  46.8752922  17.9493995
  95.1175393  39.8593702  10.4855672  95.2391304  38.9310348  10.6846560
  94.8277435  39.8732388   9.5733988  97.9866583  37.5448612  13.6222392
  98.0088280  37.6087945  12.6674372  98.4034642  36.7053121  13.8162898
  89.1153798  45.6552014  21.0005031  88.3735534  45.8034649  21.5869661
  88.7946543  45.9160280  20.1371780  97.0597461  55.1967992  20.7985421
  97.3684587  54.9517139  21.6708120  97.8572943  55.4014631  20.3104291
  97.0818073  57.3505902  13.0290797  96.6423063  56.8582281  13.7223654
  97.8326190  56.8078870  12.7882872  89.5610412  53.5417443  13.0315425
  90.3868432  53.2421215  12.6514069  89.2104464  52.7725065  13.4805214
  94.5291945  52.8943911  15.1013099  93.9071954  52.2314616  14.8015327
  95.1996812  52.9205043  14.4186747  87.7619017  51.4603769  13.9904359
  86.9250925  51.0325944  13.8088360  87.7342662  51.6536213  14.9275150
  94.6016473  41.3725699  24.6945605  94.6504628  42.2487822  24.3123374
  95.1438987  40.8303092  24.1217248 105.0871318  51.9166822  23.9746742
 104.2966862  51.8990961  23.4351241 104.8504673  52.4555116  24.7295779
 105.2069193  48.7659289  21.2879470 105.2567198  48.6009296  22.2294993
 105.0983117  47.8986548  20.8977351  94.0905452  51.4447834   8.5771559
  94.2393572  52.1283299   7.9238232  94.8971896  51.4252924   9.0921015
 102.4972956  44.7490217  22.6038777 103.3982819  44.6096682  22.3122775
 102.5720930  44.9144672  23.5436955  96.8315761  42.1257071  21.4491964
  95.9619070  42.4190637  21.1774552  97.0675241  42.7097516  22.1699227
 106.7087390  51.1856230  21.5321492 106.4172198  51.5486211  22.3684953
 106.0959521  50.4723238  21.3534824 104.9574578  46.3088845  20.0001550
 105.4328700  46.5016491  19.1920401 104.0340144  46.3648031  19.7544934
  91.8458085  47.4713012   9.5832628  91.6004127  46.5675342   9.7812838
  92.0154000  47.4730162   8.6412106  99.5354795  38.3436688  18.9657384
 100.0536739  39.0797715  18.6403872  99.1809928  38.6500682  19.8004143
  91.1153733  43.2041370   7.0818790  90.4222978  43.2785725   6.4258826
  90.8705484  42.4401713   7.6040307 103.6576247  43.1854605  18.2329856
 104.6093670  43.2852703  18.2542080 103.4879698  42.3932873  18.7427940
 101.6790627  40.2710188  18.4189257 101.0840559  40.5515201  17.7235745
 101.3940324  40.7604089  19.1905998 106.1364325  46.4060725  17.3472155
 106.1040645  45.4676725  17.5331839 106.7464949  46.4844761  16.6137980
 106.2858814  43.1971768  17.3930438 105.7697862  42.4130225  17.2060367
 107.1698762  42.8690485  17.5576958  97.8586349  49.3274524  24.8500016
  98.7789358  49.5053123  25.0440063  97.8235932  48.3830569  24.6979716
  87.0768514  44.5213117  13.7753291  86.7571298  43.6678426  13.4827665
  86.5301942  44.7361695  14.5311258  90.8548421  47.2375558  17.4922797
  91.0734431  48.1692666  17.5110831  91.2674195  46.8783533  18.2777601
  95.7276286  42.8108764  26.8825546  95.6273013  43.7603121  26.8137637
  95.5097829  42.4827003  26.0101616  86.9456774  48.1416029  15.7446413
  86.2520245  47.7269982  15.2316367  87.6929765  48.1836565  15.1479831
  95.5907557  46.2405903  25.6990608  95.1074638  47.0406263  25.9054497
  95.6768496  46.2513848  24.7458052  88.8593516  48.0734283  13.6212427
  88.8364204  48.1721970  12.6694310  89.1694153  48.9199433  13.9429594
  91.5180894  50.1310438  17.7359042  92.4724148  50.0994380  17.6688973
  91.3193418  49.6701061  18.5509268  92.1080276  48.7011554  20.3029839
  92.9273165  49.1955632  20.3264677  92.3817084  47.7843522  20.2747407
  89.8731123  55.6730057  14.7529240  89.7385591  54.9130458  14.1867238
  89.4563185  56.3970957  14.2858029  93.0300249  56.5699374  14.9647682
  92.9132633  57.5144807  14.8626373  92.2092695  56.2672936  15.3533482
  87.3615190  43.0349688  21.0022037  88.0074054  42.5248642  21.4909262
  87.1532342  43.7718369  21.5765462  99.8868583  50.1030535  26.5014177
 100.7559742  50.2771187  26.1400812  99.4075334  50.9224952  26.3789906
  94.0554763  57.2227636  18.1803611  94.9582010  57.2551246  18.4970106
  93.8292133  56.2928087  18.1949947  95.8108365  55.9758623  14.8413689
  94.8603996  55.9760484  14.7278062  96.1140851  55.2291357  14.3249724
  91.7012681  40.1817305  25.0997051  92.5644143  39.8254109  25.3100375
  91.1278092  39.8431199  25.7872455 101.7602012  65.1133257  14.6702088
 102.5523304  64.7724082  14.2548387 101.9998662  65.2228232  15.5904241
 105.5577809  65.7018553  20.7486366 105.2667675  66.6064183  20.6333032
 106.1934793  65.7435080  21.4630436 106.4834016  63.0795401  17.3387726
 107.0797588  62.8551424  16.6244689 106.5408987  62.3380147  17.9413173
 103.9680175  61.8393765  13.7772864 103.0430672  61.7069979  13.9850556
 104.2164588  62.6187984  14.2742806 101.3288986  61.4827039  14.6116653
 101.4581368  61.7361517  15.5256065 100.6486438  62.0754747  14.2921308
 106.2452076  62.1337607  22.9286461 106.9866760  62.6722651  22.6521285
 105.5389061  62.7603896  23.0858013 104.9813439  59.2877255  23.7301771
 104.3512100  59.9693536  23.9637168 104.8749527  59.1760337  22.7854910
 100.2758412  58.9549051  14.6567695  99.4857466  59.2106580  14.1807806
 100.7669659  59.7697389  14.7619736 108.0578825  65.8438334  19.5633687
 108.1223257  66.3058741  20.3991859 107.3489749  65.2135699  19.6915997
  98.5596115  59.2079542  17.0882686  98.8104153  60.0926552  17.3540262
  99.0955663  59.0284143  16.3157778 104.2594182  53.5898021  26.0927022
 103.8661128  53.0364220  26.7674667 105.0760322  53.9008600  26.4833540
 107.1762143  55.0055900  23.6847279 107.9171857  55.6063054  23.6051741
 107.4080066  54.2633538  23.1265321 102.3203481  60.1912268  21.9625509
 102.2056996  59.2897525  22.2632607 101.4647999  60.4375964  21.6110325
 106.4458732  53.4880388  14.9326976 107.3111729  53.2923197  14.5732865
 106.5136241  53.2590740  15.8596332 104.0521051  55.7182596  12.3043342
 104.6264803  55.4957778  11.5716535 104.6392034  55.7871291  13.0571944
 106.3543719  52.5923845  11.0318412 105.7008131  52.2772862  10.4075027
 106.3124193  51.9699585  11.7578235  99.2131328  60.6961249  11.4510896
  99.0155728  60.1030610  10.7261963  98.6577992  60.3913459  12.1686835
 107.1928051  60.5884356  13.5705489 107.2476661  59.6358192  13.4947966
 106.3819254  60.7443795  14.0546788 104.6234486  56.7779771  16.9457103
 105.2633865  56.6368530  16.2480066 103.7912017  56.4914284  16.5695705
 101.6263103  56.7480096  11.7230090 101.8869920  57.6625429  11.6139250
 102.4480275  56.2804538  11.8726703 103.0988028  58.1617853  18.8928914
 103.7711081  57.9535215  18.2441563 102.2717814  57.9639939  18.4534147
 103.5015525  61.4360456  19.6531352 103.3635323  60.7040695  20.2542891
 104.4120449  61.3469356  19.3715539 106.1297826  61.1480415  19.1415031
 106.8397444  60.5073607  19.1001650 106.0867134  61.3993310  20.0641212
 104.8426760  58.1345633  20.9610671 104.3064117  57.6836372  21.6132267
 104.2543468  58.2691542  20.2181135  95.7731159  62.3811444  13.6178642
  96.4602199  62.0673174  13.0299657  95.6179288  63.2852809  13.3445893
 100.5765881  57.2701641  18.0463665 100.4924070  56.6627310  17.3114075
  99.7548587  57.7610659  18.0473162 107.3324564  57.8972587  13.1405545
 106.9622351  57.3443628  13.8286450 107.8283656  57.2930721  12.5880545
 105.1613762  68.3570082  20.2360563 105.8623222  68.9906565  20.3889957
 104.6908877  68.6984814  19.4756202 100.7581480  67.8906437  17.1691666
 101.3434917  67.1450125  17.3019570 100.5606319  68.2010394  18.0528329
  95.3499135  60.4612038  15.8896109  95.3883235  59.9275628  16.6833227
  94.8439428  59.9347243  15.2707086 102.7289897  55.3076578  19.3858651
 102.7931224  56.1691409  18.9736049 102.6657018  54.6950580  18.6531009
 102.2042170  57.3799711  23.0331685 102.8314209  56.9976788  23.6469210
 101.3470089  57.1613913  23.3987378 102.5101960  57.2632136  14.9477589
 101.7888545  57.8768104  14.8085062 103.2995215  57.7989901  14.8694235
 105.3128273  54.5986563  21.2218240 105.8362675  54.8448859  21.9844550
 105.0940606  55.4306598  20.8021378 100.7095554  56.8690237   9.0889365
 100.3808260  55.9887616   8.9064471 101.0634925  56.8137906   9.9765754
 106.5180818  55.5400258  18.9067911 106.1777639  54.7408071  19.3088591
 105.8119824  55.8401969  18.3344744 107.1697290  52.6249570  17.3595234
 107.9923359  52.1510049  17.2374124 107.4135354  53.4040054  17.8593920
 104.6935869  59.3168691  15.1687213 104.5480449  59.6308994  16.0611494
 104.2161072  59.9353591  14.6158111 106.5532252  56.3071239  15.2168102
 106.5393820  55.4112332  14.8800400 107.2704680  56.3141903  15.8506388
  99.1681531  61.8574035  18.1074874  98.6234999  62.6333843  18.2395148
 100.0460881  62.2044840  17.9493995  99.9547553  60.9843932  21.0005031
  99.2129289  61.1326567  21.5869661  99.6340297  61.2452197  20.1371780
  98.6012772  66.7895687  13.9904359  97.7644680  66.3617861  13.8088360
  98.5736417  66.9828130  14.9275150 105.4410227  56.7017617  24.6945605
 105.4898383  57.5779740  24.3123374 105.9832741  56.1595010  24.1217248
 107.6709516  57.4548989  21.4491964 106.8012825  57.7482555  21.1774552
 107.9068996  58.0389434  22.1699227  97.9162268  59.8505035  13.7753291
  97.5965052  58.9970343  13.4827665  97.3695696  60.0653613  14.5311258
 101.6942176  62.5667476  17.4922797 101.9128185  63.4984584  17.5110831
 102.1067949  62.2075450  18.2777601 106.5670041  58.1400682  26.8825546
 106.4666768  59.0895039  26.8137637 106.3491583  57.8118921  26.0101616
  97.7850528  63.4707947  15.7446413  97.0914000  63.0561899  15.2316367
  98.5323519  63.5128483  15.1479831 106.4301311  61.5697821  25.6990608
 105.9468393  62.3698181  25.9054497 106.5162250  61.5805765  24.7458052
  99.6987271  63.4026200  13.6212427  99.6757959  63.5013888  12.6694310
 100.0087907  64.2491351  13.9429594 102.3574649  65.4602355  17.7359042
 103.3117902  65.4286298  17.6688973 102.1587172  64.9992979  18.5509268
 102.9474031  64.0303471  20.3029839 103.7666920  64.5247550  20.3264677
 103.2210838  63.1135440  20.2747407  98.2008945  58.3641605  21.0022037
  98.8467808  57.8540559  21.4909262  97.9926096  59.1010287  21.5765462
 102.5406436  55.5109222  25.0997051 103.4037897  55.1546027  25.3100375
 101.9671847  55.1723117  25.7872455   3.1496909  54.9747085  80.1331411
   2.3960617  54.4054483  79.9775416   3.2844450  54.9409749  81.0802046
   3.5603324  55.1322695  82.8651656   4.2906712  54.8707983  83.4259359
   2.9510269  54.3951417  82.9053724   1.6418621  53.2730557  83.4626107
   0.9151785  53.1386522  82.8542599   1.2265908  53.5807386  84.2682825
   1.5667489  52.8008610  79.5902960   1.0067047  52.8701800  80.3634522
   0.9610992  52.6249595  78.8702456   3.1523507  69.4765124  82.2832916
   3.7901917  69.3571872  81.5796256   3.0344350  70.4245968  82.3420868
   1.3999588  74.9498996  73.5205796   0.7487568  75.5353077  73.1339810
   2.1943951  75.4805191  73.5800834   2.7064776  67.2016578  79.3586124
   3.4927865  66.7836001  79.0076541   2.9703480  68.1062670  79.5267772
   2.8774853  72.6389428  74.0574780   2.2420686  72.7124055  74.7695685
   2.5472259  73.2283027  73.3793860   8.1073203  67.1391811  80.2619102
   8.8398375  66.5691028  80.4956932   7.3512558  66.7513412  80.7025608
   5.6298623  60.8513385  84.7213711   5.2981948  61.7208796  84.4974926
   5.0344236  60.5349669  85.4007741   2.1230143  73.0525931  84.1209623
   1.8230866  73.9550970  84.0125431   1.7781202  72.7858115  84.9730776
   5.5227286  65.5708472  81.8007061   4.6144164  65.5023880  81.5065822
   5.4714882  66.0480417  82.6288886   7.3888933  63.7724910  83.5784935
   6.7463313  64.0657443  82.9324729   6.8843861  63.6577830  84.3838131
   5.0429096  67.5188083  74.2670794   5.9546953  67.7515470  74.0918491
   4.5338744  68.1025127  73.7045873   3.3269864  71.9412711  87.9032086
   3.7353220  71.4995122  87.1586719   2.6047126  71.3665339  88.1566279
   3.6498679  72.5013902  81.6584375   3.0207541  72.6659616  80.9560443
   3.2624341  72.9155511  82.4295339   7.5287911  73.4368339  79.0128739
   6.8438949  73.8167241  78.4625772   7.6131760  74.0463666  79.7460687
   2.8300380  64.5389686  86.9346817   2.5861311  65.2931747  86.3981093
   3.1060310  64.9175034  87.7694064   4.7838842  71.0828299  85.6124083
   4.9955738  71.7260058  84.9358464   4.7368591  70.2490615  85.1446013
   2.3865071  63.6946119  82.5160655   1.5249550  63.9927373  82.8077392
   2.4127506  63.9116518  81.5841687   5.8984670  73.9600254  83.7846440
   6.7202114  73.5580441  83.5029122   5.8947073  73.8568488  84.7362556
  13.9890663  70.3039002  80.1331411  13.2354372  69.7346400  79.9775416
  14.1238205  70.2701667  81.0802046   3.1039006  76.0778771  87.9667874
   3.0857481  76.8987652  87.4748143   4.0258926  75.9532846  88.1918015
   2.7281755  58.6982967  84.3385024   2.3846024  59.5884608  84.2624135
   3.0960718  58.5084624  83.4754609   2.6932038  68.6891578  72.8457459
   2.1778661  69.4596182  73.0845847   2.4209346  68.0156714  73.4690521
   1.8078295  61.0687622  82.3034258   1.3043091  61.0317757  81.4902063
   2.1008902  61.9780364  82.3630914   7.6666312  71.4423932  74.7810633
   6.8895755  71.1035092  74.3365795   8.3457793  71.4476556  74.1065598
   2.4818341  66.5618670  74.6717241   2.1768476  66.8764819  75.5227384
   3.4348783  66.6400090  74.7144574   5.9057619  70.9157914  81.4377241
   5.2481293  71.6057175  81.5257369   6.7098018  71.3054346  81.7811227
   4.7163077  69.2702286  79.4881183   5.2294959  69.9032278  79.9902892
   5.3664301  68.6703482  79.1224543   1.9785452  79.2486611  72.2441854
   1.3047150  79.5518307  72.8526812   2.3651274  80.0515691  71.8947311
   1.9778956  68.1443158  76.8642203   2.7250775  68.6564555  76.5549325
   2.2470546  67.8227210  77.7246597   5.4824874  74.2508288  77.6160325
   5.0287201  73.4099198  77.6725516   4.8518840  74.8869686  77.9535105
   4.4257793  65.1800274  78.8460993   3.6880550  64.6677660  79.1771235
   4.6784567  64.7400655  78.0344270   3.9257813  76.0884784  78.5510143
   4.2180787  76.6489842  77.8322509   4.4356433  76.3813345  79.3063302
   4.5269421  57.9576526  79.4402762   4.8328297  57.0973889  79.1528677
   5.2522025  58.5494146  79.2401756   2.3357072  67.3349203  86.5384226
   2.6906460  67.5620676  87.3978692   2.9829203  67.6667580  85.9161481
   8.0654809  70.4567639  77.2433555   7.9272707  70.6469235  76.3154744
   7.7091028  71.2187022  77.7001606   8.0924188  72.5244166  82.2544826
   8.5260695  72.4319455  83.1027880   8.8055769  72.5001666  81.6164842
   1.8252083  76.1246260  83.7877927   1.8789106  76.6937196  84.5555643
   0.9566865  76.2948145  83.4231964   8.9539738  72.5667867  84.7877712
   9.1475628  73.4713677  85.0336987   8.8540356  72.1075286  85.6216297
   1.1333730  73.6938789  80.5052234   0.7983563  73.6539559  81.4009884
   0.6337676  73.0283505  80.0322644   4.0692922  71.0394824  70.7789294
   3.4522092  70.3141652  70.6822347   3.6009410  71.8004184  70.4356368
   5.7247053  75.7493732  88.4395074   5.6659599  75.0652952  87.7725657
   6.1266572  76.4912722  87.9875700   5.7264461  73.7133316  86.6709054
   4.8391239  73.3759238  86.7935453   6.2963012  72.9816347  86.9077819
   2.3552044  63.4201168  79.7907324   2.8520743  62.6671130  79.4708394
   1.5839025  63.4565484  79.2250533  10.2081801  69.1241533  81.4325616
  10.1971677  70.0066249  81.0619549   9.3399181  68.7713084  81.2380153
   3.4381824  72.1772855  77.3645747   2.5038103  72.2974317  77.1950452
   3.6158493  71.2745322  77.1005757   6.8254376  68.0190174  77.8995782
   7.2914828  68.8518166  77.8256084   7.2761876  67.5535156  78.6041040
   4.8930607  74.3633995  74.8981934   5.1690451  74.2490590  75.8075808
   4.0235106  73.9651480  74.8594107   4.7971039  60.3870761  81.9386683
   3.8834118  60.6174988  82.1068890   5.2264140  60.4709205  82.7900715
   4.5677497  68.5760653  84.4386577   3.9148947  68.8236561  83.7839030
   4.9457877  67.7624791  84.1049054   1.5284671  78.6120346  78.5414747
   1.7107065  77.7942002  79.0042500   2.3517657  78.8288039  78.1039637
   1.8626836  77.5388531  75.8029796   2.3914603  77.0280986  75.1899958
   2.1255056  77.2231062  76.6675329   2.4956240  78.5729367  82.1473912
   2.3707380  77.7719107  81.6384858   3.1535331  79.0675561  81.6587882
   4.5591149  76.3738387  83.7753462   3.6121484  76.2543738  83.7031789
   4.9073922  75.4860885  83.8579724   1.5637582  76.1691103  79.9757814
   1.4162544  75.2407811  80.1565385   2.3891075  76.1911194  79.4914890
   5.1671704  76.9919662  81.0622687   6.0918251  76.7862524  80.9247138
   4.9987007  76.7436063  81.9712029   1.5599096  64.0228941  74.9689932
   1.7762711  64.9053579  74.6678760   1.0793163  63.6315155  74.2395574
   4.9567020  77.5105330  76.4184779   5.1303897  76.9451752  75.6658631
   5.4495911  78.3106225  76.2364269  10.8106411  70.2741753  78.0375078
  11.2537557  69.5249078  77.6394202   9.9332921  70.2651889  77.6548810
   5.9442192  76.8272094  73.5181677   6.6393097  77.4478787  73.7368992
   6.2865343  75.9767445  73.7934055   7.8433616  74.2771800  75.0469008
   8.3684940  74.6159072  74.3218328   7.7555968  73.3418815  74.8632142
   7.5327522  74.9104703  90.3520206   6.7423065  74.8928842  89.8124705
   7.2960876  75.4492997  91.1069242   7.6525397  71.7597170  87.6652934
   7.7023402  71.5947177  88.6068457   7.5439320  70.8924429  87.2750815
   4.9429159  67.7428098  88.9812241   5.8439022  67.6034562  88.6896239
   5.0177134  67.9082552  89.9210418   9.1543593  74.1794111  87.9094956
   8.8628402  74.5424092  88.7458417   8.5415725  73.4661119  87.7308288
  10.3539276  71.7446991  80.4297526  11.1886167  72.1836795  80.5935086
  10.4898405  71.2685644  79.6105772   7.4030782  69.3026726  86.3775014
   7.8784903  69.4954372  85.5693865   6.4796347  69.3585912  86.1318397
   1.9810998  61.3374569  85.3430848   2.4992942  62.0735596  85.0177336
   1.6266131  61.6438563  86.1777607   2.2323592  57.7574852  80.8631744
   2.5125346  57.0898041  81.4892171   3.0174199  57.9503947  80.3506408
   6.1032451  66.1792486  84.6103319   7.0549874  66.2790584  84.6315543
   5.9335901  65.3870754  85.1201404   4.1246830  63.2648069  84.7962720
   3.5296762  63.5453082  84.1009209   3.8396527  63.7541970  85.5679461
   3.2554321  77.2170996  73.5565353   4.1884994  77.1516558  73.7598228
   3.1677533  78.0527263  73.0979885   5.8842337  76.5336866  70.5169300
   5.8055969  76.1996730  71.4105058   6.7052004  77.0258634  70.5160773
   8.5820529  69.3998606  83.7245619   8.5496849  68.4614606  83.9105303
   9.1921152  69.4782642  82.9911444   8.7315017  66.1909649  83.7703902
   8.2154066  65.4068106  83.5833831   9.6154966  65.8628366  83.9350422
   6.3925744  59.9350665  79.7299715   6.1950565  59.6265753  80.6143047
   7.0025450  60.6612303  79.8597645  14.3997078  70.4614612  82.8651656
  15.1300467  70.1999901  83.4259359  13.7904024  69.7243334  82.9053724
  12.4812375  68.6022475  83.4626107  11.7545539  68.4678440  82.8542599
  12.0659662  68.9099304  84.2682825   2.1499391  59.8159571  77.4796246
   2.7030429  60.2355025  78.1386269   2.3869477  58.8895320  77.5219202
   5.5278198  61.9260097  76.9874910   4.9476867  62.5844901  76.6052963
   5.2614130  61.1037441  76.5762328   3.9781764  61.3265154  79.1896231
   4.4781542  61.4381689  78.3810550   4.6217372  61.0226207  79.8297039
   4.3103076  64.0860187  76.0431259   3.4228931  64.3709838  75.8251453
   4.7257065  63.9253950  75.1958536   7.6617612  64.1106708  79.7585598
   8.4378002  64.6003160  80.0310215   6.9365746  64.5364762  80.2157467
  10.0990170  64.8234327  80.8159539  10.6934661  64.5830063  80.1052847
  10.1716754  64.1041458  81.4433075   3.4546289  73.8504862  70.1379279
   4.1582139  74.0554864  70.7536934   2.7308938  74.4181624  70.4028362
   4.2844099  69.6014723  76.2581549   4.2279301  70.0583274  75.4189181
   4.8372442  68.8405407  76.0804392   8.0948905  65.3904455  77.0831668
   7.8385840  64.9901090  77.9139876   7.4701773  66.1048249  76.9581808
  12.4061243  68.1300528  79.5902960  11.8460801  68.1993717  80.3634522
  11.8004747  67.9541513  78.8702456   5.3632987  74.2887391  72.1877739
   6.1978590  73.8568589  72.0055214   5.2017329  74.1169405  73.1154633
   5.0178879  70.7919504  73.5534078   4.9627683  70.6263776  72.6122522
   4.3924934  71.4995537  73.7096268   2.1427124  56.8870390  77.3865333
   1.3759519  56.3328876  77.5322016   2.5537829  56.9592259  78.2479485
  13.9917262  84.8057042  82.2832916  14.6295672  84.6863789  81.5796256
  13.8738105  85.7537886  82.3420868  10.8006968  84.7584470  82.2194440
  10.4625479  84.6425535  81.3314975  11.6696736  84.3575635  82.1995446
   6.6593784  86.6119946  78.2091331   6.0958649  86.5209883  77.4407619
   6.5446179  85.7919851  78.6893824  11.2826751  85.9119322  88.1780646
  11.2715392  85.5172120  87.3061149  11.4447390  85.1785394  88.7714417
   4.2058216  88.1071138  81.0475552   4.9979507  87.7661963  80.6321851
   4.4454866  88.2166113  81.9677705  12.2393342  90.2790914  73.5205796
  11.5881322  90.8644995  73.1339810  13.0337705  90.8097109  73.5800834
   6.1648969  87.3680051  73.9192930   6.9379845  86.8209038  73.7805806
   6.5174368  88.2324301  74.1307392   8.9290219  86.0733282  83.7161189
   9.5253791  85.8489305  83.0018152   8.9865190  85.3318028  84.3186637
   8.5015247  83.5272717  71.5511380   8.7540768  83.0054239  70.7894843
   7.5639806  83.3638863  71.6538064  13.5458530  82.5308496  79.3586124
  14.3321619  82.1127919  79.0076541  13.8097234  83.4354588  79.5267772
  13.7168607  87.9681346  74.0574780  13.0814440  88.0415973  74.7695685
  13.3866014  88.5574945  73.3793860  18.9466957  82.4683729  80.2619102
  19.6792129  81.8982946  80.4956932  18.1906313  82.0805329  80.7025608
   8.2211536  85.4300823  73.7535755   8.1047794  84.7545727  74.4216840
   8.3313796  84.9433197  72.9367908  10.5643077  84.8910970  77.4582445
  10.2001284  84.3641591  78.1695366  11.4210193  84.5009440  77.2848930
  16.4692378  76.1805303  84.7213711  16.1375702  77.0500714  84.4974926
  15.8737991  75.8641587  85.4007741  10.2048564  79.9200870  72.4543793
  10.3722966  80.7881107  72.8214264  10.0145733  80.0828152  71.5305082
  12.9623897  88.3817849  84.1209623  12.6624620  89.2842888  84.0125431
  12.6174957  88.1150032  84.9730776   6.4136379  84.8331646  80.1546328
   5.4886875  84.7007860  80.3624020   6.6620792  85.6125865  80.6516270
  16.3621041  80.9000389  81.8007061  15.4537918  80.8315798  81.5065822
  16.3108637  81.3772334  82.6288886  10.1837785  82.3758528  73.4390460
  10.0637410  82.8215578  74.2775940   9.4890373  82.7243845  72.8803998
   3.7745190  84.4764919  80.9890117   3.9037571  84.7299398  81.9029529
   3.0942641  85.0692627  80.6694772  18.2282687  79.1016828  83.5784935
  17.5857068  79.3949361  82.9324729  17.7237616  78.9869748  84.3838131
  15.8822851  82.8480001  74.2670794  16.7940707  83.0807388  74.0918491
  15.3732498  83.4317045  73.7045873  14.1663619  87.2704629  87.9032086
  14.5746975  86.8287039  87.1586719  13.4440880  86.6957256  88.1566279
  10.5194689  82.2077235  85.2765643  11.3655884  82.6316649  85.4200292
  10.4593326  81.5510860  85.9704207  14.4892433  87.8305819  81.6584375
  13.8601296  87.9951533  80.9560443  14.1018095  88.2447429  82.4295339
  18.3681665  88.7660257  79.0128739  17.6832703  89.1459159  78.4625772
  18.4525514  89.3755584  79.7460687  13.6694134  79.8681604  86.9346817
  13.4255066  80.6223664  86.3981093  13.9454065  80.2466951  87.7694064
  15.6232597  86.4120216  85.6124083  15.8349492  87.0551976  84.9358464
  15.5762345  85.5782533  85.1446013  13.2258826  79.0238037  82.5160655
  12.3643305  79.3219290  82.8077392  13.2521260  79.2408436  81.5841687
  10.0420395  87.5680227  78.9234460  10.5058741  87.8467930  78.1339083
   9.7777193  86.6663672  78.7407551   6.9344476  87.1151709  81.8614224
   7.5045833  87.5438977  81.2231708   7.5252588  86.8334294  82.5598409
   8.9789281  83.6903380  75.7324026   9.6813325  84.1424423  76.1997952
   8.6469910  83.0487199  76.3603919   2.7214615  81.9486932  81.0341159
   1.9313669  82.2044461  80.5581270   3.2125863  82.7635270  81.1393200
  16.7378425  89.2892172  83.7846440  17.5595868  88.8872359  83.5029122
  16.7340828  89.1860406  84.7362556   4.6729361  82.3131512  77.9924636
   3.8760524  82.4250206  78.5108132   4.4454953  82.6518164  77.1265526
  24.8284418  85.6330920  80.1331411  24.0748126  85.0638318  79.9775416
  24.9631959  85.5993585  81.0802046  10.2183046  90.5044322  75.8086131
  10.0828721  91.3495858  76.2370979  10.7592858  90.7063600  75.0452065
   3.6712443  88.0219760  76.3814056   4.1836964  88.8163011  76.5319621
   4.3235156  87.3246051  76.3147657   5.4807328  91.1385517  78.4636809
   5.6573956  92.0603481  78.2757793   6.2764161  90.8243936  78.8931189
   9.6218346  77.9993781  90.0620743  10.3628060  78.6000934  89.9825205
   9.8536269  77.2571419  89.5038785  13.9432760  91.4070689  87.9667874
  13.9251236  92.2279570  87.4748143  14.8652680  91.2824764  88.1918015
  13.5675509  74.0274884  84.3385024  13.2239779  74.9176526  84.2624135
  13.9354472  73.8376542  83.4754609   1.6361360  86.3508415  77.1573626
   2.4736582  86.7605423  76.9407334   1.8139628  85.4107857  77.1273820
  13.5325792  84.0183495  72.8457459  13.0172416  84.7888100  73.0845847
  13.2603101  83.3448632  73.4690521  11.1172903  78.8633196  77.9042698
  10.2614499  78.4740047  77.7248336  11.5299855  78.9425157  77.0442483
  12.6472050  76.3979539  82.3034258  12.1436845  76.3609675  81.4902063
  12.9402657  77.3072282  82.3630914   8.8914936  76.4818269  81.3100439
   9.7567932  76.2861078  80.9506329   8.9592445  76.2528621  82.2369796
  18.5060066  86.7715850  74.7810633  17.7289509  86.4327010  74.3365795
  19.1851547  86.7768473  74.1065598  13.3212095  81.8910587  74.6717241
  13.0162231  82.2056737  75.5227384  14.2742537  81.9692007  74.7144574
  11.7658527  88.0500811  76.3210195  11.2379889  87.3153570  76.0083432
  11.2646030  88.8275487  76.0750163  16.7451373  86.2449831  81.4377241
  16.0875048  86.9349093  81.5257369  17.5491772  86.6346263  81.7811227
   6.4977255  78.7120477  78.6816806   7.0721007  78.4895659  77.9489999
   7.0848237  78.7809172  79.4345407  15.5556832  84.5994204  79.4881183
  16.0688714  85.2324196  79.9902892  16.2058056  83.9995399  79.1224543
   6.8246842  80.7424938  72.7012691   5.9884154  81.0799625  73.0221966
   6.6851612  80.6073918  71.7639828   8.7999922  75.5861726  77.4091876
   8.1464335  75.2710743  76.7848490   8.7580397  74.9637466  78.1351698
   9.9111127  85.8681021  69.3245168   9.0038189  85.6370275  69.5236317
  10.4082159  85.0718640  69.5119149  12.8179206  94.5778528  72.2441854
  12.1440905  94.8810225  72.8526812  13.2045028  95.3807609  71.8947311
  12.0337663  82.0743660  81.7339523  11.1160224  82.2958607  81.5761211
  12.4497806  82.1489970  80.8751230  12.8172711  83.4735075  76.8642203
  13.5644530  83.9856472  76.5549325  13.0864300  83.1519128  77.7246597
  11.0899361  85.9693616  73.8469158  10.1810580  85.6852649  73.9441627
  11.1194445  86.3892694  72.9872465  16.3218628  89.5800205  77.6160325
  15.8680955  88.7391115  77.6725516  15.6912595  90.2161604  77.9535105
  15.2651548  80.5092191  78.8460993  14.5274305  79.9969578  79.1771235
  15.5178321  80.0692573  78.0344270  14.7651567  91.4176702  78.5510143
  15.0574542  91.9781759  77.8322509  15.2750188  91.7105263  79.3063302
  15.3663175  73.2868443  79.4402762  15.6722052  72.4265807  79.1528677
  16.0915780  73.8786064  79.2401756   1.6587531  83.6899130  77.8284360
   1.4611931  83.0968491  77.1035426   1.1034195  83.3851340  78.5460299
   9.6384255  83.5822237  79.9478953   9.6932865  82.6296073  79.8721430
   8.8275457  83.7381676  80.4320251  10.7875449  87.5102360  71.1857236
  10.3494878  86.7938219  70.7262874  11.5285889  87.7378474  70.6242328
   7.5776615  82.1999296  77.7069332   6.7644480  82.4993467  78.1134524
   8.0735609  81.8054985  78.4243814   9.7285193  92.1957053  79.6403597
   9.6861371  92.4217900  78.7112129  10.6447891  91.9620428  79.7889398
  13.1750826  82.6641121  86.5384226  13.5300214  82.8912594  87.3978692
  13.8222958  82.9959498  85.9161481  18.9048563  85.7859557  77.2433555
  18.7666462  85.9761153  76.3154744  18.5484782  86.5478939  77.7001606
   7.0690689  79.7717652  83.3230567   7.7090069  79.6306411  82.6253530
   6.2368220  79.4852165  82.9469169  18.9317943  87.8536084  82.2544826
  19.3654450  87.7611373  83.1027880  19.6449524  87.8293584  81.6164842
   7.8450993  89.0720082  79.4365559   8.6391592  88.5770402  79.2348134
   7.1342686  88.5437945  79.0733265  12.6645838  91.4538178  83.7877927
  12.7182860  92.0229114  84.5555643  11.7960619  91.6240063  83.4231964
   4.1533757  83.2163164  75.5125312   3.2231345  83.1547619  75.7295274
   4.2491229  82.6939117  74.7161953   4.0719306  79.7417977  78.1003554
   4.3326123  80.6563310  77.9912714   4.8936478  79.2742419  78.2500166
   5.5444231  81.1555734  85.2702378   6.2167285  80.9473096  84.6215027
   4.7174018  80.9577820  84.8307610  19.7933493  87.8959784  84.7877712
  19.9869383  88.8005595  85.0336987  19.6934111  87.4367203  85.6216297
  11.4469803  77.7817675  87.2868039  10.7997718  78.4807625  87.1932515
  12.2170819  78.2153819  87.6544287  11.6233938  85.6198440  85.3464859
  12.5525998  85.7709599  85.1733826  11.2024968  85.7082461  84.4913505
  10.4222269  89.6449104  83.1163396  10.2833355  89.2767889  83.9889335
   9.6336866  90.1596744  82.9447354  11.0170421  94.7458201  74.4588933
  11.1922177  94.2746244  75.2734556  10.3303209  95.3723967  74.6870194
  11.9727485  89.0230707  80.5052234  11.6377317  88.9831477  81.4009884
  11.4731430  88.3575423  80.0322644  14.9086676  86.3686741  70.7789294
  14.2915847  85.6433569  70.6822347  14.4403165  87.1296102  70.4356368
   8.5754029  84.1418296  85.5188495   9.2853648  83.5011488  85.4775113
   8.5323337  84.3931191  86.4414676  16.5640808  91.0785650  88.4395074
  16.5053354  90.3944870  87.7725657  16.9660326  91.8204640  87.9875700
   7.2882963  81.1283514  87.3384134   6.7520320  80.6774253  87.9905731
   6.6999672  81.2629423  86.5954599   6.6985222  80.5872166  69.9010598
   5.8214688  80.4660966  69.5372845   7.1742975  79.7958244  69.6489487
  16.5658215  89.0425234  86.6709054  15.6784994  88.7051155  86.7935453
  17.1356766  88.3108265  86.9077819   3.0222084  80.2639522  84.4237129
   2.9380273  79.6565191  83.6887539   2.2004791  80.7548540  84.4246625
   9.8849148  92.9398456  77.1473119   9.1016670  93.4820136  77.2411343
  10.5841893  93.4572436  77.5467360  13.1945798  78.7493085  79.7907324
  13.6914498  77.9963048  79.4708394  12.4232780  78.7857402  79.2250533
  21.0475556  84.4533451  81.4325616  21.0365432  85.3358166  81.0619549
  20.1792935  84.1005002  81.2380153  14.2775579  87.5064773  77.3645747
  13.3431858  87.6266235  77.1950452  14.4552247  86.6037239  77.1005757
   9.7780767  80.8910468  79.5179009   9.4078555  80.3381509  80.2059914
  10.2739859  80.2868602  78.9654009  17.6648130  83.3482092  77.8995782
  18.1308582  84.1810083  77.8256084  18.1155631  82.8827073  78.6041040
  15.7324361  89.6925913  74.8981934  16.0084205  89.5782508  75.8075808
  14.8628860  89.2943398  74.8594107  15.6364793  75.7162679  81.9386683
  14.7227873  75.9466906  82.1068890  16.0657894  75.8001123  82.7900715
  15.4071252  83.9052571  84.4386577  14.7542702  84.1528478  83.7839030
  15.7851631  83.0916709  84.1049054  12.3678425  93.9412264  78.5414747
  12.5500820  93.1233920  79.0042500  13.1911411  94.1579956  78.1039637
  12.7020591  92.8680449  75.8029796  13.2308357  92.3572904  75.1899958
  12.9648810  92.5522979  76.6675329   5.1746101  78.3014459  85.7632115
   5.2387427  79.1629290  85.3509512   5.1113221  77.6888461  85.0304473
   1.4263916  82.1814021  75.3423504   1.7217357  81.2724699  75.2890557
   0.5251952  82.1601760  75.0204506  13.3349995  93.9021285  82.1473912
  13.2101134  93.1011025  81.6384858  13.9929086  94.3967478  81.6587882
   4.9558163  80.2570017  81.3251052   4.2344749  80.8705985  81.1858526
   5.7451419  80.7927782  81.2467698  15.3984903  91.7030305  83.7753462
  14.4515239  91.5835656  83.7031789  15.7467676  90.8152803  83.8579724
   7.7584476  77.5924444  87.5991704   8.2818878  77.8386740  88.3618013
   7.5396810  78.4244479  87.1794841   3.1551758  79.8628118  75.4662829
   2.8264464  78.9825497  75.2837935   3.5091128  79.8075787  76.3539218
  12.4031336  91.4983021  79.9757814  12.2556299  90.5699729  80.1565385
  13.2284830  91.5203112  79.4914890   6.2693581  80.1501088  75.8338307
   6.6089653  80.6787009  75.1116915   6.7165701  80.4881494  76.6096873
  16.0065458  92.3211580  81.0622687  16.9312006  92.1154441  80.9247138
  15.8380762  92.0727981  81.9712029   8.9637021  78.5338139  85.2841375
   8.6233842  77.7345952  85.6862055   8.2576028  78.8339850  84.7118208
   9.6153493  75.6187451  83.7368698  10.4379563  75.1447930  83.6147588
   9.8591557  76.3977935  84.2367384   8.2561728  78.6475710  74.0331599
   8.9770090  79.0256963  73.5295316   7.6327032  79.3664587  74.1366577
  12.3992851  79.3520859  74.9689932  12.6156465  80.2345497  74.6678760
  11.9186918  78.9607072  74.2395574   7.1392072  82.3106572  81.5460676
   6.9936653  82.6246875  82.4384958   6.6617276  82.9291472  80.9931575
   8.9988455  79.3009120  81.5941566   8.9850024  78.4050213  81.2573864
   9.7160883  79.3079784  82.2279852  10.8514586  79.7346460  83.6394693
  10.5932363  80.6563531  83.6379024  10.3199626  79.3376895  84.3295157
  15.7960774  92.8397247  76.4184779  15.9697652  92.2743670  75.6658631
  16.2889666  93.6398142  76.2364269   8.4025351  78.1823500  76.8629136
   8.5241262  77.2540146  77.0620023   8.1127393  78.1962186  75.9507451
  11.2716541  75.8678411  79.9995856  11.2938238  75.9317744  79.0447835
  11.6884600  75.0282919  80.1936362  21.6500166  85.6033670  78.0375078
  22.0931312  84.8540995  77.6394202  20.7726676  85.5943807  77.6548810
  16.7835947  92.1564012  73.5181677  17.4786852  92.7770704  73.7368992
  17.1259097  91.3059363  73.7934055  18.6827370  89.6063717  75.0469008
  19.2078694  89.9450990  74.3218328  18.5949723  88.6710733  74.8632142
  10.3668031  95.6735701  79.4064261   9.9273021  95.1812079  80.0997118
  11.1176148  95.1308668  79.1656336   7.8141903  91.2173710  81.4786563
   7.1921912  90.5544415  81.1788790   8.4846770  91.2434842  80.7960210
  18.3721276  90.2396621  90.3520206  17.5816820  90.2220760  89.8124705
  18.1354631  90.7784915  91.1069242  18.4919151  87.0889087  87.6652934
  18.5417156  86.9239095  88.6068457  18.3833075  86.2216346  87.2750815
   7.3755410  89.7677633  74.9545023   7.5243530  90.4513097  74.3011696
   8.1821853  89.7482723  75.4694479  15.7822914  83.0720015  88.9812241
  16.6832776  82.9326480  88.6896239  15.8570888  83.2374470  89.9210418
  10.1165719  80.4486870  87.8265427   9.2469028  80.7420436  87.5548016
  10.3525199  81.0327315  88.5472691  19.9937348  89.5086029  87.9094956
  19.7022156  89.8716009  88.7458417  19.3809479  88.7953037  87.7308288
  21.1933030  87.0738909  80.4297526  22.0279922  87.5128713  80.5935086
  21.3292159  86.5977562  79.6105772  18.2424536  84.6318643  86.3775014
  18.7178658  84.8246290  85.5693865  17.3190102  84.6877829  86.1318397
   5.1308043  85.7942811  75.9606092   4.8854085  84.8905141  76.1586302
   5.3003957  85.7959961  75.0185570  12.8204753  76.6666487  85.3430848
  13.3386697  77.4027514  85.0177336  12.4659885  76.9730480  86.1777607
   4.4003690  81.5271168  73.4592253   3.7072935  81.6015523  72.8032289
   4.1555442  80.7631512  73.9813770  13.0717347  73.0866770  80.8631744
  13.3519101  72.4189959  81.4892171  13.8567954  73.2795865  80.3506408
  10.8750815  92.2625763  72.4256771  10.3024782  92.8815951  71.9727242
  11.4483609  92.8125125  72.9596692  16.9426205  81.5084404  84.6103319
  17.8943628  81.6082501  84.6315543  16.7729656  80.7162672  85.1201404
  14.9640585  78.5939987  84.7962720  14.3690517  78.8744999  84.1009209
  14.6790281  79.0833888  85.5679461  14.0948075  92.5462914  73.5565353
  15.0278748  92.4808475  73.7598228  14.0071288  93.3819180  73.0979885
  16.7236092  91.8628784  70.5169300  16.6449723  91.5288648  71.4105058
  17.5445759  92.3550552  70.5160773  19.4214283  84.7290523  83.7245619
  19.3890603  83.7906524  83.9105303  20.0314907  84.8074560  82.9911444
  11.2597614  83.5986576  69.7672823  12.2056719  83.4692784  69.8361241
  10.8811859  82.8601238  70.2442251  19.5708771  81.5201567  83.7703902
  19.0547820  80.7360023  83.5833831  20.4548720  81.1920283  83.9350422
  17.2319498  75.2642582  79.7299715  17.0344320  74.9557670  80.6143047
  17.8419204  75.9904221  79.8597645  25.2390833  85.7906530  82.8651656
  25.9694221  85.5291818  83.4259359  24.6297778  85.0535252  82.9053724
  23.3206130  83.9314393  83.4626107  22.5939294  83.7970358  82.8542599
  22.9053417  84.2391221  84.2682825   9.4440531  81.5236553  69.7027708
   8.5371986  81.2269665  69.7790422   9.7216512  81.2266371  68.8361995
  11.0602597  76.0673442  75.8571950  10.2503325  75.7220527  76.2327196
  11.7487014  75.7580986  76.4459561  12.9893145  75.1451489  77.4796246
  13.5424184  75.5646943  78.1386269  13.2263231  74.2187237  77.5219202
   8.2139316  78.3823488  69.8439687   9.0758480  78.7078386  70.1035505
   8.3989660  77.5954984  69.3312753  16.3671952  77.2552014  76.9874910
  15.7870621  77.9136818  76.6052963  16.1007885  76.4329359  76.5762328
  14.8175518  76.6557072  79.1896231  15.3175297  76.7673606  78.3810550
  15.4611126  76.3518125  79.8297039   2.1443474  86.3964081  79.9985891
   2.1214162  86.4951769  79.0467774   2.4544110  87.2429232  80.3203057
  15.1496830  79.4152105  76.0431259  14.2622685  79.7001755  75.8251453
  15.5650819  79.2545868  75.1958536  18.5011366  79.4398626  79.7585598
  19.2771756  79.9295078  80.0310215  17.7759500  79.8656680  80.2157467
  20.9383925  80.1526245  80.8159539  21.5328416  79.9121981  80.1052847
  21.0110509  79.4333375  81.4433075  14.2940044  89.1796779  70.1379279
  14.9975894  89.3846782  70.7536934  13.5702692  89.7473541  70.4028362
  15.1237854  84.9306641  76.2581549  15.0673055  85.3875192  75.4189181
  15.6766196  84.1697325  76.0804392  18.9342660  80.7196372  77.0831668
  18.6779594  80.3193008  77.9139876  18.3095528  81.4340166  76.9581808
  23.2454998  83.4592446  79.5902960  22.6854556  83.5285635  80.3634522
  22.6398501  83.2833430  78.8702456  16.2026741  89.6179309  72.1877739
  17.0372345  89.1860507  72.0055214  16.0411084  89.4461322  73.1154633
  15.8572633  86.1211422  73.5534078  15.8021437  85.9555693  72.6122522
  15.2318688  86.8287455  73.7096268   9.1668759  75.6219531  73.1319396
   9.1547428  76.5661371  73.2887667  10.0592181  75.4389676  72.8378858
   9.0958323  94.2988421  81.2187153   8.1453954  94.2990283  81.1051525
   9.3990809  93.5521156  80.7023188  12.9820878  72.2162307  77.3865333
  12.2153274  71.6620794  77.5322016  13.3931583  72.2884176  78.2479485
  19.3409002  98.8564635  71.5511380  19.5934522  98.3346156  70.7894843
  18.4033561  98.6930781  71.6538064  24.3852285  97.8600413  79.3586124
  25.1715374  97.4419837  79.0076541  24.6490989  98.7646506  79.5267772
  29.7860712  97.7975647  80.2619102  30.5185884  97.2274863  80.4956932
  29.0300067  97.4097247  80.7025608  27.3086132  91.5097221  84.7213711
  26.9769457  92.3792632  84.4974926  26.7131745  91.1933505  85.4007741
  21.0442318  95.2492788  72.4543793  21.2116721  96.1173024  72.8214264
  20.8539487  95.4120070  71.5305082  27.2014795  96.2292307  81.8007061
  26.2931673  96.1607715  81.5065822  27.1502391  96.7064252  82.6288886
  21.0231539  97.7050445  73.4390460  20.9031165  98.1507496  74.2775940
  20.3284128  98.0535763  72.8803998  29.0676442  94.4308745  83.5784935
  28.4250822  94.7241279  82.9324729  28.5631370  94.3161666  84.3838131
  26.7216605  98.1771919  74.2670794  27.6334462  98.4099305  74.0918491
  26.2126253  98.7608963  73.7045873  21.3588443  97.5369153  85.2765643
  22.2049638  97.9608567  85.4200292  21.2987081  96.8802777  85.9704207
  24.5087889  95.1973522  86.9346817  24.2648820  95.9515582  86.3981093
  24.7847819  95.5758869  87.7694064  24.0652580  94.3529955  82.5160655
  23.2037059  94.6511208  82.8077392  24.0915015  94.5700353  81.5841687
  19.8183036  99.0195297  75.7324026  20.5207079  99.4716341  76.1997952
  19.4863664  98.3779116  76.3603919  35.6678172 100.9622838  80.1331411
  34.9141881 100.3930236  79.9775416  35.8025713 100.9285502  81.0802046
  20.4612101  93.3285699  90.0620743  21.2021814  93.9292852  89.9825205
  20.6930024  92.5863337  89.5038785  24.4069264  89.3566802  84.3385024
  24.0633533  90.2468444  84.2624135  24.7748226  89.1668460  83.4754609
  24.3719547  99.3475413  72.8457459  23.8566170 100.1180018  73.0845847
  24.0996855  98.6740549  73.4690521  21.9566658  94.1925114  77.9042698
  21.1008254  93.8031964  77.7248336  22.3693609  94.2717075  77.0442483
  23.4865804  91.7271457  82.3034258  22.9830600  91.6901592  81.4902063
  23.7796411  92.6364200  82.3630914  19.7308690  91.8110187  81.3100439
  20.5961687  91.6152996  80.9506329  19.7986199  91.5820539  82.2369796
  29.3453821 102.1007768  74.7810633  28.5683264 101.7618927  74.3365795
  30.0245302 102.1060391  74.1065598  24.1605850  97.2202505  74.6717241
  23.8555985  97.5348654  75.5227384  25.1136292  97.2983925  74.7144574
  17.3371009  94.0412395  78.6816806  17.9114761  93.8187576  77.9489999
  17.9241992  94.1101089  79.4345407  26.3950586  99.9286122  79.4881183
  26.9082468 100.5616113  79.9902892  27.0451810  99.3287317  79.1224543
  17.6640596  96.0716856  72.7012691  16.8277909  96.4091542  73.0221966
  17.5245366  95.9365836  71.7639828  19.6393677  90.9153644  77.4091876
  18.9858089  90.6002661  76.7848490  19.5974151  90.2929384  78.1351698
  22.8731417  97.4035577  81.7339523  21.9553979  97.6250524  81.5761211
  23.2891561  97.4781888  80.8751230  23.6566465  98.8026993  76.8642203
  24.4038284  99.3148390  76.5549325  23.9258055  98.4811046  77.7246597
  26.1045302  95.8384109  78.8460993  25.3668059  95.3261495  79.1771235
  26.3572076  95.3984491  78.0344270  26.2056930  88.6160361  79.4402762
  26.5115806  87.7557725  79.1528677  26.9309534  89.2077981  79.2401756
  20.4778009  98.9114154  79.9478953  20.5326619  97.9587991  79.8721430
  19.6669211  99.0673593  80.4320251  18.4170369  97.5291214  77.7069332
  17.6038235  97.8285385  78.1134524  18.9129363  97.1346903  78.4243814
  24.0144581  97.9933038  86.5384226  24.3693969  98.2204512  87.3978692
  24.6616712  98.3251415  85.9161481  29.7442318 101.1151474  77.2433555
  29.6060216 101.3053070  76.3154744  29.3878537 101.8770857  77.7001606
  17.9084444  95.1009569  83.3230567  18.5483823  94.9598329  82.6253530
  17.0761975  94.8144083  82.9469169  14.9113060  95.0709894  78.1003554
  15.1719878  95.9855228  77.9912714  15.7330233  94.6034337  78.2500166
  16.3837986  96.4847652  85.2702378  17.0561039  96.2765014  84.6215027
  15.5567772  96.2869738  84.8307610  22.2863558  93.1109593  87.2868039
  21.6391473  93.8099542  87.1932515  23.0564573  93.5445736  87.6544287
  18.1276718  96.4575432  87.3384134  17.5914075  96.0066170  87.9905731
  17.5393426  96.5921341  86.5954599  17.5378977  95.9164083  69.9010598
  16.6608443  95.7952884  69.5372845  18.0136730  95.1250162  69.6489487
  13.8615839  95.5931440  84.4237129  13.7774028  94.9857109  83.6887539
  13.0398545  96.0840458  84.4246625  24.0339553  94.0785003  79.7907324
  24.5308252  93.3254965  79.4708394  23.2626534  94.1149320  79.2250533
  31.8869310  99.7825369  81.4325616  31.8759186 100.6650084  81.0619549
  31.0186690  99.4296919  81.2380153  20.6174521  96.2202386  79.5179009
  20.2472309  95.6673426  80.2059914  21.1133614  95.6160520  78.9654009
  28.5041885  98.6774010  77.8995782  28.9702337  99.5102001  77.8256084
  28.9549385  98.2118991  78.6041040  26.4758548  91.0454597  81.9386683
  25.5621627  91.2758823  82.1068890  26.9051649  91.1293041  82.7900715
  26.2465006  99.2344489  84.4386577  25.5936456  99.4820396  83.7839030
  26.6245386  98.4208627  84.1049054  16.0139855  93.6306377  85.7632115
  16.0781182  94.4921208  85.3509512  15.9506975  93.0180378  85.0304473
  15.7951917  95.5861935  81.3251052  15.0738503  96.1997903  81.1858526
  16.5845173  96.1219700  81.2467698  18.5978231  92.9216362  87.5991704
  19.1212633  93.1678658  88.3618013  18.3790564  93.7536396  87.1794841
  13.9945512  95.1920036  75.4662829  13.6658218  94.3117415  75.2837935
  14.3484883  95.1367705  76.3539218  17.1087335  95.4793006  75.8338307
  17.4483408  96.0078927  75.1116915  17.5559456  95.8173412  76.6096873
  19.8030776  93.8630057  85.2841375  19.4627596  93.0637870  85.6862055
  19.0969782  94.1631767  84.7118208  20.4547248  90.9479369  83.7368698
  21.2773317  90.4739847  83.6147588  20.6985311  91.7269853  84.2367384
  19.0955482  93.9767628  74.0331599  19.8163845  94.3548880  73.5295316
  18.4720786  94.6956504  74.1366577  23.2386605  94.6812776  74.9689932
  23.4550220  95.5637414  74.6678760  22.7580672  94.2898990  74.2395574
  17.9785827  97.6398490  81.5460676  17.8330407  97.9538793  82.4384958
  17.5011030  98.2583390  80.9931575  19.8382209  94.6301038  81.5941566
  19.8243778  93.7342131  81.2573864  20.5554638  94.6371701  82.2279852
  21.6908340  95.0638378  83.6394693  21.4326118  95.9855449  83.6379024
  21.1593381  94.6668812  84.3295157  19.2419105  93.5115418  76.8629136
  19.3635017  92.5832064  77.0620023  18.9521148  93.5254104  75.9507451
  22.1110296  91.1970328  79.9995856  22.1331993  91.2609662  79.0447835
  22.5278355  90.3574837  80.1936362  32.4893920 100.9325588  78.0375078
  32.9325066 100.1832913  77.6394202  31.6120430 100.9235724  77.6548810
  29.3312906 102.4181005  87.6652934  29.3810911 102.2531012  88.6068457
  29.2226829 101.5508264  87.2750815  26.6216668  98.4011933  88.9812241
  27.5226531  98.2618398  88.6896239  26.6964643  98.5666388  89.9210418
  20.9559473  95.7778788  87.8265427  20.0862783  96.0712354  87.5548016
  21.1918954  96.3619233  88.5472691  32.0326785 102.4030826  80.4297526
  32.8673676 102.8420630  80.5935086  32.1685914 101.9269479  79.6105772
  29.0818291  99.9610561  86.3775014  29.5572412 100.1538207  85.5693865
  28.1583856 100.0169747  86.1318397  23.6598507  91.9958405  85.3430848
  24.1780451  92.7319432  85.0177336  23.3053640  92.3022398  86.1777607
  15.2397445  96.8563086  73.4592253  14.5466690  96.9307441  72.8032289
  14.9949197  96.0923430  73.9813770  23.9111101  88.4158687  80.8631744
  24.1912855  87.7481876  81.4892171  24.6961708  88.6087783  80.3506408
  27.7819960  96.8376321  84.6103319  28.7337383  96.9374419  84.6315543
  27.6123410  96.0454590  85.1201404  25.8034339  93.9231904  84.7962720
  25.2084271  94.2036917  84.1009209  25.5184036  94.4125805  85.5679461
  30.2608038 100.0582441  83.7245619  30.2284358  99.1198442  83.9105303
  30.8708661 100.1366478  82.9911444  22.0991368  98.9278494  69.7672823
  23.0450473  98.7984702  69.8361241  21.7205613  98.1893156  70.2442251
  30.4102526  96.8493484  83.7703902  29.8941575  96.0651941  83.5833831
  31.2942475  96.5212201  83.9350422  28.0713253  90.5934500  79.7299715
  27.8738074  90.2849588  80.6143047  28.6812958  91.3196139  79.8597645
  36.0784587 101.1198448  82.8651656  36.8087976 100.8583736  83.4259359
  35.4691533 100.3827170  82.9053724  34.1599884  99.2606310  83.4626107
  33.4333048  99.1262275  82.8542599  33.7447171  99.5683139  84.2682825
  20.2834286  96.8528470  69.7027708  19.3765741  96.5561583  69.7790422
  20.5610267  96.5558288  68.8361995  21.8996351  91.3965360  75.8571950
  21.0897080  91.0512445  76.2327196  22.5880768  91.0872904  76.4459561
  23.8286900  90.4743407  77.4796246  24.3817938  90.8938860  78.1386269
  24.0656986  89.5479155  77.5219202  19.0533070  93.7115405  69.8439687
  19.9152234  94.0370304  70.1035505  19.2383414  92.9246901  69.3312753
  27.2065707  92.5843932  76.9874910  26.6264376  93.2428736  76.6052963
  26.9401639  91.7621277  76.5762328  25.6569273  91.9848990  79.1896231
  26.1569051  92.0965524  78.3810550  26.3004881  91.6810042  79.8297039
  25.9890585  94.7444022  76.0431259  25.1016440  95.0293673  75.8251453
  26.4044574  94.5837786  75.1958536  29.3405121  94.7690543  79.7585598
  30.1165511  95.2586996  80.0310215  28.6153255  95.1948597  80.2157467
  31.7777679  95.4818163  80.8159539  32.3722170  95.2413898  80.1052847
  31.8504263  94.7625293  81.4433075  25.9631608 100.2598558  76.2581549
  25.9066810 100.7167110  75.4189181  26.5159951  99.4989243  76.0804392
  29.7736414  96.0488290  77.0831668  29.5173349  95.6484926  77.9139876
  29.1489282  96.7632084  76.9581808  34.0848752  98.7884363  79.5902960
  33.5248310  98.8577553  80.3634522  33.4792256  98.6125348  78.8702456
  20.0062513  90.9511449  73.1319396  19.9941183  91.8953288  73.2887667
  20.8985935  90.7681594  72.8378858  23.8214633  87.5454225  77.3865333
  23.0547028  86.9912712  77.5322016  24.2325338  87.6176094  78.2479485
  37.0450684 103.9452279  79.4402762  37.3509561 103.0849642  79.1528677
  37.7703289 104.5369899  79.2401756  34.7504856 103.7450605  80.8631744
  35.0306610 103.0773794  81.4892171  35.5355463 103.9379701  80.3506408
  34.6608387 102.8746143  77.3865333  33.8940783 102.3204630  77.5322016
  35.0719092 102.9468012  78.2479485   3.1496910  31.9809207  66.8576718
   2.3960618  31.4116605  66.7020723   3.2844451  31.9471872  67.8047353
   3.5603325  32.1384817  69.5896962   4.2906714  31.8770105  70.1504666
   2.9510271  31.4013539  69.6299030   1.6418622  30.2792680  70.1871414
   0.9151786  30.1448645  69.5787905   1.2265909  30.5869508  70.9928132
   1.5667490  29.8070733  66.3148266   1.0067048  29.8763922  67.0879828
   0.9610993  29.6311718  65.5947763   3.1523508  46.4827247  69.0078222
   3.7901918  46.3633994  68.3041562   3.0344351  47.4308091  69.0666174
   1.3999589  51.9561119  60.2451103   0.7487569  52.5415199  59.8585116
   2.1943952  52.4867314  60.3046140   2.7064777  44.2078701  66.0831430
   3.4927866  43.7898124  65.7321847   2.9703481  45.1124793  66.2513079
   2.8774854  49.6451551  60.7820087   2.2420687  49.7186178  61.4940992
   2.5472261  50.2345150  60.1039166   8.1073204  44.1453934  66.9864409
   8.8398376  43.5753151  67.2202238   7.3512560  43.7575534  67.4270914
   5.6298624  37.8575508  71.4459017   5.2981949  38.7270919  71.2220232
   5.0344238  37.5411792  72.1253048   2.1230144  50.0588054  70.8454930
   1.8230867  50.9613093  70.7370737   1.7781203  49.7920237  71.6976083
   5.5227288  42.5770594  68.5252367   4.6144165  42.5086003  68.2311128
   5.4714883  43.0542539  69.3534193   7.3888934  40.7787033  70.3030241
   6.7463314  41.0719566  69.6570036   6.8843863  40.6639953  71.1083438
   5.0429098  44.5250206  60.9916101   5.9546954  44.7577593  60.8163798
   4.5338745  45.1087250  60.4291179   3.3269865  48.9474834  74.6277393
   3.7353221  48.5057244  73.8832025   2.6047127  48.3727461  74.8811586
   3.6498680  49.5076024  68.3829682   3.0207542  49.6721738  67.6805750
   3.2624342  49.9217634  69.1540646   7.5287912  50.4430462  65.7374046
   6.8438950  50.8229363  65.1871079   7.6131761  51.0525789  66.4705994
   2.8300381  41.5451809  73.6592124   2.5861313  42.2993869  73.1226399
   3.1060311  41.9237156  74.4939371   4.7838844  48.0890421  72.3369389
   4.9955739  48.7322181  71.6603770   4.7368592  47.2552738  71.8691319
   2.3865073  40.7008242  69.2405961   1.5249552  40.9989495  69.5322699
   2.4127507  40.9178641  68.3086994   5.8984671  50.9662377  70.5091747
   6.7202115  50.5642564  70.2274428   5.8947074  50.8630611  71.4607862
  13.9890665  47.3101125  66.8576718  13.2354373  46.7408523  66.7020723
  14.1238206  47.2763790  67.8047353   1.0057769  52.8038094  76.6631780
   0.5621623  52.0174472  76.3452684   1.6674983  52.9917244  75.9975670
   3.1039007  53.0840894  74.6913181   3.0857482  53.9049775  74.1993450
   4.0258927  52.9594969  74.9163322   2.7281756  35.7045089  71.0630331
   2.3846026  36.5946731  70.9869442   3.0960719  35.5146747  70.1999916
   2.6932039  45.6953700  59.5702766   2.1778662  46.4658305  59.8091153
   2.4209347  45.0218836  60.1935827   1.8078297  38.0749744  69.0279564
   1.3043092  38.0379880  68.2147369   2.1008903  38.9842487  69.0876221
   7.6666313  48.4486055  61.5055940   6.8895756  48.1097214  61.0611102
   8.3457794  48.4538678  60.8310905   2.4818342  43.5680792  61.3962547
   2.1768478  43.8826942  62.2472690   3.4348784  43.6462212  61.4389880
   5.9057620  47.9220036  68.1622547   5.2481294  48.6119298  68.2502676
   6.7098019  48.3116468  68.5056534   4.7163079  46.2764409  66.2126489
   5.2294960  46.9094401  66.7148199   5.3664303  45.6765604  65.8469849
   1.9785453  56.2548733  58.9687160   1.3047152  56.5580430  59.5772118
   2.3651275  57.0577814  58.6192617   1.9778957  45.1505280  63.5887510
   2.7250776  45.6626677  63.2794632   2.2470547  44.8289333  64.4491904
   5.4824875  51.2570410  64.3405632   5.0287202  50.4161320  64.3970822
   4.8518842  51.8931809  64.6780412   4.4257795  42.1862396  65.5706299
   3.6880551  41.6739783  65.9016542   4.6784568  41.7462778  64.7589576
   3.9257814  53.0946907  65.2755450   4.2180789  53.6551964  64.5567816
   4.4356435  53.3875468  66.0308609   4.5269422  34.9638648  66.1648069
   4.8328299  34.1036012  65.8773984   5.2522027  35.5556269  65.9647063
   2.3357073  44.3411326  73.2629532   2.6906461  44.5682799  74.1223998
   2.9829204  44.6729702  72.6406788   8.0654810  47.4629762  63.9678861
   7.9272709  47.6531358  63.0400051   7.7091029  48.2249144  64.4246913
   8.0924190  49.5306289  68.9790133   8.5260696  49.4381578  69.8273187
   8.8055770  49.5063789  68.3410149   1.8252085  53.1308383  70.5123234
   1.8789107  53.6999319  71.2800949   0.9566866  53.3010268  70.1477271
   8.9539739  49.5729989  71.5123018   9.1475629  50.4775800  71.7582293
   8.8540357  49.1137408  72.3461603   4.0154848  49.7236732  77.0863899
   3.8640354  49.4947284  76.1693983   4.0059527  50.6807333  77.0995244
   1.1333731  50.7000912  67.2297541   0.7983564  50.6601682  68.1255191
   0.6337677  50.0345628  66.7567951   4.0692923  48.0456946  57.5034600
   3.4522094  47.3203774  57.4067653   3.6009411  48.8066306  57.1601675
   5.7247055  52.7555855  75.1640381   5.6659601  52.0715075  74.4970964
   6.1266573  53.4974845  74.7121007   5.7264462  50.7195438  73.3954361
   4.8391241  50.3821360  73.5180759   6.2963013  49.9878470  73.6323126
   2.3552045  40.4263290  66.5152631   2.8520745  39.6733253  66.1953701
   1.5839027  40.4627607  65.9495840  10.2081802  46.1303656  68.1570922
  10.1971679  47.0128371  67.7864855   9.3399182  45.7775207  67.9625459
   1.7164299  55.2783725  72.5173762   2.4292271  55.9131190  72.4449664
   1.2254327  55.3747591  71.7013764   3.4381826  49.1834978  64.0891054
   2.5038104  49.3036440  63.9195758   3.6158494  48.2807444  63.8251064
   6.8254377  45.0252297  64.6241088   7.2914829  45.8580288  64.5501391
   7.2761878  44.5597278  65.3286347   4.8930608  51.3696118  61.6227240
   5.1690452  51.2552713  62.5321114   4.0235107  50.9713603  61.5839413
   4.7971040  37.3932884  68.6631990   3.8834120  37.6237111  68.8314196
   5.2264141  37.4771328  69.5146022   4.5677498  45.5822776  71.1631884
   3.9148949  45.8298683  70.5084336   4.9457878  44.7686914  70.8294361
   1.5284672  55.6182469  65.2660054   1.7107067  54.8004125  65.7287806
   2.3517658  55.8350161  64.8284944   1.8626838  54.5450654  62.5275102
   2.3914604  54.0343109  61.9145264   2.1255057  54.2293184  63.3920635
   4.2098729  52.4570772  77.7404191   4.7538632  53.0700730  77.2459146
   3.6285573  53.0150350  78.2571204   2.4956241  55.5791490  68.8719219
   2.3707381  54.7781230  68.3630164   3.1535333  56.0737683  68.3833189
   4.5591150  53.3800510  70.4998769   3.6121485  53.2605861  70.4277096
   4.9073923  52.4923008  70.5825030   1.5637583  53.1753226  66.7003121
   1.4162546  52.2469934  66.8810691   2.3891077  53.1973317  66.2160196
   5.1671705  53.9981785  67.7867994   6.0918252  53.7924646  67.6492445
   4.9987008  53.7498186  68.6957335   1.5599097  41.0291064  61.6935238
   1.7762712  41.9115702  61.3924066   1.0793165  40.6377277  60.9640880
   4.9567021  54.5167452  63.1430085   5.1303899  53.9513875  62.3903938
   5.4495912  55.3168347  62.9609575  10.8106412  47.2803875  64.7620385
  11.2537558  46.5311200  64.3639508   9.9332923  47.2714012  64.3794117
   5.9442194  53.8334217  60.2426984   6.6393098  54.4540909  60.4614298
   6.2865344  52.9829568  60.5179361   7.8433617  51.2833922  61.7714314
   8.3684941  51.6221195  61.0463634   7.7555969  50.3480938  61.5877449
   7.5327523  51.9166826  77.0765512   6.7423067  51.8990965  76.5370012
   7.2960877  52.4555120  77.8314549   7.6525398  48.7659292  74.3898241
   7.7023403  48.6009300  75.3313764   7.5439321  47.8986551  73.9996122
   4.9429160  44.7490220  75.7057548   5.8439023  44.6096685  75.4141545
   5.0177135  44.9144675  76.6455725   9.1543595  51.1856234  74.6340262
   8.8628403  51.5486214  75.4703723   8.5415726  50.4723242  74.4553594
  10.3539277  48.7509114  67.1542833  11.1886168  49.1898918  67.3180393
  10.4898406  48.2747767  66.3351078   7.4030783  46.3088848  73.1020320
   7.8784905  46.5016495  72.2939172   6.4796348  46.3648034  72.8563704
   1.9810999  38.3436692  72.0676154   2.4992943  39.0797719  71.7422643
   1.6266132  38.6500685  72.9022913   2.2323594  34.7636974  67.5877051
   2.5125347  34.0960164  68.2137477   3.0174201  34.9566070  67.0751715
   6.1032452  43.1854608  71.3348626   7.0549875  43.2852706  71.3560850
   5.9335902  42.3932877  71.8446710   4.1246831  40.2710192  71.5208027
   3.5296764  40.5515204  70.8254516   3.8396528  40.7604093  72.2924768
   3.2554322  54.2233118  60.2810659   4.1884995  54.1578680  60.4843535
   3.1677535  55.0589385  59.8225192   5.8842339  53.5398989  57.2414607
   5.8055970  53.2058852  58.1350365   6.7052005  54.0320757  57.2406079
   8.5820530  46.4060728  70.4490926   8.5496850  45.4676729  70.6350609
   9.1921153  46.4844765  69.7156751   8.7315018  43.1971772  70.4949209
   8.2154067  42.4130228  70.3079138   9.6154967  42.8690488  70.6595728
   6.3925745  36.9412787  66.4545021   6.1950566  36.6327875  67.3388353
   7.0025451  37.6674426  66.5842951  14.3997080  47.4676735  69.5896962
  15.1300468  47.2062023  70.1504666  13.7904025  46.7305457  69.6299030
  12.4812377  45.6084598  70.1871414  11.7545540  45.4740562  69.5787905
  12.0659664  45.9161426  70.9928132   2.1499392  36.8221694  64.2041553
   2.7030430  37.2417147  64.8631576   2.3869478  35.8957442  64.2464509
   5.5278199  38.9322219  63.7120217   4.9476868  39.5907023  63.3298269
   5.2614132  38.1099564  63.3007635   3.9781765  38.3327277  65.9141537
   4.4781544  38.4443811  65.1055856   4.6217373  38.0288330  66.5542346
   4.3103077  41.0922310  62.7676565   3.4228932  41.3771960  62.5496760
   4.7257066  40.9316073  61.9203842   7.6617613  41.1168831  66.4830905
   8.4378003  41.6065283  66.7555521   6.9365747  41.5426885  66.9402774
  10.0990172  41.8296450  67.5404845  10.6934662  41.5892186  66.8298153
  10.1716755  41.1103580  68.1678382   3.4546290  50.8566984  56.8624585
   4.1582141  51.0616987  57.4782241   2.7308939  51.4243746  57.1273669
   4.2844101  46.6076845  62.9826856   4.2279302  47.0645397  62.1434488
   4.8372443  45.8467530  62.8049698   8.0948907  42.3966577  63.8076975
   7.8385841  41.9963213  64.6385183   7.4701775  43.1110371  63.6827114
  12.4061244  45.1362651  66.3148266  11.8460802  45.2055840  67.0879828
  11.8004748  44.9603635  65.5947763   5.3632988  51.2949513  58.9123045
   6.1978592  50.8630712  58.7300520   5.2017331  51.1231527  59.8399940
   5.0178880  47.7981627  60.2779385   4.9627684  47.6325898  59.3367829
   4.3924935  48.5057660  60.4341574   2.3324787  50.1030539  79.6032947
   3.2015947  50.2771191  79.2419582   1.8531539  50.9224955  79.4808677
   2.1427125  33.8932512  64.1110640   1.3759521  33.3390999  64.2567322
   2.5537830  33.9654381  64.9724792  13.9917263  61.8119165  69.0078222
  14.6295673  61.6925912  68.3041562  13.8738106  62.7600008  69.0666174
  10.8006969  61.7646593  68.9439747  10.4625481  61.6487657  68.0560282
  11.6696737  61.3637758  68.9240753   6.6593785  63.6182069  64.9336638
   6.0958650  63.5272006  64.1652926   6.5446180  62.7981974  65.4139130
  11.2826752  62.9181444  74.9025952  11.2715393  62.5234243  74.0306456
  11.4447392  62.1847517  75.4959724   4.2058217  65.1133261  67.7720858
   4.9979509  64.7724085  67.3567158   4.4454867  65.2228236  68.6923012
  12.2393344  67.2853037  60.2451103  11.5881323  67.8707117  59.8585116
  13.0337706  67.8159232  60.3046140   6.1648971  64.3742174  60.6438237
   6.9379847  63.8271161  60.5051113   6.5174370  65.2386423  60.8552698
   8.0034013  65.7018556  73.8505136   7.7123879  66.6064187  73.7351803
   8.6390998  65.7435084  74.5649206   8.9290220  63.0795405  70.4406496
   9.5253792  62.8551427  69.7263459   8.9865192  62.3380150  71.0431944
   8.5015249  60.5334840  58.2756687   8.7540769  60.0116361  57.5140150
   7.5639808  60.3700985  58.3783371  13.5458531  59.5370618  66.0831430
  14.3321621  59.1190042  65.7321847  13.8097236  60.4416711  66.2513079
  13.7168609  64.9743469  60.7820087  13.0814442  65.0478095  61.4940992
  13.3866015  65.5637068  60.1039166  18.9466959  59.4745852  66.9864409
  19.6792130  58.9045068  67.2202238  18.1906314  59.0867452  67.4270914
   8.2211537  62.4362946  60.4781062   8.1047795  61.7607849  61.1462146
   8.3313797  61.9495320  59.6613215  10.5643078  61.8973093  64.1827751
  10.2001285  61.3703714  64.8940673  11.4210194  61.5071562  64.0094237
  16.4692379  53.1867426  71.4459017  16.1375704  54.0562837  71.2220232
  15.8737992  52.8703710  72.1253048  10.2048565  56.9262993  59.1789100
  10.3722968  57.7943229  59.5459571  10.0145734  57.0890274  58.2550389
  12.9623898  65.3879972  70.8454930  12.6624621  66.2905010  70.7370737
  12.6174958  65.1212155  71.6976083   6.4136380  61.8393769  66.8791634
   5.4886876  61.7069983  67.0869326   6.6620793  62.6187988  67.3761577
  16.3621042  57.9062512  68.5252367  15.4537920  57.8377920  68.2311128
  16.3108638  58.3834457  69.3534193  10.1837786  59.3820650  60.1635766
  10.0637411  59.8277701  61.0021247   9.4890374  59.7305968  59.6049305
   3.7745191  61.4827042  67.7135424   3.9037572  61.7361521  68.6274835
   3.0942642  62.0754750  67.3940079   7.9444678  72.1524292  63.8125898
   7.8668708  73.1032117  63.8914378   7.3406322  71.8070165  64.4700824
  10.4361908  59.3252157  76.4687265   9.6595242  59.8846078  76.4590129
  11.0752471  59.8108940  76.9902135  18.2282689  56.1078950  70.3030241
  17.5857069  56.4011483  69.6570036  17.7237617  55.9931871  71.1083438
  15.8822852  59.8542123  60.9916101  16.7940708  60.0869510  60.8163798
  15.3732499  60.4379168  60.4291179   8.6908280  62.1337611  76.0305232
   9.4322965  62.6722655  75.7540055   7.9845266  62.7603900  76.1876783
  14.1663620  64.2766751  74.6277393  14.5746976  63.8349162  73.8832025
  13.4440881  63.7019379  74.8811586  10.5194690  59.2139358  72.0010950
  11.3655885  59.6378772  72.1445599  10.4593328  58.5572982  72.6949513
  14.4892435  64.8367942  68.3829682  13.8601297  65.0013656  67.6805750
  14.1018097  65.2509551  69.1540646  18.3681666  65.7722380  65.7374046
  17.6832705  66.1521281  65.1871079  18.4525516  66.3817706  66.4705994
  13.6694135  56.8743726  73.6592124  13.4255067  57.6285787  73.1226399
  13.9454066  57.2529074  74.4939371  15.6232598  63.4182339  72.3369389
  15.8349493  64.0614099  71.6603770  15.5762346  62.5844655  71.8691319
  13.2258827  56.0300159  69.2405961  12.3643306  56.3281413  69.5322699
  13.2521262  56.2470558  68.3086994  10.0420396  64.5742350  65.6479767
  10.5058742  64.8530053  64.8584390   9.7777195  63.6725795  65.4652858
   6.9344477  64.1213832  68.5859530   7.5045835  64.5501100  67.9477015
   7.5252589  63.8396416  69.2843716   8.9789282  60.6965502  62.4569332
   9.6813326  61.1486546  62.9243259   8.6469911  60.0549321  63.0849225
   7.4269644  59.2877259  76.8320542   6.7968305  59.9693540  77.0655938
   7.3205732  59.1760341  75.8873680   2.7214616  58.9549055  67.7586466
   1.9313670  59.2106584  67.2826576   3.2125864  59.7697393  67.8638506
  16.7378426  66.2954294  70.5091747  17.5595870  65.8934481  70.2274428
  16.7340829  66.1922528  71.4607862   4.6729362  59.3193634  64.7169943
   3.8760525  59.4312329  65.2353438   4.4454954  59.6580286  63.8510833
  10.5035029  65.8438338  72.6652457  10.5679462  66.3058745  73.5010629
   9.7945953  65.2135702  72.7934767   1.0052319  59.2079545  70.1901457
   1.2560358  60.0926555  70.4559033   1.5411868  59.0284147  69.4176548
  24.8284419  62.6393043  66.8576718  24.0748127  62.0700441  66.7020723
  24.9631960  62.6055707  67.8047353  10.2183047  67.5106445  62.5331437
  10.0828722  68.3557981  62.9616285  10.7592860  67.7125723  61.7697371
   6.7050387  53.5898025  79.1945793   6.3117332  53.0364223  79.8693437
   7.5216527  53.9008603  79.5852310   3.6712444  65.0281883  63.1059363
   4.1836965  65.8225133  63.2564927   4.3235157  64.3308173  63.0392964
   5.4807329  68.1447639  65.1882116   5.6573958  69.0665604  65.0003100
   6.2764163  67.8306059  65.6176496   9.6218348  55.0055904  76.7866049
  10.3628061  55.6063057  76.7070512   9.8536271  54.2633542  76.2284092
   4.7659686  60.1912271  75.0644279   4.6513201  59.2897528  75.3651378
   3.9104203  60.4375968  74.7129095  11.8451523  68.1330012  76.6631780
  11.4015378  67.3466390  76.3452684  12.5068737  68.3209162  75.9975670
   6.6038645  69.6625813  71.1892458   7.1546070  69.5342876  70.4169452
   5.7650121  69.9620702  70.8387351  13.9432762  68.4132811  74.6913181
  13.9251237  69.2341692  74.1993450  14.8652682  68.2886887  74.9163322
  10.4005816  65.9276941  75.5336689  10.9334152  65.1665229  75.3035997
   9.8719897  65.6350593  76.2760844  13.5675511  51.0337007  71.0630331
  13.2239780  51.9238649  70.9869442  13.9354473  50.8438665  70.1999916
   1.6361361  63.3570537  63.8818933   2.4736583  63.7667546  63.6652641
   1.8139629  62.4169979  63.8519127  13.5325793  61.0245618  59.5702766
  13.0172417  61.7950223  59.8091153  13.2603102  60.3510754  60.1935827
  11.1172904  55.8695319  64.6288004  10.2614501  55.4802169  64.4493643
  11.5299856  55.9487280  63.7687790  12.6472051  53.4041662  69.0279564
  12.1436847  53.3671797  68.2147369  12.9402658  54.3134405  69.0876221
   8.8914937  53.4880392  68.0345746   9.7567934  53.2923200  67.6751635
   8.9592446  53.2590744  68.9615103  18.5060068  63.7777973  61.5055940
  17.7289510  63.4389132  61.0611102  19.1851548  63.7830596  60.8310905
  13.3212097  58.8972710  61.3962547  13.0162232  59.2118859  62.2472690
  14.2742539  58.9754130  61.4389880  11.7658528  65.0562933  63.0455501
  11.2379890  64.3215693  62.7328739  11.2646031  65.8337610  62.7995470
  16.7451374  63.2511954  68.1622547  16.0875049  63.9411215  68.2502676
  17.5491774  63.6408386  68.5056534   6.4977256  55.7182600  65.4062113
   7.0721008  55.4957781  64.6735306   7.0848238  55.7871294  66.1590714
  15.5556833  61.6056327  66.2126489  16.0688715  62.2386318  66.7148199
  16.2058057  61.0057522  65.8469849   6.8246843  57.7487061  59.4257998
   5.9884155  58.0861747  59.7467273   6.6851613  57.6136040  58.4885135
   8.7999924  52.5923849  64.1337182   8.1464336  52.2772866  63.5093797
   8.7580398  51.9699589  64.8597005   9.9111129  62.8743144  56.0490474
   9.0038190  62.6432397  56.2481623  10.4082161  62.0780763  56.2364456
  12.8179207  71.5840651  58.9687160  12.1440906  71.8872348  59.5772118
  13.2045029  72.3869731  58.6192617  12.0337664  59.0805782  68.4584830
  11.1160225  59.3020729  68.3006518  12.4497808  59.1552093  67.5996537
  12.8172712  60.4797198  63.5887510  13.5644531  60.9918595  63.2794632
  13.0864301  60.1581251  64.4491904  11.0899362  62.9755739  60.5714464
  10.1810581  62.6914771  60.6686934  11.1194446  63.3954817  59.7117771
  16.3218629  66.5862328  64.3405632  15.8680957  65.7453238  64.3970822
  15.6912596  67.2223726  64.6780412  15.2651549  57.5154314  65.5706299
  14.5274306  57.0031700  65.9016542  15.5178323  57.0754696  64.7589576
  14.7651569  68.4238825  65.2755450  15.0574543  68.9843882  64.5567816
  15.2750189  68.7167386  66.0308609  15.3663176  50.2930566  66.1648069
  15.6722053  49.4327929  65.8773984  16.0915781  50.8848186  65.9647063
   1.6587532  60.6961253  64.5529667   1.4611932  60.1030613  63.8280733
   1.1034196  60.3913463  65.2705605   9.6384256  60.5884359  66.6724260
   9.6932866  59.6358196  66.5966736   8.8275458  60.7443798  67.1565558
  10.7875450  64.5164482  57.9102543  10.3494880  63.8000341  57.4508180
  11.5285891  64.7440597  57.3487634   7.5776616  59.2061419  64.4314639
   6.7644482  59.5055589  64.8379831   8.0735610  58.8117108  65.1489121
   9.7285194  69.2019176  66.3648903   9.6861373  69.4280022  65.4357435
  10.6447893  68.9682550  66.5134704  13.1750828  59.6703243  73.2629532
  13.5300215  59.8974716  74.1223998  13.8222959  60.0021620  72.6406788
  18.9048565  62.7921679  63.9678861  18.7666463  62.9823275  63.0400051
  18.5484783  63.5541062  64.4246913   7.0690691  56.7779774  70.0475873
   7.7090070  56.6368533  69.3498837   6.2368221  56.4914288  69.6714475
  18.9317944  64.8598206  68.9790133  19.3654451  64.7673495  69.8273187
  19.6449525  64.8355707  68.3410149   7.8450995  66.0782205  66.1610866
   8.6391593  65.5832525  65.9593441   7.1342687  65.5500068  65.7978572
  12.6645839  68.4600300  70.5123234  12.7182861  69.0291237  71.2800949
  11.7960620  68.6302185  70.1477271   4.1533758  60.2225287  62.2370619
   3.2231346  60.1609742  62.4540581   4.2491230  59.7001239  61.4407260
   4.0719307  56.7480099  64.8248860   4.3326124  57.6625433  64.7158021
   4.8936479  56.2804542  64.9745473   5.5444232  58.1617857  71.9947685
   6.2167286  57.9535219  71.3460334   4.7174019  57.9639943  71.5552917
  19.7933494  64.9021907  71.5123018  19.9869384  65.8067717  71.7582293
  19.6934112  64.4429326  72.3461603  11.4469804  54.7879797  74.0113346
  10.7997720  55.4869747  73.9177822  12.2170820  55.2215941  74.3789594
  14.8548602  65.0528650  77.0863899  14.7034109  64.8239201  76.1693983
  14.8453282  66.0099251  77.0995244  11.6233939  62.6260562  72.0710165
  12.5525999  62.7771722  71.8979133  11.2024969  62.7144583  71.2158812
  10.4222271  66.6511227  69.8408703  10.2833356  66.2830011  70.7134641
   9.6336867  67.1658866  69.6692661  11.0170423  71.7520323  61.1834240
  11.1922178  71.2808366  61.9979862  10.3303211  72.3786089  61.4115500
  11.9727486  66.0292829  67.2297541  11.6377318  65.9893599  68.1255191
  11.4731431  65.3637545  66.7567951   5.9471730  61.4360460  72.7550122
   5.8091528  60.7040698  73.3561661   6.8576653  61.3469360  72.4734310
  14.9086677  63.3748864  57.5034600  14.2915848  62.6495692  57.4067653
  14.4403166  64.1358224  57.1601675   8.5754030  61.1480419  72.2433802
   9.2853649  60.5073611  72.2020420   8.5323339  61.3993314  73.1659982
  16.5640809  68.0847772  75.1640381  16.5053355  67.4006992  74.4970964
  16.9660327  68.8266762  74.7121007   7.2882964  58.1345637  74.0629441
   6.7520321  57.6836375  74.7151037   6.6999673  58.2691546  73.3199905
   5.5831508  74.9009686  67.9574100   5.8228106  75.5328210  68.6353118
   4.7400704  74.5497726  68.2439459   6.6985223  57.5934288  56.6255905
   5.8214690  57.4723089  56.2618151   7.1742976  56.8020366  56.3734793
  16.5658216  66.0487356  73.3954361  15.6784995  65.7113278  73.5180759
  17.1356767  65.3170387  73.6323126   3.0222086  57.2701644  71.1482436
   2.9380274  56.6627314  70.4132846   2.2004792  57.7610663  71.1491932
  10.0959370  70.7088808  70.3615604  10.0229541  71.5143780  70.8734908
   9.6536763  70.9080774  69.5363625   9.8849149  69.9460579  63.8718425
   9.1016671  70.4882259  63.9656650  10.5841895  70.4634558  64.2712666
  13.1945799  55.7555208  66.5152631  13.6914499  55.0025170  66.1953701
  12.4232781  55.7919525  65.9495840  21.0475557  61.4595573  68.1570922
  21.0365433  62.3420289  67.7864855  20.1792936  61.1067124  67.9625459
  12.5558053  70.6075643  72.5173762  13.2686025  71.2423107  72.4449664
  12.0648082  70.7039509  71.7013764  14.2775580  64.5126895  64.0891054
  13.3431859  64.6328358  63.9195758  14.4552249  63.6099362  63.8251064
   9.7780768  57.8972591  66.2424315   9.4078556  57.3443631  66.9305221
  10.2739861  57.2930724  65.6899315  17.6648132  60.3544214  64.6241088
  18.1308584  61.1872206  64.5501391  18.1155632  59.8889196  65.3286347
   7.6069967  68.3570086  73.3379333   8.3079426  68.9906569  73.4908727
   7.1365082  68.6984818  72.5774972  15.7324363  66.6988036  61.6227240
  16.0084207  66.5844630  62.5321114  14.8628861  66.3005521  61.5839413
  15.6364794  52.7224801  68.6631990  14.7227874  52.9529028  68.8314196
  16.0657896  52.8063246  69.5146022  15.4071253  60.9114693  71.1631884
  14.7542703  61.1590601  70.5084336  15.7851633  60.0978832  70.8294361
  12.3678427  70.9474387  65.2660054  12.5500821  70.1296043  65.7287806
  13.1911413  71.1642079  64.8284944  12.7020592  69.8742572  62.5275102
  13.2308359  69.3635026  61.9145264  12.9648812  69.5585102  63.3920635
  11.4558826  61.6534504  77.6497921  10.7799463  61.5528634  78.3200296
  12.2786460  61.4973718  78.1133918   3.2037685  67.8906441  70.2710436
   3.7891122  67.1450129  70.4038340   3.0062523  68.2010398  71.1547100
   6.0576340  70.9257688  65.2872878   5.3886715  71.4103816  64.8036918
   5.9189210  71.1726909  66.2016257  10.1981609  72.9601432  71.8855537
  10.7499917  73.1233053  72.6504622  10.5387802  73.5505870  71.2135561
   5.1746102  55.3076582  72.4877421   5.2387428  56.1691413  72.0754819
   5.1113222  54.6950583  71.7549780   4.6498374  57.3799714  76.1350456
   5.2770413  56.9976792  76.7487980   3.7926293  57.1613916  76.5006148
  15.0492483  67.7862689  77.7404191  15.5932387  68.3992648  77.2459146
  14.4679328  68.3442268  78.2571204   1.4263917  59.1876143  62.0668810
   1.7217358  58.2786822  62.0135864   0.5251953  59.1663883  61.7449813
  13.3349996  70.9083407  68.8719219  13.2101135  70.1073147  68.3630164
  13.9929087  71.4029601  68.3833189   4.9558164  57.2632140  68.0496359
   4.2344750  57.8768108  67.9103832   5.7451420  57.7989905  67.9713005
  15.3984904  68.7092428  70.4998769  14.4515240  68.5897779  70.4277096
  15.7467677  67.8214926  70.5825030   7.7584478  54.5986566  74.3237011
   8.2818880  54.8448863  75.0863320   7.5396811  55.4306601  73.9040148
   3.1551759  56.8690241  62.1908136   2.8264465  55.9887620  62.0083241
   3.5091129  56.8137910  63.0784525  12.4031338  68.5045144  66.7003121
  12.2556300  67.5761851  66.8810691  13.2284831  68.5265234  66.2160196
   6.2693582  57.1563211  62.5583613   6.6089654  57.6849132  61.8362222
   6.7165702  57.4943617  63.3342180  16.0065459  69.3273702  67.7867994
  16.9312007  69.1216564  67.6492445  15.8380763  69.0790104  68.6957335
   8.9637023  55.5400262  72.0086681   8.6233843  54.7408075  72.4107361
   8.2576029  55.8401972  71.4363514   9.6153495  52.6249574  70.4614004
  10.4379564  52.1510052  70.3392895   9.8591558  53.4040058  70.9612691
   8.2561729  55.6537832  60.7576906   8.9770092  56.0319085  60.2540623
   7.6327033  56.3726709  60.8611884  12.3992852  56.3582981  61.6935238
  12.6156466  57.2407619  61.3924066  11.9186919  55.9669195  60.9640880
   7.1392073  59.3168695  68.2705983   6.9936654  59.6308998  69.1630264
   6.6617277  59.9353595  67.7176882   8.9988456  56.3071243  68.3186872
   8.9850025  55.4112336  67.9819170   9.7160884  56.3141906  68.9525159
  10.8514587  56.7408583  70.3640000  10.5932365  57.6625653  70.3624330
  10.3199627  56.3439017  71.0540464  15.7960776  69.8459370  63.1430085
  15.9697653  69.2805792  62.3903938  16.2889667  70.6460265  62.9609575
   1.6137735  61.8574039  71.2093644   1.0691204  62.6333847  71.3413918
   2.4917085  62.2044844  71.0512766   8.4025352  55.1885623  63.5874443
   8.5241263  54.2602269  63.7865330   8.1127395  55.2024309  62.6752758
  11.2716543  52.8740533  66.7241162  11.2938239  52.9379866  65.7693142
  11.6884602  52.0345042  66.9181669  21.6500167  62.6095793  64.7620385
  22.0931313  61.8603118  64.3639508  20.7726677  62.6005929  64.3794117
  16.7835948  69.1626134  60.2426984  17.4786853  69.7832827  60.4614298
  17.1259098  68.3121486  60.5179361   2.4003757  60.9843935  74.1023801
   1.6585493  61.1326571  74.6888431   2.0796502  61.2452201  73.2390550
  18.6827371  66.6125840  61.7714314  19.2078695  66.9513113  61.0463634
  18.5949724  65.6772855  61.5877449  10.3447420  70.5259914  73.9004191
  10.6534546  70.2809060  74.7726891  11.1422902  70.7306552  73.4123061
  10.3668032  72.6797823  66.1309568   9.9273022  72.1874202  66.8242424
  11.1176149  72.1370791  65.8901643   2.8460371  68.8709364  66.1334196
   3.6718391  68.5713136  65.7532839   2.4954423  68.1016986  66.5823984
   7.8141904  68.2235832  68.2031869   7.1921913  67.5606537  67.9034097
   8.4846771  68.2496964  67.5205517   7.8866432  56.7017620  77.7964375
   7.9354587  57.5779743  77.4142145   8.4288946  56.1595013  77.2236018
  18.3721277  67.2458744  77.0765512  17.5816821  67.2282882  76.5370012
  18.1354632  67.7847037  77.8314549  18.4919152  64.0951210  74.3898241
  18.5417157  63.9301217  75.3313764  18.3833076  63.2278469  73.9996122
   7.3755411  66.7739756  61.6790330   7.5243531  67.4575220  61.0257002
   8.1821855  66.7544846  62.1939785  15.7822915  60.0782138  75.7057548
  16.6832778  59.9388603  75.4141545  15.8570889  60.2436593  76.6455725
  10.1165720  57.4548993  74.5510734   9.2469030  57.7482559  74.2793322
  10.3525200  58.0389438  75.2717998  19.9937349  66.5148151  74.6340262
  19.7022158  66.8778132  75.4703723  19.3809481  65.8015160  74.4553594
  21.1933032  64.0801031  67.1542833  22.0279923  64.5190835  67.3180393
  21.3292160  63.6039684  66.3351078  18.2424537  61.6380766  73.1020320
  18.7178659  61.8308412  72.2939172  17.3190103  61.6939952  72.8563704
   5.1308044  62.8004933  62.6851399   4.8854086  61.8967263  62.8831609
   5.3003959  62.8022084  61.7430877  12.8204754  53.6728610  72.0676154
  13.3386698  54.4089637  71.7422643  12.4659887  53.9792603  72.9022913
   4.4003692  58.5333291  60.1837560   3.7072937  58.6077646  59.5277596
   4.1555444  57.7693634  60.7059077  13.0717348  50.0928892  67.5877051
  13.3519102  49.4252081  68.2137477  13.8567955  50.2857988  67.0751715
  10.8750817  69.2687886  59.1502077  10.3024784  69.8878073  58.6972549
  11.4483610  69.8187248  59.6841999  16.9426206  58.5146526  71.3348626
  17.8943629  58.6144624  71.3560850  16.7729657  57.7224795  71.8446710
  14.9640586  55.6002109  71.5208027  14.3690518  55.8807122  70.8254516
  14.6790283  56.0896010  72.2924768  14.0948076  69.5525036  60.2810659
  15.0278750  69.4870598  60.4843535  14.0071289  70.3881303  59.8225192
  16.7236093  68.8690907  57.2414607  16.6449725  68.5350770  58.1350365
  17.5445760  69.3612674  57.2406079  19.4214284  61.7352646  70.4490926
  19.3890604  60.7968647  70.6350609  20.0314908  61.8136683  69.7156751
  11.2597615  60.6048699  56.4918130  12.2056720  60.4754907  56.5606548
  10.8811860  59.8663361  56.9687558  19.5708773  58.5263689  70.4949209
  19.0547821  57.7422146  70.3079138  20.4548721  58.1982406  70.6595728
  17.2319500  52.2704705  66.4545021  17.0344321  51.9619793  67.3388353
  17.8419205  52.9966344  66.5842951  25.2390834  62.7968653  69.5896962
  25.9694223  62.5353941  70.1504666  24.6297780  62.0597375  69.6299030
  23.3206131  60.9376515  70.1871414  22.5939295  60.8032480  69.5787905
  22.9053418  61.2453344  70.9928132  11.1436308  64.6566445  77.9518787
  12.0639317  64.8345044  78.1458833  11.1085891  63.7122490  77.7998486
   9.4440532  58.5298675  56.4273015   8.5371988  58.2331788  56.5035728
   9.7216513  58.2328493  55.5607301   4.1398380  62.5667480  70.5941568
   4.3584390  63.4984587  70.6129602   4.5524154  62.2075454  71.3796372
  11.0602598  53.0735565  62.5817256  10.2503326  52.7282650  62.9572502
  11.7487015  52.7643109  63.1704868  12.9893146  52.1513612  64.2041553
  13.5424185  52.5709065  64.8631576  13.2263233  51.2249360  64.2464509
   9.0126246  58.1400685  79.9844317   8.9122972  59.0895042  79.9156408
   8.7947788  57.8118924  79.1120387   8.2139317  55.3885610  56.5684994
   9.0758481  55.7140509  56.8280811   8.3989661  54.6017106  56.0558060
  16.3671953  54.2614137  63.7120217  15.7870622  54.9198941  63.3298269
  16.1007886  53.4391481  63.3007635  14.8175520  53.6619195  65.9141537
  15.3175298  53.7735729  65.1055856  15.4611128  53.3580247  66.5542346
   8.8757516  61.5697824  78.8009378   8.3924597  62.3698184  79.0073267
   8.9618455  61.5805769  77.8476822   2.1443475  63.4026204  66.7231198
   2.1214163  63.5013891  65.7713081   2.4544112  64.2491355  67.0448364
   4.8030853  65.4602359  70.8377812   5.7574107  65.4286301  70.7707744
   4.6043377  64.9992983  71.6528038   5.3930235  64.0303475  73.4048610
   6.2123124  64.5247554  73.4283447   5.6667043  63.1135443  73.3766177
  15.1496831  56.4214227  62.7676565  14.2622686  56.7063878  62.5496760
  15.5650820  56.2607991  61.9203842  18.5011368  56.4460748  66.4830905
  19.2771758  56.9357201  66.7555521  17.7759502  56.8718802  66.9402774
  20.9383926  57.1588367  67.5404845  21.5328417  56.9184103  66.8298153
  21.0110510  56.4395498  68.1678382   3.1581082  71.0021978  67.8548010
   3.0235550  70.2422379  67.2886008   2.7413144  71.7262878  67.3876799
  14.2940045  66.1858902  56.8624585  14.9975895  66.3908904  57.4782241
  13.5702694  66.7535664  57.1273669  15.1237855  61.9368763  62.9826856
  15.0673057  62.3937315  62.1434488  15.6766198  61.1759448  62.8049698
  18.9342661  57.7258495  63.8076975  18.6779595  57.3255131  64.6385183
  18.3095529  58.4402289  63.6827114  23.2454999  60.4654568  66.3148266
  22.6854557  60.5347758  67.0879828  22.6398502  60.2895553  65.5947763
   6.3150208  71.8991295  68.0666453   6.1982592  72.8436728  67.9645143
   5.4942654  71.5964857  68.4552252  16.2026742  66.6241431  58.9123045
  17.0372346  66.1922630  58.7300520  16.0411085  66.4523445  59.8399940
  15.8572634  63.1273544  60.2779385  15.8021438  62.9617816  59.3367829
  15.2318690  63.8349577  60.4341574  13.1718542  65.4322456  79.6032947
  14.0409701  65.6063109  79.2419582  12.6925293  66.2516873  79.4808677
   9.1668760  52.6281653  59.8564703   9.1547430  53.5723493  60.0132974
  10.0592182  52.4451799  59.5624164   7.3404722  72.5519557  71.2822381
   8.2431969  72.5843168  71.5988876   7.1142092  71.6220008  71.2968717
   9.0958324  71.3050544  67.9432460   8.1453955  71.3052405  67.8296832
   9.3990810  70.5583278  67.4268494  12.9820879  49.2224430  64.1110640
  12.2153275  48.6682917  64.2567322  13.3931584  49.2946299  64.9724792
   4.9862640  55.5109226  78.2015821   5.8494102  55.1546031  78.4119146
   4.4128051  55.1723121  78.8891225  24.8311017  77.1411082  69.0078222
  25.4689427  77.0217830  68.3041562  24.7131860  78.0891926  69.0666174
  21.6400724  77.0938510  68.9439747  21.3019235  76.9779575  68.0560282
  22.5090492  76.6929675  68.9240753  17.4987539  78.9473987  64.9336638
  16.9352404  78.8563924  64.1652926  17.3839934  78.1273891  65.4139130
  22.1220507  78.2473362  74.9025952  22.1109147  77.8526160  74.0306456
  22.2841146  77.5139435  75.4959724  15.0451971  80.4425178  67.7720858
  15.8373263  80.1016003  67.3567158  15.2848621  80.5520153  68.6923012
  23.0787098  82.6144954  60.2451103  22.4275078  83.1999035  59.8585116
  23.8731461  83.1451149  60.3046140  17.0042725  79.7034092  60.6438237
  17.7773601  79.1563079  60.5051113  17.3568124  80.5678341  60.8552698
  18.8427768  81.0310474  73.8505136  18.5517634  81.9356105  73.7351803
  19.4784752  81.0727001  74.5649206  19.7683975  78.4087322  70.4406496
  20.3647547  78.1843345  69.7263459  19.8258946  77.6672068  71.0431944
  19.3409003  75.8626758  58.2756687  19.5934524  75.3408279  57.5140150
  18.4033562  75.6992903  58.3783371  24.3852286  74.8662536  66.0831430
  25.1715375  74.4481959  65.7321847  24.6490990  75.7708628  66.2513079
  24.5562363  80.3035386  60.7820087  23.9208196  80.3770013  61.4940992
  24.2259770  80.8928985  60.1039166  19.0605292  77.7654864  60.4781062
  18.9441550  77.0899767  61.1462146  19.1707552  77.2787238  59.6613215
  21.4036833  77.2265011  64.1827751  21.0395040  76.6995632  64.8940673
  22.2603949  76.8363480  64.0094237  27.3086133  68.5159343  71.4459017
  26.9769458  69.3854754  71.2220232  26.7131747  68.1995627  72.1253048
  21.0442320  72.2554910  59.1789100  21.2116722  73.1235147  59.5459571
  20.8539489  72.4182192  58.2550389  23.8017653  80.7171889  70.8454930
  23.5018376  81.6196928  70.7370737  23.4568712  80.4504073  71.6976083
  17.2530134  77.1685686  66.8791634  16.3280631  77.0361900  67.0869326
  17.5014548  77.9479905  67.3761577  27.2014797  73.2354430  68.5252367
  26.2931674  73.1669838  68.2311128  27.1502392  73.7126374  69.3534193
  21.0231541  74.7112568  60.1635766  20.9031166  75.1569619  61.0021247
  20.3284129  75.0597886  59.6049305  14.6138945  76.8118960  67.7135424
  14.7431327  77.0653439  68.6274835  13.9336397  77.4046668  67.3940079
  18.7838433  87.4816210  63.8125898  18.7062462  88.4324035  63.8914378
  18.1800076  87.1362082  64.4700824  21.2755662  74.6544075  76.4687265
  20.4988996  75.2137995  76.4590129  21.9146225  75.1400858  76.9902135
  29.0676443  71.4370868  70.3030241  28.4250823  71.7303401  69.6570036
  28.5631372  71.3223788  71.1083438  26.7216607  75.1834041  60.9916101
  27.6334463  75.4161428  60.8163798  26.2126254  75.7671085  60.4291179
  19.5302035  77.4629529  76.0305232  20.2716719  78.0014572  75.7540055
  18.8239020  78.0895817  76.1876783  25.0057374  79.6058669  74.6277393
  25.4140730  79.1641079  73.8832025  24.2834636  79.0311296  74.8811586
  21.3588444  74.5431276  72.0010950  22.2049640  74.9670689  72.1445599
  21.2987082  73.8864900  72.6949513  25.3286189  80.1659860  68.3829682
  24.6995051  80.3305574  67.6805750  24.9411851  80.5801469  69.1540646
  29.2075421  81.1014297  65.7374046  28.5226459  81.4813199  65.1871079
  29.2919270  81.7109624  66.4705994  24.5087890  72.2035644  73.6592124
  24.2648822  72.9577705  73.1226399  24.7847820  72.5820992  74.4939371
  26.4626353  78.7474256  72.3369389  26.6743248  79.3906016  71.6603770
  26.4156101  77.9136573  71.8691319  24.0652581  71.3592077  69.2405961
  23.2037061  71.6573331  69.5322699  24.0915016  71.5762476  68.3086994
  20.8814151  79.9034268  65.6479767  21.3452496  80.1821971  64.8584390
  20.6170949  79.0017712  65.4652858  17.7738232  79.4505749  68.5859530
  18.3439589  79.8793018  67.9477015  18.3646344  79.1688334  69.2843716
  19.8183037  76.0257420  62.4569332  20.5207080  76.4778464  62.9243259
  19.4863665  75.3841239  63.0849225  18.2663398  74.6169177  76.8320542
  17.6362059  75.2985458  77.0655938  18.1599486  74.5052258  75.8873680
  13.5608371  74.2840973  67.7586466  12.7707425  74.5398501  67.2826576
  14.0519618  75.0989311  67.8638506  27.5772180  81.6246212  70.5091747
  28.3989624  81.2226399  70.2274428  27.5734583  81.5214446  71.4607862
  15.5123116  74.6485552  64.7169943  14.7154280  74.7604246  65.2353438
  15.2848708  74.9872204  63.8510833  21.3428784  81.1730255  72.6652457
  21.4073216  81.6350662  73.5010629  20.6339708  80.5427620  72.7934767
  11.8446074  74.5371463  70.1901457  12.0954112  75.4218473  70.4559033
  12.3805622  74.3576065  69.4176548  21.0576802  82.8398363  62.5331437
  20.9222476  83.6849898  62.9616285  21.5986614  83.0417640  61.7697371
  17.5444141  68.9189943  79.1945793  17.1511087  68.3656141  79.8693437
  18.3610282  69.2300521  79.5852310  14.5106199  80.3573801  63.1059363
  15.0230720  81.1517051  63.2564927  15.1628912  79.6600091  63.0392964
  16.3201084  83.4739557  65.1882116  16.4967712  84.3957522  65.0003100
  17.1157917  83.1597976  65.6176496  20.4612102  70.3347822  76.7866049
  21.2021816  70.9354975  76.7070512  20.6930025  69.5925459  76.2284092
  15.6053440  75.5204189  75.0644279  15.4906955  74.6189446  75.3651378
  14.7497958  75.7667886  74.7129095  22.6845278  83.4621929  76.6631780
  22.2409132  82.6758308  76.3452684  23.3462492  83.6501080  75.9975670
  17.4432399  84.9917731  71.1892458  17.9939824  84.8634794  70.4169452
  16.6043875  85.2912620  70.8387351  24.7826516  83.7424729  74.6913181
  24.7644991  84.5633610  74.1993450  25.7046436  83.6178804  74.9163322
  21.2399570  81.2568859  75.5336689  21.7727907  80.4957147  75.3035997
  20.7113651  80.9642510  76.2760844  24.4069265  66.3628925  71.0630331
  24.0633535  67.2530566  70.9869442  24.7748228  66.1730582  70.1999916
  12.4755116  78.6862455  63.8818933  13.3130338  79.0959463  63.6652641
  12.6533383  77.7461897  63.8519127  24.3719548  76.3537536  59.5702766
  23.8566171  77.1242140  59.8091153  24.0996856  75.6802672  60.1935827
  21.9566659  71.1987236  64.6288004  21.1008255  70.8094087  64.4493643
  22.3693611  71.2779197  63.7687790  23.4865806  68.7333580  69.0279564
  22.9830601  68.6963715  68.2147369  23.7796412  69.6426322  69.0876221
  19.7308691  68.8172309  68.0345746  20.5961688  68.6215118  67.6751635
  19.7986200  68.5882661  68.9615103  29.3453822  79.1069890  61.5055940
  28.5683265  78.7681050  61.0611102  30.0245303  79.1122513  60.8310905
  24.1605851  74.2264628  61.3962547  23.8555987  74.5410777  62.2472690
  25.1136293  74.3046048  61.4389880  22.6052283  80.3854851  63.0455501
  22.0773644  79.6507611  62.7328739  22.1039786  81.1629527  62.7995470
  27.5845129  78.5803872  68.1622547  26.9268803  79.2703133  68.2502676
  28.3885528  78.9700303  68.5056534  17.3371010  71.0474517  65.4062113
  17.9114762  70.8249699  64.6735306  17.9241993  71.1163212  66.1590714
  26.3950588  76.9348244  66.2126489  26.9082469  77.5678236  66.7148199
  27.0451812  76.3349440  65.8469849  17.6640598  73.0778978  59.4257998
  16.8277910  73.4153665  59.7467273  17.5245367  72.9427958  58.4885135
  19.6393678  67.9215766  64.1337182  18.9858091  67.6064783  63.5093797
  19.5974152  67.2991507  64.8597005  20.7504883  78.2035061  56.0490474
  19.8431945  77.9724315  56.2481623  21.2475915  77.4072681  56.2364456
  23.6572962  86.9132569  58.9687160  22.9834661  87.2164265  59.5772118
  24.0438784  87.7161649  58.6192617  22.8731419  74.4097700  68.4584830
  21.9553980  74.6312647  68.3006518  23.2891562  74.4844010  67.5996537
  23.6566466  75.8089115  63.5887510  24.4038285  76.3210513  63.2794632
  23.9258056  75.4873168  64.4491904  21.9293117  78.3047656  60.5714464
  21.0204336  78.0206689  60.6686934  21.9588200  78.7246735  59.7117771
  27.1612384  81.9154246  64.3405632  26.7074711  81.0745156  64.3970822
  26.5306351  82.5515644  64.6780412  26.1045303  72.8446232  65.5706299
  25.3668060  72.3323618  65.9016542  26.3572077  72.4046613  64.7589576
  25.6045323  83.7530742  65.2755450  25.8968298  84.3135799  64.5567816
  26.1143944  84.0459303  66.0308609  26.2056931  65.6222484  66.1648069
  26.5115808  64.7619847  65.8773984  26.9309536  66.2140104  65.9647063
  12.4981287  76.0253170  64.5529667  12.3005687  75.4322531  63.8280733
  11.9427951  75.7205381  65.2705605  20.4778011  75.9176277  66.6724260
  20.5326620  74.9650113  66.5966736  19.6669213  76.0735716  67.1565558
  21.6269204  79.8456400  57.9102543  21.1888634  79.1292259  57.4508180
  22.3679645  80.0732515  57.3487634  18.4170370  74.5353337  64.4314639
  17.6038236  74.8347507  64.8379831  18.9129365  74.1409025  65.1489121
  20.5678948  84.5311093  66.3648903  20.5255127  84.7571940  65.4357435
  21.4841647  84.2974468  66.5134704  24.0144582  74.9995161  73.2629532
  24.3693970  75.2266634  74.1223998  24.6616713  75.3313538  72.6406788
  29.7442319  78.1213597  63.9678861  29.6060218  78.3115193  63.0400051
  29.3878538  78.8832980  64.4246913  17.9084445  72.1071692  70.0475873
  18.5483825  71.9660451  69.3498837  17.0761976  71.8206205  69.6714475
  29.7711699  80.1890124  68.9790133  30.2048205  80.0965413  69.8273187
  30.4843279  80.1647624  68.3410149  18.6844749  81.4074122  66.1610866
  19.4785348  80.9124443  65.9593441  17.9736442  80.8791986  65.7978572
  23.5039594  83.7892218  70.5123234  23.5576616  84.3583154  71.2800949
  22.6354375  83.9594103  70.1477271  14.9927513  75.5517204  62.2370619
  14.0625101  75.4901660  62.4540581  15.0884985  75.0293157  61.4407260
  14.9113062  72.0772017  64.8248860  15.1719879  72.9917350  64.7158021
  15.7330234  71.6096460  64.9745473  16.3837987  73.4909774  71.9947685
  17.0561040  73.2827136  71.3460334  15.5567774  73.2931860  71.5552917
  30.6327248  80.2313825  71.5123018  30.8263138  81.1359635  71.7582293
  30.5327866  79.7721244  72.3461603  22.2863559  70.1171715  74.0113346
  21.6391474  70.8161665  73.9177822  23.0564574  70.5507859  74.3789594
  25.6942357  80.3820567  77.0863899  25.5427863  80.1531119  76.1693983
  25.6847036  81.3391169  77.0995244  22.4627693  77.9552480  72.0710165
  23.3919753  78.1063640  71.8979133  22.0418723  78.0436501  71.2158812
  21.2616025  81.9803144  69.8408703  21.1227111  81.6121929  70.7134641
  20.4730621  82.4950784  69.6692661  21.8564177  87.0812241  61.1834240
  22.0315933  86.6100284  61.9979862  21.1696965  87.7078007  61.4115500
  22.8121240  81.3584747  67.2297541  22.4771073  81.3185517  68.1255191
  22.3125186  80.6929463  66.7567951  16.7865484  76.7652377  72.7550122
  16.6485282  76.0332616  73.3561661  17.6970408  76.6761277  72.4734310
  25.7480432  78.7040782  57.5034600  25.1309603  77.9787610  57.4067653
  25.2796920  79.4650142  57.1601675  19.4147785  76.4772337  72.2433802
  20.1247403  75.8365529  72.2020420  19.3717093  76.7285231  73.1659982
  27.4034564  83.4139690  75.1640381  27.3447110  82.7298910  74.4970964
  27.8054082  84.1558680  74.7121007  18.1276719  73.4637554  74.0629441
  17.5914076  73.0128293  74.7151037  17.5393427  73.5983463  73.3199905
  16.4225262  90.2301604  67.9574100  16.6621861  90.8620128  68.6353118
  15.5794459  89.8789644  68.2439459  17.5378978  72.9226206  56.6255905
  16.6608444  72.8015007  56.2618151  18.0136731  72.1312284  56.3734793
  27.4051971  81.3779274  73.3954361  26.5178750  81.0405196  73.5180759
  27.9750522  80.6462305  73.6323126   9.0581118  77.7103366  66.7197412
   9.7452158  77.3965096  66.1318427   8.9029247  78.6144730  66.4464663
  13.8615840  72.5993562  71.1482436  13.7774029  71.9919232  70.4132846
  13.0398547  73.0902580  71.1491932  20.9353124  86.0380726  70.3615604
  20.8623296  86.8435698  70.8734908  20.4930517  86.2372692  69.5363625
  20.7242904  85.2752496  63.8718425  19.9410426  85.8174176  63.9656650
  21.4235649  85.7926476  64.2712666  24.0339554  71.0847126  66.5152631
  24.5308254  70.3317088  66.1953701  23.2626535  71.1211442  65.9495840
  31.8869311  76.7887491  68.1570922  31.8759188  77.6712207  67.7864855
  31.0186691  76.4359042  67.9625459  23.3951808  85.9367560  72.5173762
  24.1079780  86.5715025  72.4449664  22.9041836  86.0331426  71.7013764
  25.1169335  79.8418813  64.0891054  24.1825613  79.9620275  63.9195758
  25.2946003  78.9391280  63.8251064  20.6174523  73.2264509  66.2424315
  20.2472310  72.6735549  66.9305221  21.1133615  72.6222642  65.6899315
  28.5041886  75.6836132  64.6241088  28.9702338  76.5164124  64.5501391
  28.9549387  75.2181114  65.3286347  18.4463721  83.6862004  73.3379333
  19.1473181  84.3198487  73.4908727  17.9758836  84.0276735  72.5774972
  26.5718117  82.0279953  61.6227240  26.8477961  81.9136548  62.5321114
  25.7022616  81.6297438  61.5839413  26.4758549  68.0516719  68.6631990
  25.5621629  68.2820946  68.8314196  26.9051650  68.1355163  69.5146022
  26.2465007  76.2406611  71.1631884  25.5936458  76.4882519  70.5084336
  26.6245387  75.4270749  70.8294361  23.2072181  86.2766304  65.2660054
  23.3894576  85.4587960  65.7287806  24.0305167  86.4933997  64.8284944
  23.5414347  85.2034489  62.5275102  24.0702113  84.6926944  61.9145264
  23.8042566  84.8877020  63.3920635  22.2952580  76.9826422  77.6497921
  21.6193217  76.8820551  78.3200296  23.1180214  76.8265636  78.1133918
  14.0431439  83.2198359  70.2710436  14.6284876  82.4742047  70.4038340
  13.8456278  83.5302315  71.1547100  16.8970095  86.2549606  65.2872878
  16.2280470  86.7395734  64.8036918  16.7582964  86.5018827  66.2016257
   8.6349094  75.7903959  68.9914879   8.6733194  75.2567550  69.7851997
   8.1289387  75.2639164  68.3725856  21.0375363  88.2893350  71.8855537
  21.5893671  88.4524971  72.6504622  21.3781557  88.8797787  71.2135561
  16.0139856  70.6368499  72.4877421  16.0781183  71.4983330  72.0754819
  15.9506977  70.0242501  71.7549780  15.4892129  72.7091632  76.1350456
  16.1164168  72.3268709  76.7487980  14.6320048  72.4905834  76.5006148
  25.8886237  83.1154607  77.7404191  26.4326141  83.7284565  77.2459146
  25.3073082  83.6734186  78.2571204  12.2657672  74.5168061  62.0668810
  12.5611113  73.6078739  62.0135864  11.3645707  74.4955801  61.7449813
  24.1743750  86.2375325  68.8719219  24.0494890  85.4365065  68.3630164
  24.8322842  86.7321519  68.3833189  15.7951919  72.5924058  68.0496359
  15.0738504  73.2060025  67.9103832  16.5845174  73.1281822  67.9713005
  26.2378659  84.0384345  70.4998769  25.2908994  83.9189696  70.4277096
  26.5861432  83.1506843  70.5825030  18.5978232  69.9278484  74.3237011
  19.1212634  70.1740781  75.0863320  18.3790565  70.7598519  73.9040148
  13.9945513  72.1982159  62.1908136  13.6658219  71.3179538  62.0083241
  14.3484884  72.1429827  63.0784525  23.2425092  83.8337061  66.7003121
  23.0950055  82.9053769  66.8810691  24.0678586  83.8557152  66.2160196
  17.1087336  72.4855129  62.5583613  17.4483409  73.0141050  61.8362222
  17.5559457  72.8235535  63.3342180  26.8459214  84.6565620  67.7867994
  27.7705761  84.4508482  67.6492445  26.6774517  84.4082021  68.6957335
  19.8030777  70.8692179  72.0086681  19.4627598  70.0699992  72.4107361
  19.0969784  71.1693890  71.4363514  20.4547249  67.9541492  70.4614004
  21.2773318  67.4801970  70.3392895  20.6985313  68.7331975  70.9612691
  19.0955484  70.9829750  60.7576906  19.8163846  71.3611003  60.2540623
  18.4720788  71.7018627  60.8611884  23.2386606  71.6874899  61.6935238
  23.4550221  72.5699537  61.3924066  22.7580674  71.2961112  60.9640880
  17.9785828  74.6460612  68.2705983  17.8330409  74.9600915  69.1630264
  17.5011031  75.2645513  67.7176882  19.8382211  71.6363160  68.3186872
  19.8243779  70.7404254  67.9819170  20.5554639  71.6433824  68.9525159
  21.6908341  72.0700501  70.3640000  21.4326119  72.9917571  70.3624330
  21.1593382  71.6730935  71.0540464  26.6354530  85.1751288  63.1430085
  26.8091408  84.6097710  62.3903938  27.1283421  85.9752183  62.9609575
  12.4531490  77.1865957  71.2093644  11.9084958  77.9625765  71.3413918
  13.3310840  77.5336761  71.0512766  19.2419107  70.5177541  63.5874443
  19.3635018  69.5894187  63.7865330  18.9521149  70.5316227  62.6752758
  22.1110297  68.2032451  66.7241162  22.1331994  68.2671784  65.7693142
  22.5278356  67.3636960  66.9181669  32.4893921  77.9387711  64.7620385
  32.9325067  77.1895036  64.3639508  31.6120432  77.9297847  64.3794117
  27.6229703  84.4918052  60.2426984  28.3180607  85.1124745  60.4614298
  27.9652853  83.6413403  60.5179361  13.2397512  76.3135853  74.1023801
  12.4979248  76.4618488  74.6888431  12.9190256  76.5744119  73.2390550
  29.5221126  81.9417758  61.7714314  30.0472450  82.2805030  61.0463634
  29.4343478  81.0064773  61.5877449  21.1841174  85.8551831  73.9004191
  21.4928301  85.6100978  74.7726891  21.9816657  86.0598470  73.4123061
  21.2061787  88.0089741  66.1309568  20.7666777  87.5166120  66.8242424
  21.9569903  87.4662708  65.8901643  13.6854126  84.2001282  66.1334196
  14.5112145  83.9005054  65.7532839  13.3348178  83.4308904  66.5823984
  18.6535659  83.5527750  68.2031869  18.0315668  82.8898455  67.9034097
  19.3240526  83.5788882  67.5205517  11.8862731  82.1187608  67.0923129
  11.0494639  81.6909783  66.9107130  11.8586376  82.3120051  68.0293920
  18.7260186  72.0309538  77.7964375  18.7748342  72.9071661  77.4142145
  19.2682700  71.4886931  77.2236018  29.2115032  82.5750661  77.0765512
  28.4210576  82.5574800  76.5370012  28.9748386  83.1138955  77.8314549
  29.3312907  79.4243128  74.3898241  29.3810912  79.2593135  75.3313764
  29.2226830  78.5570387  73.9996122  18.2149166  82.1031673  61.6790330
  18.3637286  82.7867138  61.0257002  19.0215609  82.0836763  62.1939785
  26.6216669  75.4074056  75.7057548  27.5226532  75.2680520  75.4141545
  26.6964644  75.5728510  76.6455725  20.9559475  72.7840910  74.5510734
  20.0862784  73.0774476  74.2793322  21.1918955  73.3681355  75.2717998
  30.8331104  81.8440069  74.6340262  30.5415912  82.2070050  75.4703723
  30.2203235  81.1307077  74.4553594  32.0326786  79.4092949  67.1542833
  32.8673677  79.8482753  67.3180393  32.1685915  78.9331602  66.3351078
  29.0818292  76.9672684  73.1020320  29.5572414  77.1600330  72.2939172
  28.1583857  77.0231870  72.8563704  15.9701799  78.1296851  62.6851399
  15.7247841  77.2259181  62.8831609  16.1397713  78.1314001  61.7430877
  23.6598508  69.0020527  72.0676154  24.1780452  69.7381554  71.7422643
  23.3053641  69.3084521  72.9022913  15.2397446  73.8625208  60.1837560
  14.5466691  73.9369563  59.5277596  14.9949198  73.0985552  60.7059077
  23.9111103  65.4220810  67.5877051  24.1912856  64.7543999  68.2137477
  24.6961710  65.6149905  67.0751715  21.7144571  84.5979804  59.1502077
  21.1418538  85.2169991  58.6972549  22.2877365  85.1479165  59.6841999
  27.7819961  73.8438444  71.3348626  28.7337384  73.9436541  71.3560850
  27.6123411  73.0516712  71.8446710  25.8034340  70.9294027  71.5208027
  25.2084273  71.2099040  70.8254516  25.5184037  71.4187928  72.2924768
  24.9341831  84.8816954  60.2810659  25.8672504  84.8162516  60.4843535
  24.8465044  85.7173221  59.8225192  27.5629848  84.1982824  57.2414607
  27.4843479  83.8642688  58.1350365  28.3839514  84.6904592  57.2406079
  30.2608039  77.0644563  70.4490926  30.2284359  76.1260564  70.6350609
  30.8708662  77.1428600  69.7156751  22.0991370  75.9340616  56.4918130
  23.0450474  75.8046825  56.5606548  21.7205615  75.1955278  56.9687558
  30.4102527  73.8555607  70.4949209  29.8941576  73.0714064  70.3079138
  31.2942476  73.5274324  70.6595728  28.0713254  67.5996622  66.4545021
  27.8738075  67.2911711  67.3388353  28.6812960  68.3258261  66.5842951
  21.9830062  79.9858363  77.9518787  22.9033072  80.1636962  78.1458833
  21.9479645  79.0414408  77.7998486  20.2834287  73.8590593  56.4273015
  19.3765742  73.5623706  56.5035728  20.5610268  73.5620411  55.5607301
  11.2012227  75.1796956  66.8772061  10.8815012  74.3262264  66.5846435
  10.6545655  75.3945534  67.6330029  14.9792135  77.8959397  70.5941568
  15.1978144  78.8276505  70.6129602  15.3917909  77.5367372  71.3796372
  21.8996352  68.4027483  62.5817256  21.0897081  68.0574568  62.9572502
  22.5880769  68.0935026  63.1704868  23.8286901  67.4805529  64.2041553
  24.3817939  67.9000983  64.8631576  24.0656987  66.5541277  64.2464509
  19.8520000  73.4692603  79.9844317  19.7516727  74.4186960  79.9156408
  19.6341542  73.1410842  79.1120387  19.0533071  70.7177528  56.5684994
  19.9152235  71.0432426  56.8280811  19.2383416  69.9309024  56.0558060
  11.0700487  78.7999868  68.8465183  10.3763959  78.3853821  68.3335137
  11.8173478  78.8420404  68.2498602  27.2065708  69.5906055  63.7120217
  26.6264377  70.2490859  63.3298269  26.9401641  68.7683399  63.3007635
  25.6569274  68.9911112  65.9141537  26.1569053  69.1027647  65.1055856
  26.3004882  68.6872165  66.5542346  19.7151270  76.8989742  78.8009378
  19.2318352  77.6990102  79.0073267  19.8012209  76.9097687  77.8476822
  12.9837230  78.7318122  66.7231198  12.9607918  78.8305809  65.7713081
  13.2937866  79.5783272  67.0448364  15.6424608  80.7894277  70.8377812
  16.5967861  80.7578219  70.7707744  15.4437131  80.3284900  71.6528038
  16.2323990  79.3595393  73.4048610  17.0516879  79.8539471  73.4283447
  16.5060797  78.4427361  73.3766177  25.9890586  71.7506145  62.7676565
  25.1016441  72.0355796  62.5496760  26.4044575  71.5899908  61.9203842
  13.9974836  86.3313896  67.8548010  13.8629304  85.5714297  67.2886008
  13.5806899  87.0554796  67.3876799  25.1333799  81.5150820  56.8624585
  25.8369649  81.7200822  57.4782241  24.4096448  82.0827581  57.1273669
  25.9631610  77.2660681  62.9826856  25.9066811  77.7229232  62.1434488
  26.5159952  76.5051365  62.8049698  17.1543962  87.2283213  68.0666453
  17.0376346  88.1728646  67.9645143  16.3336408  86.9256775  68.4552252
  27.0420497  81.9533349  58.9123045  27.8766101  81.5214547  58.7300520
  26.8804840  81.7815362  59.8399940  26.6966389  78.4565462  60.2779385
  26.6415193  78.2909734  59.3367829  26.0712444  79.1641495  60.4341574
  11.4858904  73.6933526  74.1040807  12.1317768  73.1832480  74.5928032
  11.2776055  74.4302208  74.6784232  24.0112296  80.7614374  79.6032947
  24.8803456  80.9355026  79.2419582  23.5319048  81.5808791  79.4808677
  20.0062514  67.9573571  59.8564703  19.9941184  68.9015411  60.0132974
  20.8985936  67.7743717  59.5624164  18.1798476  87.8811475  71.2822381
  19.0825723  87.9135085  71.5988876  17.9535846  86.9511926  71.2968717
  19.9352078  86.6342462  67.9432460  18.9847709  86.6344323  67.8296832
  20.2384565  85.8875196  67.4268494  23.8214634  64.5516348  64.1110640
  23.0547030  63.9974834  64.2567322  24.2325339  64.6238217  64.9724792
  15.8256395  70.8401144  78.2015821  16.6887856  70.4837948  78.4119146
  15.2521806  70.5015038  78.8891225  35.6704772  92.4703000  69.0078222
  36.3083182  92.3509747  68.3041562  35.5525615  93.4183844  69.0666174
  32.4794478  92.4230428  68.9439747  32.1412990  92.3071493  68.0560282
  33.3484246  92.0221593  68.9240753  28.3381294  94.2765904  64.9336638
  27.7746159  94.1855841  64.1652926  28.2233689  93.4565809  65.4139130
  32.9614261  93.5765280  74.9025952  32.9502902  93.1818078  74.0306456
  33.1234901  92.8431352  75.4959724  25.8845726  95.7717096  67.7720858
  26.6767018  95.4307921  67.3567158  26.1242376  95.8812071  68.6923012
  33.9180853  97.9436872  60.2451103  33.2668832  98.5290953  59.8585116
  34.7125215  98.4743067  60.3046140  27.8436480  95.0326009  60.6438237
  28.6167356  94.4854996  60.5051113  28.1961879  95.8970259  60.8552698
  29.6821522  96.3602392  73.8505136  29.3911388  97.2648022  73.7351803
  30.3178507  96.4018919  74.5649206  30.6077729  93.7379240  70.4406496
  31.2041301  93.5135262  69.7263459  30.6652701  92.9963986  71.0431944
  30.1802758  91.1918675  58.2756687  30.4328278  90.6700197  57.5140150
  29.2427317  91.0284821  58.3783371  35.2246040  90.1954454  66.0831430
  36.0109130  89.7773877  65.7321847  35.4884745  91.1000546  66.2513079
  35.3956118  95.6327304  60.7820087  34.7601951  95.7061931  61.4940992
  35.0653524  96.2220903  60.1039166  40.6254467  90.1329687  66.9864409
  41.3579639  89.5628904  67.2202238  39.8693823  89.7451287  67.4270914
  29.8999046  93.0946781  60.4781062  29.7835304  92.4191685  61.1462146
  30.0101306  92.6079155  59.6613215  32.2430587  92.5556928  64.1827751
  31.8788794  92.0287549  64.8940673  33.0997703  92.1655397  64.0094237
  38.1479888  83.8451261  71.4459017  37.8163213  84.7146672  71.2220232
  37.5525501  83.5287545  72.1253048  31.8836074  87.5846828  59.1789100
  32.0510477  88.4527065  59.5459571  31.6933243  87.7474110  58.2550389
  34.6411407  96.0463807  70.8454930  34.3412130  96.9488846  70.7370737
  34.2962467  95.7795990  71.6976083  28.0923889  92.4977604  66.8791634
  27.1674385  92.3653818  67.0869326  28.3408302  93.2771823  67.3761577
  38.0408551  88.5646347  68.5252367  37.1325428  88.4961756  68.2311128
  37.9896147  89.0418292  69.3534193  31.8625295  90.0404486  60.1635766
  31.7424920  90.4861536  61.0021247  31.1677883  90.3889803  59.6049305
  25.4532700  92.1410877  67.7135424  25.5825081  92.3945356  68.6274835
  24.7730151  92.7338585  67.3940079  32.1149417  89.9835993  76.4687265
  31.3382751  90.5429913  76.4590129  32.7539980  90.4692776  76.9902135
  39.9070198  86.7662786  70.3030241  39.2644578  87.0595319  69.6570036
  39.4025126  86.6515706  71.1083438  37.5610361  90.5125959  60.9916101
  38.4728217  90.7453346  60.8163798  37.0520008  91.0963003  60.4291179
  30.3695789  92.7921446  76.0305232  31.1110474  93.3306490  75.7540055
  29.6632775  93.4187735  76.1876783  35.8451129  94.9350587  74.6277393
  36.2534485  94.4932997  73.8832025  35.1228390  94.3603214  74.8811586
  32.1982199  89.8723193  72.0010950  33.0443394  90.2962607  72.1445599
  32.1380837  89.2156818  72.6949513  36.1679944  95.4951777  68.3829682
  35.5388806  95.6597491  67.6805750  35.7805606  95.9093387  69.1540646
  40.0469175  96.4306215  65.7374046  39.3620214  96.8105116  65.1871079
  40.1313025  97.0401542  66.4705994  35.3481644  87.5327562  73.6592124
  35.1042576  88.2869622  73.1226399  35.6241575  87.9112909  74.4939371
  37.3020107  94.0766174  72.3369389  37.5137002  94.7197934  71.6603770
  37.2549855  93.2428491  71.8691319  34.9046336  86.6883995  69.2405961
  34.0430815  86.9865248  69.5322699  34.9308771  86.9054394  68.3086994
  31.7207905  95.2326185  65.6479767  32.1846251  95.5113888  64.8584390
  31.4564703  94.3309630  65.4652858  28.6131986  94.7797667  68.5859530
  29.1833344  95.2084935  67.9477015  29.2040098  94.4980252  69.2843716
  30.6576791  91.3549338  62.4569332  31.3600835  91.8070381  62.9243259
  30.3257420  90.7133157  63.0849225  29.1057153  89.9461094  76.8320542
  28.4755814  90.6277375  77.0655938  28.9993241  89.8344176  75.8873680
  24.4002125  89.6132890  67.7586466  23.6101179  89.8690419  67.2826576
  24.8913373  90.4281228  67.8638506  38.4165935  96.9538130  70.5091747
  39.2383379  96.5518317  70.2274428  38.4128338  96.8506364  71.4607862
  26.3516871  89.9777470  64.7169943  25.5548034  90.0896164  65.2353438
  26.1242463  90.3164122  63.8510833  32.1822538  96.5022173  72.6652457
  32.2466971  96.9642580  73.5010629  31.4733462  95.8719538  72.7934767
  22.6839828  89.8663381  70.1901457  22.9347867  90.7510391  70.4559033
  23.2199377  89.6867982  69.4176548  46.5071928  93.2976878  66.8576718
  45.7535636  92.7284276  66.7020723  46.6419469  93.2639543  67.8047353
  31.8970556  98.1690280  62.5331437  31.7616231  99.0141816  62.9616285
  32.4380369  98.3709558  61.7697371  28.3837896  84.2481860  79.1945793
  27.9904841  83.6948059  79.8693437  29.2004036  84.5592439  79.5852310
  25.3499953  95.6865718  63.1059363  25.8624474  96.4808969  63.2564927
  26.0022666  94.9892009  63.0392964  27.1594838  98.8031475  65.1882116
  27.3361466  99.7249439  65.0003100  27.9551672  98.4889894  65.6176496
  31.3005857  85.6639739  76.7866049  32.0415570  86.2646892  76.7070512
  31.5323780  84.9217377  76.2284092  26.4447195  90.8496107  75.0644279
  26.3300710  89.9481364  75.3651378  25.5891712  91.0959803  74.7129095
  33.5239032  98.7913847  76.6631780  33.0802887  98.0050225  76.3452684
  34.1856246  98.9792997  75.9975670  28.2826154 100.3209648  71.1892458
  28.8333579 100.1926712  70.4169452  27.4437630 100.6204537  70.8387351
  35.6220271  99.0716647  74.6913181  35.6038746  99.8925528  74.1993450
  36.5440191  98.9470722  74.9163322  32.0793325  96.5860776  75.5336689
  32.6121661  95.8249064  75.3035997  31.5507406  96.2934428  76.2760844
  35.2463020  81.6920842  71.0630331  34.9027289  82.5822484  70.9869442
  35.6141982  81.5022500  70.1999916  23.3148870  94.0154373  63.8818933
  24.1524092  94.4251381  63.6652641  23.4927138  93.0753815  63.8519127
  35.2113302  91.6829453  59.5702766  34.6959926  92.4534058  59.8091153
  34.9390611  91.0094589  60.1935827  32.7960413  86.5279154  64.6288004
  31.9402010  86.1386005  64.4493643  33.2087365  86.6071115  63.7687790
  34.3259560  84.0625497  69.0279564  33.8224356  84.0255633  68.2147369
  34.6190167  84.9718240  69.0876221  30.5702446  84.1464227  68.0345746
  31.4355443  83.9507036  67.6751635  30.6379955  83.9174579  68.9615103
  40.1847576  94.4361808  61.5055940  39.4077019  94.0972967  61.0611102
  40.8639057  94.4414431  60.8310905  34.9999606  89.5556545  61.3962547
  34.6949741  89.8702695  62.2472690  35.9530048  89.6337965  61.4389880
  33.4446037  95.7146769  63.0455501  32.9167399  94.9799528  62.7328739
  32.9433540  96.4921445  62.7995470  38.4238883  93.9095789  68.1622547
  37.7662558  94.5995051  68.2502676  39.2279283  94.2992221  68.5056534
  28.1764765  86.3766435  65.4062113  28.7508517  86.1541617  64.6735306
  28.7635747  86.4455130  66.1590714  37.2344342  92.2640162  66.2126489
  37.7476224  92.8970154  66.7148199  37.8845566  91.6641357  65.8469849
  28.5034352  88.4070896  59.4257998  27.6671664  88.7445583  59.7467273
  28.3639122  88.2719876  58.4885135  30.4787433  83.2507684  64.1337182
  29.8251845  82.9356701  63.5093797  30.4367907  82.6283424  64.8597005
  31.5898638  93.5326979  56.0490474  30.6825699  93.3016232  56.2481623
  32.0869670  92.7364598  56.2364456  34.4966716 102.2424486  58.9687160
  33.8228415 102.5456183  59.5772118  34.8832538 103.0453567  58.6192617
  33.7125173  89.7389617  68.4584830  32.7947734  89.9604564  68.3006518
  34.1285317  89.8135928  67.5996537  34.4960221  91.1381033  63.5887510
  35.2432040  91.6502430  63.2794632  34.7651810  90.8165086  64.4491904
  32.7686871  93.6339574  60.5714464  31.8598090  93.3498607  60.6686934
  32.7981955  94.0538652  59.7117771  38.0006138  97.2446163  64.3405632
  37.5468466  96.4037073  64.3970822  37.3700105  97.8807562  64.6780412
  36.9439058  88.1738149  65.5706299  36.2061815  87.6615536  65.9016542
  37.1965832  87.7338531  64.7589576  36.4439078  99.0822660  65.2755450
  36.7362052  99.6427717  64.5567816  36.9537698  99.3751221  66.0308609
  37.0450685  80.9514401  66.1648069  37.3509562  80.0911765  65.8773984
  37.7703290  81.5432022  65.9647063  23.3375041  91.3545088  64.5529667
  23.1399441  90.7614449  63.8280733  22.7821705  91.0497298  65.2705605
  31.3171765  91.2468194  66.6724260  31.3720375  90.2942031  66.5966736
  30.5062967  91.4027634  67.1565558  32.4662959  95.1748318  57.9102543
  32.0282389  94.4584176  57.4508180  33.2073400  95.4024432  57.3487634
  29.2564125  89.8645254  64.4314639  28.4431990  90.1639425  64.8379831
  29.7523119  89.4700943  65.1489121  31.4072703  99.8603011  66.3648903
  31.3648882 100.0863857  65.4357435  32.3235402  99.6266386  66.5134704
  34.8538337  90.3287079  73.2629532  35.2087724  90.5558552  74.1223998
  35.5010468  90.6605455  72.6406788  40.5836074  93.4505515  63.9678861
  40.4453972  93.6407111  63.0400051  40.2272292  94.2124897  64.4246913
  28.7478200  87.4363610  70.0475873  29.3877579  87.2952369  69.3498837
  27.9155730  87.1498123  69.6714475  40.6105453  95.5182042  68.9790133
  41.0441960  95.4257331  69.8273187  41.3237034  95.4939542  68.3410149
  29.5238504  96.7366040  66.1610866  30.3179102  96.2416360  65.9593441
  28.8130196  96.2083903  65.7978572  34.3433348  99.1184136  70.5123234
  34.3970370  99.6875072  71.2800949  33.4748129  99.2886021  70.1477271
  25.8321267  90.8809122  62.2370619  24.9018855  90.8193577  62.4540581
  25.9278739  90.3585075  61.4407260  25.7506816  87.4063935  64.8248860
  26.0113633  88.3209268  64.7158021  26.5723988  86.9388377  64.9745473
  27.2231741  88.8201692  71.9947685  27.8954795  88.6119054  71.3460334
  26.3961528  88.6223778  71.5552917  41.4721003  95.5605742  71.5123018
  41.6656893  96.4651553  71.7582293  41.3721621  95.1013161  72.3461603
  33.1257313  85.4463633  74.0113346  32.4785229  86.1453582  73.9177822
  33.8958329  85.8799777  74.3789594  36.5336111  95.7112485  77.0863899
  36.3821618  95.4823037  76.1693983  36.5240791  96.6683086  77.0995244
  33.3021448  93.2844398  72.0710165  34.2313508  93.4355557  71.8979133
  32.8812478  93.3728419  71.2158812  32.1009780  97.3095062  69.8408703
  31.9620865  96.9413847  70.7134641  31.3124376  97.8242702  69.6692661
  32.6957932 102.4104159  61.1834240  32.8709687 101.9392202  61.9979862
  32.0090720 103.0369925  61.4115500  33.6514995  96.6876665  67.2297541
  33.3164827  96.6477435  68.1255191  33.1518940  96.0221381  66.7567951
  27.6259239  92.0944295  72.7550122  27.4879037  91.3624534  73.3561661
  28.5364162  92.0053195  72.4734310  36.5874186  94.0332699  57.5034600
  35.9703357  93.3079527  57.4067653  36.1190675  94.7942059  57.1601675
  30.2541539  91.8064254  72.2433802  30.9641158  91.1657446  72.2020420
  30.2110848  92.0577149  73.1659982  38.2428318  98.7431608  75.1640381
  38.1840864  98.0590828  74.4970964  38.6447836  99.4850598  74.7121007
  28.9670473  88.7929472  74.0629441  28.4307830  88.3420211  74.7151037
  28.3787182  88.9275381  73.3199905  28.3772732  88.2518124  56.6255905
  27.5002199  88.1306924  56.2618151  28.8530485  87.4604202  56.3734793
  38.2445725  96.7071191  73.3954361  37.3572504  96.3697113  73.5180759
  38.8144276  95.9754223  73.6323126  19.8974872  93.0395283  66.7197412
  20.5845912  92.7257013  66.1318427  19.7423001  93.9436648  66.4464663
  24.7009595  87.9285480  71.1482436  24.6167783  87.3211149  70.4132846
  23.8792301  88.4194498  71.1491932  31.7746879 101.3672644  70.3615604
  31.7017050 102.1727615  70.8734908  31.3324272 101.5664610  69.5363625
  31.5636658 100.6044414  63.8718425  30.7804180 101.1466094  63.9656650
  32.2629404 101.1218394  64.2712666  34.8733308  86.4139043  66.5152631
  35.3702008  85.6609006  66.1953701  34.1020290  86.4503360  65.9495840
  42.7263066  92.1179409  68.1570922  42.7152942  93.0004124  67.7864855
  41.8580445  91.7650960  67.9625459  34.2345562 101.2659478  72.5173762
  34.9473534 101.9006943  72.4449664  33.7435591 101.3623344  71.7013764
  35.9563089  95.1710731  64.0891054  35.0219368  95.2912193  63.9195758
  36.1339758  94.2683197  63.8251064  31.4568277  88.5556426  66.2424315
  31.0866065  88.0027467  66.9305221  31.9527370  87.9514560  65.6899315
  39.3435641  91.0128050  64.6241088  39.8096093  91.8456041  64.5501391
  39.7943141  90.5473031  65.3286347  29.2857476  99.0153921  73.3379333
  29.9866935  99.6490404  73.4908727  28.8152591  99.3568653  72.5774972
  37.4111872  97.3571871  61.6227240  37.6871716  97.2428466  62.5321114
  36.5416370  96.9589356  61.5839413  37.3152303  83.3808637  68.6631990
  36.4015383  83.6112864  68.8314196  37.7445405  83.4647081  69.5146022
  37.0858762  91.5698529  71.1631884  36.4330212  91.8174436  70.5084336
  37.4639142  90.7562667  70.8294361  34.0465936 101.6058222  65.2660054
  34.2288330 100.7879878  65.7287806  34.8698922 101.8225914  64.8284944
  34.3808101 100.5326407  62.5275102  34.9095868 100.0218862  61.9145264
  34.6436321 100.2168937  63.3920635  33.1346335  92.3118340  77.6497921
  32.4586972  92.2112469  78.3200296  33.9573969  92.1557554  78.1133918
  24.8825194  98.5490276  70.2710436  25.4678631  97.8033964  70.4038340
  24.6850032  98.8594233  71.1547100  19.4742849  91.1195877  68.9914879
  19.5126948  90.5859467  69.7851997  18.9683141  90.5931082  68.3725856
  26.8533611  85.9660417  72.4877421  26.9174937  86.8275248  72.0754819
  26.7900731  85.3534419  71.7549780  26.3285883  88.0383550  76.1350456
  26.9557922  87.6560627  76.7487980  25.4713802  87.8197752  76.5006148
  36.7279992  98.4446525  77.7404191  37.2719896  99.0576483  77.2459146
  36.1466837  99.0026103  78.2571204  23.1051426  89.8459979  62.0668810
  23.4004867  88.9370657  62.0135864  22.2039462  89.8247718  61.7449813
  35.0137505 101.5667243  68.8719219  34.8888644 100.7656983  68.3630164
  35.6716596 102.0613436  68.3833189  26.6345673  87.9215975  68.0496359
  25.9132259  88.5351943  67.9103832  27.4238929  88.4573740  67.9713005
  37.0772413  99.3676263  70.4998769  36.1302749  99.2481614  70.4277096
  37.4255186  98.4798761  70.5825030  29.4371987  85.2570402  74.3237011
  29.9606388  85.5032698  75.0863320  29.2184320  86.0890437  73.9040148
  24.8339268  87.5274076  62.1908136  24.5051974  86.6471455  62.0083241
  25.1878638  87.4721745  63.0784525  34.0818847  99.1628979  66.7003121
  33.9343809  98.2345687  66.8810691  34.9072340  99.1849070  66.2160196
  27.9481091  87.8147046  62.5583613  28.2877163  88.3432967  61.8362222
  28.3953211  88.1527452  63.3342180  37.6852968  99.9857538  67.7867994
  38.6099516  99.7800399  67.6492445  37.5168272  99.7373939  68.6957335
  30.6424532  86.1984097  72.0086681  30.3021352  85.3991910  72.4107361
  29.9363538  86.4985808  71.4363514  31.2941004  83.2833409  70.4614004
  32.1167073  82.8093888  70.3392895  31.5379067  84.0623893  70.9612691
  29.9349238  86.3121668  60.7576906  30.6557601  86.6902921  60.2540623
  29.3114542  87.0310545  60.8611884  34.0780361  87.0166817  61.6935238
  34.2943975  87.8991455  61.3924066  33.5974428  86.6253030  60.9640880
  28.8179582  89.9752530  68.2705983  28.6724163  90.2892833  69.1630264
  28.3404786  90.5937430  67.7176882  30.6775965  86.9655078  68.3186872
  30.6637534  86.0696171  67.9819170  31.3948393  86.9725742  68.9525159
  32.5302096  87.3992418  70.3640000  32.2719874  88.3209489  70.3624330
  31.9987136  87.0022853  71.0540464  37.4748285 100.5043205  63.1430085
  37.6485162  99.9389628  62.3903938  37.9677176 101.3044100  62.9609575
  23.2925244  92.5157874  71.2093644  22.7478713  93.2917682  71.3413918
  24.1704594  92.8628679  71.0512766  30.0812861  85.8469458  63.5874443
  30.2028772  84.9186104  63.7865330  29.7914903  85.8608144  62.6752758
  32.9504052  83.5324369  66.7241162  32.9725748  83.5963702  65.7693142
  33.3672111  82.6928877  66.9181669  43.3287676  93.2679628  64.7620385
  43.7718822  92.5186953  64.3639508  42.4514186  93.2589765  64.3794117
  38.4623457  99.8209970  60.2426984  39.1574362 100.4416662  60.4614298
  38.8046607  98.9705321  60.5179361  24.0791266  91.6427771  74.1023801
  23.3373002  91.7910406  74.6888431  23.7584011  91.9036036  73.2390550
  40.3614880  97.2709675  61.7714314  40.8866204  97.6096948  61.0463634
  40.2737233  96.3356691  61.5877449  32.0234929 101.1843749  73.9004191
  32.3322055 100.9392896  74.7726891  32.8210411 101.3890387  73.4123061
  32.0455541 103.3381659  66.1309568  31.6060531 102.8458037  66.8242424
  32.7963658 102.7954626  65.8901643  24.5247880  99.5293199  66.1334196
  25.3505900  99.2296971  65.7532839  24.1741932  98.7600822  66.5823984
  29.4929413  98.8819668  68.2031869  28.8709422  98.2190373  67.9034097
  30.1634280  98.9080799  67.5205517  22.7256485  97.4479526  67.0923129
  21.8888393  97.0201700  66.9107130  22.6980130  97.6411969  68.0293920
  29.5653941  87.3601456  77.7964375  29.6142096  88.2363578  77.4142145
  30.1076455  86.8178849  77.2236018  40.0508786  97.9042579  77.0765512
  39.2604330  97.8866718  76.5370012  39.8142141  98.4430873  77.8314549
  40.1706661  94.7535045  74.3898241  40.2204666  94.5885053  75.3313764
  40.0620585  93.8862304  73.9996122  29.0542920  97.4323591  61.6790330
  29.2031040  98.1159055  61.0257002  29.8609364  97.4128681  62.1939785
  37.4610424  90.7365973  75.7057548  38.3620287  90.5972438  75.4141545
  37.5358398  90.9020428  76.6455725  31.7953229  88.1132828  74.5510734
  30.9256539  88.4066394  74.2793322  32.0312709  88.6973273  75.2717998
  41.6724858  97.1731987  74.6340262  41.3809667  97.5361967  75.4703723
  41.0596990  96.4598995  74.4553594  42.8720541  94.7384867  67.1542833
  43.7067432  95.1774671  67.3180393  43.0079669  94.2623520  66.3351078
  39.9212046  92.2964601  73.1020320  40.3966168  92.4892248  72.2939172
  38.9977612  92.3523787  72.8563704  26.8095553  93.4588769  62.6851399
  26.5641595  92.5551099  62.8831609  26.9791468  93.4605919  61.7430877
  34.4992263  84.3312445  72.0676154  35.0174207  85.0673472  71.7422643
  34.1447396  84.6376438  72.9022913  26.0791201  89.1917126  60.1837560
  25.3860446  89.2661481  59.5277596  25.8342953  88.4277470  60.7059077
  34.7504857  80.7512727  67.5877051  35.0306611  80.0835917  68.2137477
  35.5355464  80.9441823  67.0751715  32.5538326  99.9271721  59.1502077
  31.9812293 100.5461909  58.6972549  33.1271119 100.4771083  59.6841999
  38.6213715  89.1730361  71.3348626  39.5731138  89.2728459  71.3560850
  38.4517166  88.3808630  71.8446710  36.6428095  86.2585945  71.5208027
  36.0478027  86.5390957  70.8254516  36.3577792  86.7479846  72.2924768
  35.7735585 100.2108872  60.2810659  36.7066259 100.1454433  60.4843535
  35.6858798 101.0465138  59.8225192  38.4023602  99.5274742  57.2414607
  38.3237234  99.1934605  58.1350365  39.2233269 100.0196510  57.2406079
  41.1001793  92.3936481  70.4490926  41.0678113  91.4552482  70.6350609
  41.7102417  92.4720518  69.7156751  32.9385124  91.2632534  56.4918130
  33.8844229  91.1338742  56.5606548  32.5599369  90.5247196  56.9687558
  41.2496282  89.1847525  70.4949209  40.7335330  88.4005981  70.3079138
  42.1336230  88.8566241  70.6595728  38.9107009  82.9288540  66.4545021
  38.7131830  82.6203628  67.3388353  39.5206714  83.6550179  66.5842951
  46.9178343  93.4552488  69.5896962  47.6481732  93.1937776  70.1504666
  46.3085289  92.7181210  69.6299030  44.9993640  91.5960351  70.1871414
  44.2726804  91.4616316  69.5787905  44.5840927  91.9037179  70.9928132
  32.8223817  95.3150280  77.9518787  33.7426826  95.4928879  78.1458833
  32.7873400  94.3706326  77.7998486  31.1228041  89.1882511  56.4273015
  30.2159497  88.8915623  56.5035728  31.4004022  88.8912329  55.5607301
  22.0405982  90.5088874  66.8772061  21.7208766  89.6554182  66.5846435
  21.4939410  90.7237452  67.6330029  25.8185889  93.2251315  70.5941568
  26.0371899  94.1568423  70.6129602  26.2311663  92.8659289  71.3796372
  32.7390107  83.7319400  62.5817256  31.9290835  83.3866485  62.9572502
  33.4274524  83.4226944  63.1704868  34.6680655  82.8097447  64.2041553
  35.2211694  83.2292900  64.8631576  34.9050742  81.8833195  64.2464509
  30.6913755  88.7984521  79.9844317  30.5910481  89.7478878  79.9156408
  30.4735297  88.4702760  79.1120387  29.8926826  86.0469446  56.5684994
  30.7545990  86.3724344  56.8280811  30.0777170  85.2600942  56.0558060
  21.9094242  94.1291785  68.8465183  21.2157713  93.7145738  68.3335137
  22.6567233  94.1712322  68.2498602  38.0459462  84.9197972  63.7120217
  37.4658131  85.5782776  63.3298269  37.7795395  84.0975317  63.3007635
  36.4963029  84.3203030  65.9141537  36.9962807  84.4319564  65.1055856
  37.1398637  84.0164083  66.5542346  30.5545025  92.2281660  78.8009378
  30.0712106  93.0282020  79.0073267  30.6405964  92.2389604  77.8476822
  23.8230984  94.0610039  66.7231198  23.8001672  94.1597726  65.7713081
  24.1331621  94.9075190  67.0448364  26.4818362  96.1186194  70.8377812
  27.4361616  96.0870137  70.7707744  26.2830886  95.6576818  71.6528038
  27.0717744  94.6887310  73.4048610  27.8910633  95.1831389  73.4283447
  27.3454552  93.7719278  73.3766177  36.8284340  87.0798063  62.7676565
  35.9410195  87.3647713  62.5496760  37.2438329  86.9191826  61.9203842
  40.1798877  87.1044584  66.4830905  40.9559267  87.5941036  66.7555521
  39.4547011  87.5302638  66.9402774  42.6171435  87.8172203  67.5404845
  43.2115926  87.5767939  66.8298153  42.6898019  87.0979333  68.1678382
  35.9727554  96.8442737  56.8624585  36.6763404  97.0492740  57.4782241
  35.2490203  97.4119499  57.1273669  36.8025364  92.5952599  62.9826856
  36.7460566  93.0521150  62.1434488  37.3553707  91.8343283  62.8049698
  40.6130170  88.3842330  63.8076975  40.3567104  87.9838966  64.6385183
  39.9883038  89.0986124  63.6827114  44.9242508  91.1238404  66.3148266
  44.3642066  91.1931593  67.0879828  44.3186011  90.9479388  65.5947763
  37.8814251  97.2825266  58.9123045  38.7159855  96.8506465  58.7300520
  37.7198594  97.1107280  59.8399940  37.5360143  93.7857380  60.2779385
  37.4808947  93.6201651  59.3367829  36.9106199  94.4933413  60.4341574
  22.3252658  89.0225444  74.1040807  22.9711522  88.5124398  74.5928032
  22.1169810  89.7594126  74.6784232  34.8506051  96.0906292  79.6032947
  35.7197210  96.2646944  79.2419582  34.3712802  96.9100708  79.4808677
  30.8456269  83.2865489  59.8564703  30.8334939  84.2307329  60.0132974
  31.7379691  83.1035634  59.5624164  30.7745833 101.9634379  67.9432460
  29.8241464 101.9636241  67.8296832  31.0778319 101.2167114  67.4268494
  34.6608388  79.8808265  64.1110640  33.8940784  79.3266752  64.2567322
  35.0719093  79.9530134  64.9724792  26.6650149  86.1693061  78.2015821
  27.5281611  85.8129866  78.4119146  26.0915560  85.8306956  78.8891225
  41.0196512 106.5210593  58.2756687  41.2722033 105.9992114  57.5140150
  40.0821071 106.3576739  58.3783371  46.0639795 105.5246371  66.0831430
  46.8502884 105.1065795  65.7321847  46.3278499 106.4292464  66.2513079
  51.4648222 105.4621605  66.9864409  52.1973394 104.8920821  67.2202238
  50.7087578 105.0743205  67.4270914  48.9873642  99.1743179  71.4459017
  48.6556967 100.0438590  71.2220232  48.3919256  98.8579463  72.1253048
  42.7229829 102.9138746  59.1789100  42.8904231 103.7818982  59.5459571
  42.5326998 103.0766028  58.2550389  48.8802306 103.8938265  68.5252367
  47.9719183 103.8253673  68.2311128  48.8289901 104.3710210  69.3534193
  42.7019050 105.3696403  60.1635766  42.5818675 105.8153454  61.0021247
  42.0071638 105.7181721  59.6049305  42.9543171 105.3127910  76.4687265
  42.1776505 105.8721831  76.4590129  43.5933734 105.7984693  76.9902135
  50.7463952 102.0954703  70.3030241  50.1038332 102.3887236  69.6570036
  50.2418881 101.9807624  71.1083438  48.4004116 105.8417876  60.9916101
  49.3121972 106.0745263  60.8163798  47.8913763 106.4254921  60.4291179
  43.0375953 105.2015111  72.0010950  43.8837149 105.6254525  72.1445599
  42.9774591 104.5448735  72.6949513  46.1875399 102.8619479  73.6592124
  45.9436331 103.6161540  73.1226399  46.4635329 103.2404827  74.4939371
  45.7440090 102.0175912  69.2405961  44.8824570 102.3157166  69.5322699
  45.7702525 102.2346311  68.3086994  41.4970546 106.6841255  62.4569332
  42.1994589 107.1362299  62.9243259  41.1651174 106.0425074  63.0849225
  39.9450907 105.2753012  76.8320542  39.3149568 105.9569293  77.0655938
  39.8386995 105.1636094  75.8873680  57.3465683 108.6268796  66.8576718
  56.5929391 108.0576194  66.7020723  57.4813224 108.5931460  67.8047353
  39.2231650  99.5773778  79.1945793  38.8298596  99.0239976  79.8693437
  40.0397791  99.8884356  79.5852310  42.1399611 100.9931657  76.7866049
  42.8809325 101.5938810  76.7070512  42.3717534 100.2509295  76.2284092
  46.0856774  97.0212760  71.0630331  45.7421044  97.9114402  70.9869442
  46.4535737  96.8314418  70.1999916  46.0507057 107.0121371  59.5702766
  45.5353680 107.7825976  59.8091153  45.7784365 106.3386507  60.1935827
  43.6354168 101.8571072  64.6288004  42.7795764 101.4677922  64.4493643
  44.0481120 101.9363033  63.7687790  45.1653315  99.3917415  69.0279564
  44.6618110  99.3547550  68.2147369  45.4583921 100.3010158  69.0876221
  41.4096200  99.4756145  68.0345746  42.2749197  99.2798953  67.6751635
  41.4773709  99.2466497  68.9615103  51.0241331 109.7653726  61.5055940
  50.2470774 109.4264885  61.0611102  51.7032812 109.7706349  60.8310905
  45.8393360 104.8848463  61.3962547  45.5343496 105.1994612  62.2472690
  46.7923802 104.9629883  61.4389880  39.0158519 101.7058353  65.4062113
  39.5902271 101.4833534  64.6735306  39.6029502 101.7747047  66.1590714
  48.0738097 107.5932080  66.2126489  48.5869978 108.2262071  66.7148199
  48.7239321 106.9933275  65.8469849  39.3428107 103.7362814  59.4257998
  38.5065419 104.0737500  59.7467273  39.2032876 103.6011794  58.4885135
  41.3181187  98.5799602  64.1337182  40.6645600  98.2648619  63.5093797
  41.2761661  97.9575342  64.8597005  44.5518928 105.0681535  68.4584830
  43.6341489 105.2896482  68.3006518  44.9679071 105.1427846  67.5996537
  45.3353975 106.4672951  63.5887510  46.0825794 106.9794348  63.2794632
  45.6045565 106.1457004  64.4491904  47.7832812 103.5030067  65.5706299
  47.0455569 102.9907453  65.9016542  48.0359586 103.0630449  64.7589576
  47.8844440  96.2806319  66.1648069  48.1903317  95.4203683  65.8773984
  48.6097045  96.8723939  65.9647063  42.1565520 106.5760112  66.6724260
  42.2114129 105.6233949  66.5966736  41.3456722 106.7319551  67.1565558
  40.0957879 105.1937172  64.4314639  39.2825745 105.4931342  64.8379831
  40.5916874 104.7992861  65.1489121  45.6932091 105.6578996  73.2629532
  46.0481479 105.8850470  74.1223998  46.3404222 105.9897373  72.6406788
  51.4229828 108.7797432  63.9678861  51.2847727 108.9699028  63.0400051
  51.0666047 109.5416815  64.4246913  39.5871954 102.7655527  70.0475873
  40.2271334 102.6244287  69.3498837  38.7549485 102.4790041  69.6714475
  36.5900571 102.7355852  64.8248860  36.8507388 103.6501186  64.7158021
  37.4117743 102.2680295  64.9745473  38.0625496 104.1493610  71.9947685
  38.7348549 103.9410972  71.3460334  37.2355282 103.9515696  71.5552917
  43.9651068 100.7755551  74.0113346  43.3178983 101.4745500  73.9177822
  44.7352083 101.2091694  74.3789594  39.8064228 104.1221390  74.0629441
  39.2701585 103.6712128  74.7151037  39.2180936 104.2567299  73.3199905
  39.2166487 103.5810041  56.6255905  38.3395953 103.4598842  56.2618151
  39.6924240 102.7896119  56.3734793  35.5403349 103.2577397  71.1482436
  35.4561538 102.6503067  70.4132846  34.7186055 103.7486416  71.1491932
  45.7127063 101.7430961  66.5152631  46.2095762 100.9900923  66.1953701
  44.9414044 101.7795278  65.9495840  53.5656820 107.4471327  68.1570922
  53.5546697 108.3296042  67.7864855  52.6974200 107.0942877  67.9625459
  42.2962032 103.8848344  66.2424315  41.9259819 103.3319384  66.9305221
  42.7921124 103.2806477  65.6899315  50.1829395 106.3419967  64.6241088
  50.6489847 107.1747959  64.5501391  50.6336895 105.8764949  65.3286347
  48.1546058  98.7100554  68.6631990  47.2409138  98.9404781  68.8314196
  48.5839159  98.7938999  69.5146022  47.9252516 106.8990446  71.1631884
  47.2723966 107.1466354  70.5084336  48.3032896 106.0854585  70.8294361
  43.9740089 107.6410258  77.6497921  43.2980726 107.5404387  78.3200296
  44.7967723 107.4849471  78.1133918  37.6927365 101.2952335  72.4877421
  37.7568692 102.1567166  72.0754819  37.6294486 100.6826336  71.7549780
  37.1679638 103.3675467  76.1350456  37.7951677 102.9852545  76.7487980
  36.3107557 103.1489669  76.5006148  37.4739428 103.2507893  68.0496359
  36.7526013 103.8643861  67.9103832  38.2632683 103.7865658  67.9713005
  40.2765741 100.5862319  74.3237011  40.8000143 100.8324616  75.0863320
  40.0578074 101.4182354  73.9040148  35.6733022 102.8565994  62.1908136
  35.3445728 101.9763373  62.0083241  36.0272393 102.8013663  63.0784525
  38.7874845 103.1438964  62.5583613  39.1270918 103.6724885  61.8362222
  39.2346966 103.4819370  63.3342180  41.4818286 101.5276015  72.0086681
  41.1415107 100.7283828  72.4107361  40.7757292 101.8277725  71.4363514
  42.1334758  98.6125327  70.4614004  42.9560827  98.1385805  70.3392895
  42.3772822  99.3915811  70.9612691  40.7742993 101.6413585  60.7576906
  41.4951355 102.0194838  60.2540623  40.1508297 102.3602462  60.8611884
  44.9174115 102.3458734  61.6935238  45.1337730 103.2283372  61.3924066
  44.4368183 101.9544948  60.9640880  39.6573337 105.3044448  68.2705983
  39.5117918 105.6184751  69.1630264  39.1798540 105.9229348  67.7176882
  41.5169720 102.2946996  68.3186872  41.5031288 101.3988089  67.9819170
  42.2342148 102.3017659  68.9525159  43.3695850 102.7284336  70.3640000
  43.1113628 103.6501406  70.3624330  42.8380891 102.3314770  71.0540464
  40.9206616 101.1761376  63.5874443  41.0422527 100.2478022  63.7865330
  40.6308658 101.1900062  62.6752758  43.7897806  98.8616286  66.7241162
  43.8119503  98.9255619  65.7693142  44.2065865  98.0220795  66.9181669
  54.1681430 108.5971546  64.7620385  54.6112576 107.8478871  64.3639508
  53.2907941 108.5881682  64.3794117  40.4047695 102.6893373  77.7964375
  40.4535851 103.5655496  77.4142145  40.9470209 102.1470766  77.2236018
  51.0100416 110.0826963  74.3898241  51.0598421 109.9176970  75.3313764
  50.9014339 109.2154222  73.9996122  48.3004178 106.0657891  75.7057548
  49.2014041 105.9264356  75.4141545  48.3752153 106.2312346  76.6455725
  42.6346984 103.4424746  74.5510734  41.7650293 103.7358312  74.2793322
  42.8706464 104.0265191  75.2717998  53.7114295 110.0676784  67.1542833
  54.5461186 110.5066588  67.3180393  53.8473424 109.5915437  66.3351078
  50.7605801 107.6256519  73.1020320  51.2359923 107.8184165  72.2939172
  49.8371366 107.6815705  72.8563704  45.3386017  99.6604363  72.0676154
  45.8567961 100.3965390  71.7422643  44.9841150  99.9668356  72.9022913
  36.9184955 104.5209044  60.1837560  36.2254200 104.5953399  59.5277596
  36.6736707 103.7569387  60.7059077  45.5898612  96.0804645  67.5877051
  45.8700365  95.4127834  68.2137477  46.3749219  96.2733741  67.0751715
  49.4607470 104.5022279  71.3348626  50.4124893 104.6020377  71.3560850
  49.2910920 103.7100548  71.8446710  47.4821849 101.5877862  71.5208027
  46.8871782 101.8682875  70.8254516  47.1971546 102.0771763  72.2924768
  51.9395548 107.7228399  70.4490926  51.9071868 106.7844400  70.6350609
  52.5496171 107.8012436  69.7156751  43.7778879 106.5924452  56.4918130
  44.7237983 106.4630660  56.5606548  43.3993124 105.8539114  56.9687558
  52.0890036 104.5139442  70.4949209  51.5729085 103.7297899  70.3079138
  52.9729985 104.1858159  70.6595728  49.7500763  98.2580458  66.4545021
  49.5525584  97.9495546  67.3388353  50.3600469  98.9842097  66.5842951
  57.7572098 108.7844406  69.5896962  58.4875486 108.5229694  70.1504666
  57.1479043 108.0473128  69.6299030  55.8387395 106.9252268  70.1871414
  55.1120558 106.7908233  69.5787905  55.4234682 107.2329097  70.9928132
  41.9621796 104.5174428  56.4273015  41.0553251 104.2207541  56.5035728
  42.2397777 104.2204246  55.5607301  43.5783861  99.0611318  62.5817256
  42.7684590  98.7158403  62.9572502  44.2668278  98.7518862  63.1704868
  45.5074410  98.1389365  64.2041553  46.0605448  98.5584818  64.8631576
  45.7444496  97.2125113  64.2464509  41.5307509 104.1276438  79.9844317
  41.4304236 105.0770795  79.9156408  41.3129051 103.7994677  79.1120387
  40.7320580 101.3761363  56.5684994  41.5939744 101.7016262  56.8280811
  40.9170925 100.5892859  56.0558060  48.8853217 100.2489890  63.7120217
  48.3051886 100.9074694  63.3298269  48.6189150  99.4267234  63.3007635
  47.3356783  99.6494948  65.9141537  47.8356562  99.7611482  65.1055856
  47.9792391  99.3456000  66.5542346  47.6678095 102.4089980  62.7676565
  46.7803950 102.6939631  62.5496760  48.0832084 102.2483744  61.9203842
  51.0192631 102.4336501  66.4830905  51.7953021 102.9232954  66.7555521
  50.2940765 102.8594555  66.9402774  53.4565190 103.1464120  67.5404845
  54.0509680 102.9059856  66.8298153  53.5291773 102.4271251  68.1678382
  47.6419119 107.9244516  62.9826856  47.5854320 108.3813068  62.1434488
  48.1947461 107.1635201  62.8049698  51.4523925 103.7134248  63.8076975
  51.1960859 103.3130884  64.6385183  50.8276793 104.4278042  63.6827114
  55.7636262 106.4530321  66.3148266  55.2035820 106.5223511  67.0879828
  55.1579766 106.2771306  65.5947763  41.6850023  98.6157406  59.8564703
  41.6728693  99.5599246  60.0132974  42.5773445  98.4327552  59.5624164
  45.5002143  95.2100183  64.1110640  44.7334539  94.6558670  64.2567322
  45.9112848  95.2822052  64.9724792  37.5043904 101.4984979  78.2015821
  38.3675365 101.1421784  78.4119146  36.9309315 101.1598874  78.8891225
  58.7238194 111.6098237  66.1648069  59.0297071 110.7495600  65.8773984
  59.4490799 112.2015857  65.9647063  56.4292366 111.4096563  67.5877051
  56.7094120 110.7419752  68.2137477  57.2142973 111.6025658  67.0751715
  56.3395897 110.5392101  64.1110640  55.5728293 109.9850587  64.2567322
  56.7506602 110.6113970  64.9724792   3.1523510  23.4889369  55.7323529
   3.7901920  23.3696117  55.0286869   3.0344353  24.4370213  55.7911481
   1.3999590  28.9623242  46.9696409   0.7487570  29.5477322  46.5830423
   2.1943953  29.4929437  47.0291447   2.7064778  21.2140823  52.8076737
   3.4927867  20.7960246  52.4567154   2.9703482  22.1186915  52.9758385
   2.8774855  26.6513674  47.5065394   2.2420688  26.7248300  48.2186298
   2.5472262  27.2407272  46.8284473   8.1073205  21.1516057  53.7109715
   8.8398377  20.5815273  53.9447545   7.3512561  20.7637657  54.1516221
   5.6298626  14.8637631  58.1704324   5.2981950  15.7333042  57.9465539
   5.0344239  14.5473915  58.8498354   2.1230145  27.0650177  57.5700237
   1.8230868  27.9675215  57.4616044   1.7781205  26.7982360  58.4221390
   5.5227289  19.5832717  55.2497674   4.6144166  19.5148125  54.9556435
   5.4714885  20.0604662  56.0779499   7.3888935  17.7849155  57.0275548
   6.7463316  18.0781688  56.3815342   6.8843864  17.6702076  57.8328745
   5.0429099  21.5312328  47.7161407   5.9546955  21.7639715  47.5409105
   4.5338746  22.1149373  47.1536486   3.3269867  25.9536956  61.3522700
   3.7353223  25.5119367  60.6077332   2.6047128  25.3789584  61.6056893
   3.6498681  26.5138147  55.1074989   3.0207544  26.6783861  54.4051056
   3.2624343  26.9279756  55.8785953   7.5287913  27.4492585  52.4619352
   6.8438951  27.8291486  51.9116386   7.6131763  28.0587911  53.1951300
   2.8300382  18.5513931  60.3837430   2.5861314  19.3055992  59.8471706
   3.1060313  18.9299279  61.2184677   4.7838845  25.0952544  59.0614696
   4.9955740  25.7384304  58.3849077   4.7368593  24.2614860  58.5936626
   2.3865074  17.7070364  55.9651268   1.5249553  18.0051618  56.2568006
   2.4127508  17.9240763  55.0332301   5.8984673  27.9724499  57.2337053
   6.7202116  27.5704686  56.9519735   5.8947076  27.8692733  58.1853169
  13.9890666  24.3163248  53.5822025  13.2354374  23.7470646  53.4266029
  14.1238207  24.2825912  54.5292659   1.0057770  29.8100216  63.3877086
   0.5621624  29.0236595  63.0697991   1.6674984  29.9979367  62.7220977
   3.1039008  30.0903016  61.4158487   3.0857484  30.9111897  60.9238757
   4.0258928  29.9657092  61.6408629   2.6932040  22.7015823  46.2948073
   2.1778664  23.4720428  46.5336460   2.4209349  22.0280959  46.9181134
   7.6666314  25.4548178  48.2301246   6.8895757  25.1159337  47.7856408
   8.3457795  25.4600801  47.5556211   2.4818343  20.5742915  48.1207854
   2.1768479  20.8889064  48.9717997   3.4348785  20.6524335  48.1635187
   5.9057621  24.9282159  54.8867854   5.2481296  25.6181420  54.9747983
   6.7098020  25.3178591  55.2301840   4.7163080  23.2826531  52.9371796
   5.2294962  23.9156523  53.4393506   5.3664304  22.6827727  52.5715156
   1.9785454  33.2610856  45.6932467   1.3047153  33.5642553  46.3017425
   2.3651276  34.0639936  45.3437924   1.9778959  22.1567403  50.3132817
   2.7250778  22.6688800  50.0039939   2.2470548  21.8351455  51.1737210
   5.4824876  28.2632533  51.0650939   5.0287203  27.4223443  51.1216129
   4.8518843  28.8993931  51.4025719   4.4257796  19.1924519  52.2951606
   3.6880553  18.6801905  52.6261849   4.6784569  18.7524901  51.4834883
   3.9257815  30.1009030  52.0000757   4.2180790  30.6614087  51.2813122
   4.4356436  30.3937591  52.7553916   2.3357074  21.3473448  59.9874839
   2.6906462  21.5744921  60.8469305   2.9829206  21.6791825  59.3652094
   8.0654811  24.4691884  50.6924168   7.9272710  24.6593480  49.7645357
   7.7091030  25.2311267  51.1492219   8.0924191  26.5368411  55.7035440
   8.5260698  26.4443700  56.5518494   8.8055772  26.5125912  55.0655456
   1.8252086  30.1370505  57.2368540   1.8789108  30.7061442  58.0046256
   0.9566867  30.3072390  56.8722577   8.9539741  26.5792112  58.2368325
   9.1475631  27.4837922  58.4827600   8.8540359  26.1199531  59.0706910
   4.0154849  26.7298855  63.8109206   3.8640356  26.5009406  62.8939289
   4.0059529  27.6869456  63.8240551   1.1333733  27.7063034  53.9542847
   0.7983565  27.6663804  54.8500497   0.6337678  27.0407750  53.4813258
   4.0692924  25.0519069  44.2279907   3.4522095  24.3265897  44.1312960
   3.6009413  25.8128429  43.8846981   5.7247056  29.7617977  61.8885687
   5.6659602  29.0777197  61.2216270   6.1266574  30.5036967  61.4366313
   5.7264463  27.7257561  60.1199667   4.8391242  27.3883483  60.2426066
   6.2963014  26.9940592  60.3568433   2.3552046  17.4325413  53.2397937
   2.8520746  16.6795375  52.9199008   1.5839028  17.4689730  52.6741147
  10.2081804  23.1365778  54.8816229  10.1971680  24.0190494  54.5110162
   9.3399183  22.7837329  54.6870766   1.7164300  32.2845847  59.2419069
   2.4292272  32.9193312  59.1694970   1.2254329  32.3809713  58.4259071
   3.4381827  26.1897100  50.8136361   2.5038106  26.3098563  50.6441065
   3.6158495  25.2869567  50.5496371   6.8254378  22.0314419  51.3486395
   7.2914831  22.8642411  51.2746697   7.2761879  21.5659401  52.0531653
   4.8930609  28.3758241  48.3472547   5.1690453  28.2614835  49.2566421
   4.0235108  27.9775726  48.3084720   4.7971041  14.3995006  55.3877296
   3.8834121  14.6299233  55.5559503   5.2264143  14.4833450  56.2391329
   4.5677500  22.5884898  57.8877190   3.9148950  22.8360806  57.2329643
   4.9457879  21.7749037  57.5539667   1.5284673  32.6244592  51.9905360
   1.7107068  31.8066247  52.4533113   2.3517659  32.8412284  51.5530250
   1.8626839  31.5512777  49.2520409   2.3914605  31.0405231  48.6390571
   2.1255059  31.2355307  50.1165942   4.2098730  29.4632894  64.4649498
   4.7538634  30.0762853  63.9704452   3.6285575  30.0212473  64.9816511
   2.4956243  32.5853612  55.5964525   2.3707382  31.7843352  55.0875471
   3.1535334  33.0799806  55.1078495   4.5591151  30.3862632  57.2244076
   3.6121487  30.2667984  57.1522402   4.9073924  29.4985131  57.3070337
   1.5637584  30.1815349  53.4248428   1.4162547  29.2532056  53.6055998
   2.3891078  30.2035439  52.9405503   5.1671706  31.0043907  54.5113300
   6.0918254  30.7986769  54.3737752   4.9987010  30.7560309  55.4202642
   1.5599099  18.0353186  48.4180545   1.7762713  18.9177824  48.1169373
   1.0793166  17.6439400  47.6886187   4.9567022  31.5229575  49.8675392
   5.1303900  30.9575997  49.1149244   5.4495914  32.3230470  49.6854882
  10.8106414  24.2865998  51.4865692  11.2537560  23.5373323  51.0884815
   9.9332924  24.2776134  51.1039424   5.9442195  30.8396339  46.9672290
   6.6393100  31.4603032  47.1859605   6.2865345  29.9891690  47.2424668
   7.8433618  28.2896045  48.4959621   8.3684942  28.6283318  47.7708941
   7.7555971  27.3543060  48.3122756   7.5327524  28.9228948  63.8010819
   6.7423068  28.9053087  63.2615318   7.2960879  29.4617242  64.5559856
   7.6525399  25.7721415  61.1143547   7.7023404  25.6071422  62.0559070
   7.5439323  24.9048674  60.7241428   4.9429162  21.7552343  62.4302854
   5.8439024  21.6158808  62.1386852   5.0177136  21.9206798  63.3701032
   9.1543596  28.1918356  61.3585569   8.8628404  28.5548337  62.1949030
   8.5415727  27.4785365  61.1798901  10.3539278  25.7571236  53.8788139
  11.1886170  26.1961040  54.0425700  10.4898407  25.2809889  53.0596385
   7.4030784  23.3150971  59.8265627   7.8784906  23.5078617  59.0184478
   6.4796350  23.3710157  59.5809011   1.9811001  15.3498815  58.7921461
   2.4992945  16.0859841  58.4667949   1.6266134  15.6562808  59.6268220
   6.1032453  20.1916731  58.0593933   7.0549876  20.2914829  58.0806157
   5.9335904  19.3995000  58.5692017   4.1246833  17.2772314  58.2453334
   3.5296765  17.5577327  57.5499822   3.8396529  17.7666215  59.0170075
   3.2554323  31.2295241  47.0055966   4.1884996  31.1640803  47.2088842
   3.1677536  32.0651508  46.5470499   5.8842340  30.5461111  43.9659914
   5.8055971  30.2120975  44.8595672   6.7052007  31.0382879  43.9651386
   8.5820531  23.4122851  57.1736232   8.5496851  22.4738851  57.3595916
   9.1921155  23.4906887  56.4402057   8.7315020  20.2033894  57.2194515
   8.2154068  19.4192351  57.0324444   9.6154968  19.8752611  57.3841035
   6.3925746  13.9474910  53.1790328   6.1950568  13.6389998  54.0633660
   7.0025452  14.6736549  53.3088258  14.3997081  24.4738858  56.3142269
  15.1300469  24.2124146  56.8749972  13.7904026  23.7367580  56.3544337
  12.4812378  22.6146720  56.9116720  11.7545542  22.4802685  56.3033212
  12.0659665  22.9223549  57.7173438   5.5278200  15.9384342  50.4365524
   4.9476869  16.5969146  50.0543576   5.2614133  15.1161686  50.0252941
   3.9781767  15.3389399  52.6386844   4.4781545  15.4505934  51.8301163
   4.6217374  15.0350452  53.2787653   4.3103078  18.0984432  49.4921872
   3.4228933  18.3834083  49.2742067   4.7257067  17.9378196  48.6449149
   7.6617614  18.1230953  53.2076211   8.4378004  18.6127406  53.4800828
   6.9365748  18.5489007  53.6648081  10.0990173  18.8358572  54.2650152
  10.6934664  18.5954308  53.5543460  10.1716757  18.1165703  54.8923688
   3.4546292  27.8629107  43.5869892   4.1582142  28.0679109  44.2027548
   2.7308940  28.4305869  43.8518976   4.2844102  23.6138968  49.7072162
   4.2279303  24.0707520  48.8679795   4.8372444  22.8529653  49.5295005
   8.0948908  19.4028700  50.5322282   7.8385842  19.0025336  51.3630489
   7.4701776  20.1172494  50.4072421  12.4061246  22.1424773  53.0393573
  11.8460804  22.2117963  53.8125135  11.8004749  21.9665758  52.3193069
   5.3632989  28.3011636  45.6368352   6.1978593  27.8692835  45.4545827
   5.2017332  28.1293650  46.5645247   5.0178881  24.8043749  47.0024691
   4.9627685  24.6388021  46.0613135   4.3924936  25.5119782  47.1586881
   2.3324788  27.1092661  66.3278254   3.2015948  27.2833313  65.9664889
   1.8531540  27.9287078  66.2053983  13.9917264  38.8181287  55.7323529
  14.6295674  38.6988034  55.0286869  13.8738107  39.7662131  55.7911481
  10.8006970  38.7708715  55.6685053  10.4625482  38.6549780  54.7805588
  11.6696739  38.3699880  55.6486060   6.6593786  40.6244192  51.6581944
   6.0958651  40.5334129  50.8898232   6.5446181  39.8044096  52.1384437
  11.2826753  39.9243567  61.6271259  11.2715394  39.5296365  60.7551763
  11.4447393  39.1909640  62.2205030   4.2058218  42.1195383  54.4966165
   4.9979510  41.7786208  54.0812464   4.4454868  42.2290358  55.4168318
  12.2393345  44.2915159  46.9696409  11.5881325  44.8769240  46.5830423
  13.0337708  44.8221354  47.0291447   6.1648972  41.3804297  47.3683544
   6.9379848  40.8333284  47.2296419   6.5174371  42.2448546  47.5798005
   8.0034015  42.7080679  60.5750443   7.7123881  43.6126310  60.4597109
   8.6390999  42.7497206  61.2894513   8.9290221  40.0857527  57.1651803
   9.5253794  39.8613550  56.4508766   8.9865193  39.3442273  57.7677250
   8.5015250  37.5396963  45.0001994   8.7540770  37.0178484  44.2385457
   7.5639809  37.3763108  45.1028677  13.5458533  36.5432741  52.8076737
  14.3321622  36.1252164  52.4567154  13.8097237  37.4478833  52.9758385
  13.7168610  41.9805591  47.5065394  13.0814443  42.0540218  48.2186298
  13.3866016  42.5699190  46.8284473  18.9466960  36.4807974  53.7109715
  19.6792132  35.9107191  53.9447545  18.1906315  36.0929575  54.1516221
   8.2211539  39.4425069  47.2026369   8.1047797  38.7669972  47.8707453
   8.3313798  38.9557443  46.3858522  10.5643079  38.9035216  50.9073058
  10.2001287  38.3765837  51.6185979  11.4210195  38.5133685  50.7339543
  16.4692380  30.1929548  58.1704324  16.1375705  31.0624959  57.9465539
  15.8737993  29.8765832  58.8498354  10.2048566  33.9325115  45.9034406
  10.3722969  34.8005352  46.2704877  10.0145736  34.0952397  44.9795696
  12.9623900  42.3942094  57.5700237  12.6624623  43.2967133  57.4616044
  12.6174959  42.1274278  58.4221390   6.4136381  38.8455891  53.6036941
   5.4886878  38.7132105  53.8114633   6.6620794  39.6250110  54.1006883
  16.3621043  34.9124634  55.2497674  15.4537921  34.8440043  54.9556435
  16.3108639  35.3896579  56.0779499  10.1837787  36.3882773  46.8881073
  10.0637413  36.8339824  47.7266553   9.4890376  36.7368091  46.3294611
   3.7745192  38.4889165  54.4380730   3.9037573  38.7423644  55.3520142
   3.0942643  39.0816873  54.1185385   7.9444679  49.1586415  50.5371204
   7.8668709  50.1094240  50.6159685   7.3406323  48.8132287  51.1946131
  10.4361909  36.3314280  63.1932571   9.6595243  36.8908200  63.1835436
  11.0752472  36.8171063  63.7147441  18.2282690  33.1141073  57.0275548
  17.5857070  33.4073606  56.3815342  17.7237618  32.9993993  57.8328745
  15.8822853  36.8604246  47.7161407  16.7940710  37.0931633  47.5409105
  15.3732501  37.4441290  47.1536486   8.6908282  39.1399733  62.7550538
   9.4322966  39.6784777  62.4785362   7.9845267  39.7666022  62.9122090
  14.1663621  41.2828874  61.3522700  14.5746977  40.8411284  60.6077332
  13.4440883  40.7081501  61.6056893  10.5194691  36.2201481  58.7256257
  11.3655886  36.6440894  58.8690906  10.4593329  35.5635105  59.4194820
  14.4892436  41.8430065  55.1074989  13.8601298  42.0075779  54.4051056
  14.1018098  42.2571674  55.8785953  18.3681668  42.7784502  52.4619352
  17.6832706  43.1583404  51.9116386  18.4525517  43.3879829  53.1951300
  13.6694137  33.8805849  60.3837430  13.4255068  34.6347910  59.8471706
  13.9454067  34.2591197  61.2184677  15.6232599  40.4244461  59.0614696
  15.8349495  41.0676221  58.3849077  15.5762348  39.5906778  58.5936626
  13.2258828  33.0362282  55.9651268  12.3643307  33.3343536  56.2568006
  13.2521263  33.2532681  55.0332301  10.0420398  41.5804473  52.3725074
  10.5058743  41.8592176  51.5829696   9.7777196  40.6787917  52.1898164
   6.9344479  41.1275954  55.3104837   7.5045836  41.5563223  54.6722321
   7.5252591  40.8458539  56.0089023   8.9789284  37.7027625  49.1814639
   9.6813327  38.1548669  49.6488565   8.6469912  37.0611444  49.8094532
   7.4269645  36.2939382  63.5565848   6.7968306  36.9755662  63.7901245
   7.3205733  36.1822463  62.6118987   2.7214618  35.9611178  54.4831772
   1.9313672  36.2168706  54.0071883   3.2125865  36.7759515  54.5883813
  16.7378427  43.3016417  57.2337053  17.5595871  42.8996604  56.9519735
  16.7340830  43.1984651  58.1853169   4.6729363  36.3255757  51.4415249
   3.8760526  36.4374451  51.9598745   4.4454955  36.6642409  50.5756140
  10.5035031  42.8500460  59.3897764  10.5679463  43.3120867  60.2255936
   9.7945955  42.2197825  59.5180074   1.0052321  36.2141668  56.9146763
   1.2560359  37.0988678  57.1804339   1.5411869  36.0346270  56.1421855
  24.8284420  39.6455165  53.5822025  24.0748129  39.0762563  53.4266029
  24.9631962  39.6117830  54.5292659  10.2183048  44.5168568  49.2576744
  10.0828723  45.3620103  49.6861592  10.7592861  44.7187845  48.4942678
   6.7050388  30.5960147  65.9191099   6.3117334  30.0426346  66.5938744
   7.5216528  30.9070726  66.3097617   3.6712446  42.0344006  49.8304669
   4.1836966  42.8287256  49.9810234   4.3235159  41.3370296  49.7638271
   5.4807330  45.1509762  51.9127422   5.6573959  46.0727727  51.7248406
   6.2764164  44.8368181  52.3421802   9.6218349  32.0118027  63.5111356
  10.3628062  32.6125180  63.4315818   9.8536272  31.2695664  62.9529398
   4.7659687  37.1974394  61.7889586   4.6513202  36.2959651  62.0896684
   3.9104205  37.4438091  61.4374402  11.8451525  45.1392134  63.3877086
  11.4015379  44.3528513  63.0697991  12.5068738  45.3271285  62.7220977
   6.6038646  46.6687936  57.9137765   7.1546071  46.5404999  57.1414759
   5.7650122  46.9682825  57.5632657  13.9432763  45.4194934  61.4158487
  13.9251238  46.2403815  60.9238757  14.8652683  45.2949009  61.6408629
  10.4005817  42.9339064  62.2581996  10.9334154  42.1727352  62.0281304
   9.8719898  42.6412715  63.0006150  13.5675512  28.0399129  57.7875638
  13.2239781  28.9300771  57.7114748  13.9354475  27.8500787  56.9245223
   1.6361363  40.3632660  50.6064240   2.4736585  40.7729668  50.3897947
   1.8139630  39.4232102  50.5764434  13.5325795  38.0307741  46.2948073
  13.0172418  38.8012345  46.5336460  13.2603103  37.3572877  46.9181134
  11.1172906  32.8757441  51.3533311  10.2614502  32.4864292  51.1738950
  11.5299857  32.9549402  50.4933097  12.6472052  30.4103785  55.7524871
  12.1436848  30.3733920  54.9392676  12.9402659  31.3196527  55.8121527
   8.8914938  30.4942514  54.7591053   9.7567935  30.2985323  54.3996942
   8.9592447  30.2652866  55.6860409  18.5060069  40.7840095  48.2301246
  17.7289512  40.4451255  47.7856408  19.1851550  40.7892718  47.5556211
  13.3212098  35.9034833  48.1207854  13.0162233  36.2180982  48.9717997
  14.2742540  35.9816253  48.1635187  11.7658530  42.0625056  49.7700808
  11.2379891  41.3277816  49.4574045  11.2646032  42.8399732  49.5240776
  16.7451376  40.2574076  54.8867854  16.0875050  40.9473338  54.9747983
  17.5491775  40.6470508  55.2301840   6.4977257  32.7244722  52.1307419
   7.0721009  32.5019904  51.3980612   7.0848240  32.7933417  52.8836021
  15.5556834  38.6118449  52.9371796  16.0688716  39.2448441  53.4393506
  16.2058058  38.0119645  52.5715156   6.8246844  34.7549183  46.1503305
   5.9884157  35.0923870  46.4712579   6.6851614  34.6198163  45.2130442
   8.7999925  29.5985971  50.8582489   8.1464337  29.2834988  50.2339104
   8.7580399  28.9761712  51.5842312   9.9111130  39.8805266  42.7735781
   9.0038192  39.6494520  42.9726930  10.4082162  39.0842886  42.9609762
  12.8179209  48.5902773  45.6932467  12.1440907  48.8934470  46.3017425
  13.2045031  49.3931854  45.3437924  12.0337665  36.0867905  55.1830136
  11.1160227  36.3082852  55.0251824  12.4497809  36.1614215  54.3241844
  12.8172713  37.4859320  50.3132817  13.5644532  37.9980718  50.0039939
  13.0864303  37.1643373  51.1737210  11.0899363  39.9817861  47.2959771
  10.1810583  39.6976894  47.3932241  11.1194447  40.4016940  46.4363078
  16.3218631  43.5924451  51.0650939  15.8680958  42.7515361  51.1216129
  15.6912597  44.2285849  51.4025719  15.2651550  34.5216437  52.2951606
  14.5274307  34.0093823  52.6261849  15.5178324  34.0816818  51.4834883
  14.7651570  45.4300947  52.0000757  15.0574544  45.9906004  51.2813122
  15.2750191  45.7229508  52.7553916  15.3663178  27.2992689  52.8893375
  15.6722054  26.4390052  52.6019290  16.0915782  27.8910309  52.6892369
   1.6587534  37.7023375  51.2774973   1.4611933  37.1092736  50.5526040
   1.1034198  37.3975585  51.9950912   9.6384257  37.5946482  53.3969566
   9.6932867  36.6420318  53.3212043   8.8275459  37.7505921  53.8810865
  10.7875451  41.5226605  44.6347850  10.3494881  40.8062464  44.1753487
  11.5285892  41.7502720  44.0732941   7.5776617  36.2123541  51.1559945
   6.7644483  36.5117712  51.5625137   8.0735611  35.8179230  51.8734427
   9.7285195  46.2081298  53.0894210   9.6861374  46.4342145  52.1602742
  10.6447894  45.9744673  53.2380011  13.1750829  36.6765366  59.9874839
  13.5300217  36.9036839  60.8469305  13.8222960  37.0083743  59.3652094
  18.9048566  39.7983802  50.6924168  18.7666464  39.9885398  49.7645357
  18.5484785  40.5603185  51.1492219   7.0690692  33.7841897  56.7721180
   7.7090071  33.6430656  56.0744143   6.2368223  33.4976410  56.3959782
  18.9317945  41.8660329  55.7035440  19.3654452  41.7735618  56.5518494
  19.6449526  41.8417829  55.0655456   7.8450996  43.0844327  52.8856173
   8.6391594  42.5894648  52.6838748   7.1342688  42.5562191  52.5223878
  12.6645840  45.4662423  57.2368540  12.7182863  46.0353359  58.0046256
  11.7960622  45.6364308  56.8722577   4.1533759  37.2287409  48.9615925
   3.2231347  37.1671865  49.1785887   4.2491231  36.7063362  48.1652567
   4.0719308  33.7542222  51.5494167   4.3326126  34.6687555  51.4403327
   4.8936481  33.2866665  51.6990780   5.5444234  35.1679979  58.7192991
   6.2167287  34.9597341  58.0705640   4.7174020  34.9702065  58.2798224
  19.7933495  41.9084029  58.2368325  19.9869385  42.8129840  58.4827600
  19.6934113  41.4491449  59.0706910  11.4469806  31.7941920  60.7358652
  10.7997721  32.4931870  60.6423129  12.2170821  32.2278064  61.1034901
  14.8548604  42.0590772  63.8109206  14.7034110  41.8301324  62.8939289
  14.8453283  43.0161374  63.8240551  11.6233940  39.6322685  58.7955472
  12.5526000  39.7833845  58.6224439  11.2024970  39.7206706  57.9404119
  10.4222272  43.6573349  56.5654010  10.2833358  43.2892134  57.4379948
   9.6336868  44.1720989  56.3937967  11.0170424  48.7582446  47.9079546
  11.1922180  48.2870489  48.7225169  10.3303212  49.3848212  48.1360807
  11.9727487  43.0354952  53.9542847  11.6377320  42.9955722  54.8500497
  11.4731433  42.3699668  53.4813258   5.9471731  38.4422582  59.4795429
   5.8091529  37.7102821  60.0806968   6.8576654  38.3531482  59.1979616
  14.9086679  40.3810986  44.2279907  14.2915849  39.6557815  44.1312960
  14.4403167  41.1420347  43.8846981   8.5754032  38.1542541  58.9679108
   9.2853650  37.5135734  58.9265727   8.5323340  38.4055436  59.8905289
  16.5640810  45.0909895  61.8885687  16.5053357  44.4069115  61.2216270
  16.9660329  45.8328885  61.4366313   7.2882966  35.1407759  60.7874748
   6.7520323  34.6898498  61.4396344   6.6999674  35.2753668  60.0445212
   5.5831509  51.9071809  54.6819406   5.8228107  52.5390333  55.3598425
   4.7400706  51.5559849  54.9684766   6.6985225  34.5996411  43.3501211
   5.8214691  34.4785212  42.9863458   7.1742978  33.8082489  43.0980100
  16.5658218  43.0549479  60.1199667  15.6784996  42.7175401  60.2426066
  17.1356769  42.3232510  60.3568433   3.0222087  34.2763767  57.8727742
   2.9380276  33.6689437  57.1378152   2.2004793  34.7672785  57.8737239
  10.0959371  47.7150931  57.0860910  10.0229542  48.5205903  57.5980215
   9.6536764  47.9142897  56.2608932   9.8849151  46.9522701  50.5963732
   9.1016673  47.4944381  50.6901956  10.5841896  47.4696681  50.9957973
  13.1945801  32.7617331  53.2397937  13.6914500  32.0087293  52.9199008
  12.4232782  32.7981647  52.6741147  21.0475558  38.4657696  54.8816229
  21.0365434  39.3482412  54.5110162  20.1792938  38.1129247  54.6870766
  12.5558055  47.6137765  59.2419069  13.2686027  48.2485230  59.1694970
  12.0648083  47.7101631  58.4259071  14.2775581  41.5189018  50.8136361
  13.3431860  41.6390480  50.6441065  14.4552250  40.6161485  50.5496371
   9.7780770  34.9034714  52.9669622   9.4078557  34.3505754  53.6550527
  10.2739862  34.2992847  52.4144622  17.6648133  37.3606337  51.3486395
  18.1308585  38.1934329  51.2746697  18.1155633  36.8951319  52.0531653
   7.6069968  45.3632209  60.0624640   8.3079428  45.9968692  60.2154034
   7.1365083  45.7046940  59.3020279  15.7324364  43.7050158  48.3472547
  16.0084208  43.5906753  49.2566421  14.8628863  43.3067643  48.3084720
  15.6364796  29.7286924  55.3877296  14.7227875  29.9591151  55.5559503
  16.0657897  29.8125368  56.2391329  15.4071254  37.9176816  57.8877190
  14.7542704  38.1652723  57.2329643  15.7851634  37.1040954  57.5539667
  12.3678428  47.9536509  51.9905360  12.5500822  47.1358165  52.4533113
  13.1911414  48.1704201  51.5530250  12.7020593  46.8804694  49.2520409
  13.2308360  46.3697149  48.6390571  12.9648813  46.5647225  50.1165942
  11.4558827  38.6596627  64.3743227  10.7799464  38.5590756  65.0445602
  12.2786461  38.5035841  64.8379224   3.2037686  44.8968564  56.9955743
   3.7891123  44.1512252  57.1283647   3.0062525  45.2072520  57.8792406
   6.0576341  47.9319811  52.0118185   5.3886717  48.4165939  51.5282225
   5.9189211  48.1789031  52.9261563  10.1981610  49.9663555  58.6100843
  10.7499918  50.1295176  59.3749928  10.5387803  50.5567992  57.9380868
   5.1746103  32.3138704  59.2122728   5.2387430  33.1753535  58.8000126
   5.1113223  31.7012706  58.4795086   4.6498376  34.3861837  62.8595762
   5.2770415  34.0038914  63.4733287   3.7926295  34.1676039  63.2251455
  15.0492484  44.7924812  64.4649498  15.5932388  45.4054770  63.9704452
  14.4679329  45.3504390  64.9816511   1.4263918  36.1938266  48.7914117
   1.7217360  35.2848944  48.7381171   0.5251954  36.1726005  48.4695119
  13.3349997  47.9145530  55.5964525  13.2101137  47.1135270  55.0875471
  13.9929088  48.4091723  55.1078495   4.9558165  34.2694263  54.7741666
   4.2344751  34.8830230  54.6349139   5.7451421  34.8052027  54.6958312
  15.3984906  45.7154550  57.2244076  14.4515241  45.5959901  57.1522402
  15.7467679  44.8277048  57.3070337   7.7584479  31.6048689  61.0482317
   8.2818881  31.8510986  61.8108627   7.5396812  32.4368724  60.6285455
   3.1551760  33.8752364  48.9153442   2.8264466  32.9949743  48.7328548
   3.5091131  33.8200032  49.8029831  12.4031339  45.5107266  53.4248428
  12.2556301  44.5823974  53.6055998  13.2284832  45.5327357  52.9405503
   6.2693583  34.1625333  49.2828920   6.6089656  34.6911255  48.5607528
   6.7165704  34.5005740  50.0587486  16.0065461  46.3335825  54.5113300
  16.9312008  46.1278686  54.3737752  15.8380764  46.0852226  55.4202642
   8.9637024  32.5462384  58.7331988   8.6233844  31.7470197  59.1352668
   8.2576030  32.8464095  58.1608821   9.6153496  29.6311697  57.1859311
  10.4379565  29.1572175  57.0638201   9.8591559  30.4102180  57.6857997
   8.2561730  32.6599955  47.4822213   8.9770093  33.0381208  46.9785930
   7.6327034  33.3788832  47.5857191  12.3992853  33.3645104  48.4180545
  12.6156468  34.2469742  48.1169373  11.9186920  32.9731317  47.6886187
   7.1392075  36.3230817  54.9951290   6.9936655  36.6371120  55.8875571
   6.6617278  36.9415718  54.4422188   8.9988457  33.3133365  55.0432179
   8.9850026  32.4174459  54.7064477   9.7160886  33.3204029  55.6770465
  10.8514588  33.7470705  57.0885307  10.5932366  34.6687776  57.0869637
  10.3199629  33.3501140  57.7785771  15.7960777  46.8521493  49.8675392
  15.9697654  46.2867915  49.1149244  16.2889668  47.6522387  49.6854882
   1.6137737  38.8636162  57.9338951   1.0691205  39.6395970  58.0659225
   2.4917087  39.2106966  57.7758072   8.4025353  32.1947745  50.3119749
   8.5241265  31.2664392  50.5110637   8.1127396  32.2086431  49.3998065
  11.2716544  29.8802656  53.4486469  11.2938241  29.9441989  52.4938449
  11.6884603  29.0407165  53.6426975  21.6500168  39.6157915  51.4865692
  22.0931314  38.8665241  51.0884815  20.7726678  39.6068052  51.1039424
  16.7835949  46.1688257  46.9672290  17.4786854  46.7894950  47.1859605
  17.1259100  45.3183608  47.2424668   2.4003759  37.9906058  60.8269108
   1.6585495  38.1388693  61.4133738   2.0796503  38.2514324  59.9635857
  18.6827373  43.6187962  48.4959621  19.2078697  43.9575235  47.7708941
  18.5949725  42.6834978  48.3122756  10.3447421  47.5322036  60.6249498
  10.6534548  47.2871183  61.4972197  11.1422903  47.7368675  60.1368368
  10.3668033  49.6859946  52.8554874   9.9273024  49.1936324  53.5487731
  11.1176150  49.1432913  52.6146949   2.8460372  45.8771487  52.8579502
   3.6718392  45.5775258  52.4778146   2.4954424  45.1079109  53.3069291
   7.8141905  45.2297955  54.9277176   7.1921915  44.5668660  54.6279404
   8.4846772  45.2559087  54.2450824   7.8866433  33.7079743  64.5209682
   7.9354588  34.5841866  64.1387451   8.4288947  33.1657136  63.9481325
  18.3721279  44.2520866  63.8010819  17.5816822  44.2345005  63.2615318
  18.1354633  44.7909160  64.5559856  18.4919154  41.1013332  61.1143547
  18.5417159  40.9363340  62.0559070  18.3833077  40.2340592  60.7241428
   7.3755412  43.7801878  48.4035636   7.5243533  44.4637343  47.7502309
   8.1821856  43.7606968  48.9185092  15.7822916  37.0844261  62.4302854
  16.6832779  36.9450725  62.1386852  15.8570891  37.2498715  63.3701032
  10.1165721  34.4611115  61.2756041   9.2469031  34.7544681  61.0038629
  10.3525202  35.0451560  61.9963304  19.9937351  43.5210274  61.3585569
  19.7022159  43.8840255  62.1949030  19.3809482  42.8077282  61.1798901
  21.1933033  41.0863154  53.8788139  22.0279924  41.5252958  54.0425700
  21.3292162  40.6101807  53.0596385  18.2424539  38.6442889  59.8265627
  18.7178660  38.8370535  59.0184478  17.3190104  38.7002074  59.5809011
   5.1308045  39.8067056  49.4096705   4.8854087  38.9029386  49.6076915
   5.3003960  39.8084206  48.4676183  12.8204755  30.6790732  58.7921461
  13.3386699  31.4151759  58.4667949  12.4659888  30.9854725  59.6268220
   4.4003693  35.5395413  46.9082867   3.7072938  35.6139768  46.2522903
   4.1555445  34.7755757  47.4304384  13.0717349  27.0991015  54.3122358
  13.3519103  26.4314204  54.9382784  13.8567956  27.2920110  53.7997021
  10.8750818  46.2750009  45.8747384  10.3024785  46.8940196  45.4217856
  11.4483612  46.8249370  46.4087306  16.9426208  35.5208649  58.0593933
  17.8943631  35.6206746  58.0806157  16.7729658  34.7286917  58.5692017
  14.9640587  32.6064232  58.2453334  14.3690519  32.8869245  57.5499822
  14.6790284  33.0958133  59.0170075  14.0948078  46.5587159  47.0055966
  15.0278751  46.4932720  47.2088842  14.0071291  47.3943426  46.5470499
  16.7236094  45.8753029  43.9659914  16.6449726  45.5412893  44.8595672
  17.5445761  46.3674797  43.9651386  19.4214286  38.7414768  57.1736232
  19.3890606  37.8030769  57.3595916  20.0314909  38.8198805  56.4402057
  11.2597616  37.6110821  43.2163436  12.2056721  37.4817029  43.2851854
  10.8811861  36.8725483  43.6932864  19.5708774  35.5325812  57.2194515
  19.0547823  34.7484268  57.0324444  20.4548723  35.2044528  57.3841035
  17.2319501  29.2766827  53.1790328  17.0344322  28.9681916  54.0633660
  17.8419207  30.0028466  53.3088258  25.2390835  39.8030775  56.3142269
  25.9694224  39.5416063  56.8749972  24.6297781  39.0659497  56.3544337
  23.3206133  37.9438638  56.9116720  22.5939296  37.8094603  56.3033212
  22.9053419  38.2515466  57.7173438  11.1436309  41.6628568  64.6764093
  12.0639318  41.8407167  64.8704140  11.1085892  40.7184613  64.5243793
   9.4440534  35.5360798  43.1518322   8.5371989  35.2393910  43.2281035
   9.7216515  35.2390616  42.2852608   4.1398381  39.5729602  57.3186874
   4.3584391  40.5046710  57.3374908   4.5524155  39.2137577  58.1041678
  11.0602599  30.0797687  49.3062563  10.2503328  29.7344772  49.6817809
  11.7487016  29.7705231  49.8950174  12.9893148  29.1575734  50.9286859
  13.5424186  29.5771188  51.5876883  13.2263234  28.2311482  50.9709815
   9.0126247  35.1462808  66.7089623   8.9122974  36.0957165  66.6401714
   8.7947789  34.8181047  65.8365693   8.2139318  32.3947733  43.2930301
   9.0758482  32.7202631  43.5526118   8.3989662  31.6079229  42.7803367
  16.3671955  31.2676259  50.4365524  15.7870624  31.9261063  50.0543576
  16.1007887  30.4453604  50.0252941  14.8175521  30.6681317  52.6386844
  15.3175299  30.7797852  51.8301163  15.4611129  30.3642370  53.2787653
   8.8757517  38.5759947  65.5254685   8.3924599  39.3760307  65.7318574
   8.9618456  38.5867892  64.5722129   2.1443476  40.4088326  53.4476504
   2.1214165  40.5076014  52.4958388   2.4544113  41.2553477  53.7693671
   4.8030854  42.4664481  57.5623119   5.7574108  42.4348424  57.4953050
   4.6043378  42.0055105  58.3773345   5.3930236  41.0365598  60.1293916
   6.2123125  41.5309676  60.1528754   5.6667044  40.1197566  60.1011484
  15.1496833  33.4276350  49.4921872  14.2622688  33.7126000  49.2742067
  15.5650822  33.2670113  48.6449149  18.5011369  33.4522871  53.2076211
  19.2771759  33.9419323  53.4800828  17.7759503  33.8780925  53.6648081
  20.9383927  34.1650490  54.2650152  21.5328418  33.9246226  53.5543460
  21.0110511  33.4457621  54.8923688   3.1581083  48.0084101  54.5793317
   3.0235551  47.2484502  54.0131315   2.7413145  48.7325001  54.1122106
  14.2940046  43.1921024  43.5869892  14.9975896  43.3971027  44.2027548
  13.5702695  43.7597786  43.8518976  15.1237856  38.9430886  49.7072162
  15.0673058  39.3999437  48.8679795  15.6766199  38.1821570  49.5295005
  18.9342662  34.7320618  50.5322282  18.6779597  34.3317253  51.3630489
  18.3095530  35.4464412  50.4072421  23.2455000  37.4716691  53.0393573
  22.6854558  37.5409880  53.8125135  22.6398504  37.2957676  52.3193069
   6.3150209  48.9053418  54.7911759   6.1982593  49.8498850  54.6890450
   5.4942655  48.6026980  55.1797559  16.2026744  43.6303554  45.6368352
  17.0372347  43.1984752  45.4545827  16.0411086  43.4585567  46.5645247
  15.8572636  40.1335667  47.0024691  15.8021440  39.9679938  46.0613135
  15.2318691  40.8411700  47.1586881  13.1718543  42.4384579  66.3278254
  14.0409703  42.6125231  65.9664889  12.6925294  43.2578996  66.2053983
   9.1668761  29.6343776  46.5810010   9.1547431  30.5785616  46.7378281
  10.0592183  29.4513921  46.2869471   7.3404723  49.5581680  58.0067688
   8.2431970  49.5905290  58.3234183   7.1142093  48.6282131  58.0214024
   9.0958325  48.3112666  54.6677766   8.1453956  48.3114528  54.5542139
   9.3990811  47.5645401  54.1513801  12.9820881  26.2286553  50.8355947
  12.2153276  25.6745039  50.9812629  13.3931586  26.3008421  51.6970098
   4.9862642  32.5171348  64.9261128   5.8494103  32.1608153  65.1364452
   4.4128052  32.1785243  65.6136532  24.8311019  54.1473205  55.7323529
  25.4689429  54.0279952  55.0286869  24.7131862  55.0954049  55.7911481
  21.6400725  54.1000633  55.6685053  21.3019236  53.9841698  54.7805588
  22.5090493  53.6991798  55.6486060  17.4987541  55.9536109  51.6581944
  16.9352406  55.8626046  50.8898232  17.3839936  55.1336014  52.1384437
  22.1220508  55.2535485  61.6271259  22.1109149  54.8588283  60.7551763
  22.2841147  54.5201557  62.2205030  15.0451973  57.4487301  54.4966165
  15.8373264  57.1078126  54.0812464  15.2848623  57.5582276  55.4168318
  23.0787099  59.6207077  46.9696409  22.4275079  60.2061157  46.5830423
  23.8731462  60.1513272  47.0291447  17.0042726  56.7096214  47.3683544
  17.7773602  56.1625201  47.2296419  17.3568125  57.5740464  47.5798005
  19.7683976  55.4149445  57.1651803  20.3647548  55.1905467  56.4508766
  19.8258947  54.6734190  57.7677250  19.3409004  52.8688880  45.0001994
  19.5934525  52.3470402  44.2385457  18.4033563  52.7055026  45.1028677
  24.3852287  51.8724659  52.8076737  25.1715376  51.4544082  52.4567154
  24.6490991  52.7770751  52.9758385  24.5562364  57.3097509  47.5065394
  23.9208197  57.3832135  48.2186298  24.2259771  57.8991108  46.8284473
  19.0605293  54.7716986  47.2026369  18.9441551  54.0961890  47.8707453
  19.1707553  54.2849360  46.3858522  21.4036834  54.2327133  50.9073058
  21.0395041  53.7057754  51.6185979  22.2603950  53.8425602  50.7339543
  21.0442321  49.2617033  45.9034406  21.2116723  50.1297269  46.2704877
  20.8539490  49.4244315  44.9795696  23.8017654  57.7234012  57.5700237
  23.5018377  58.6259051  57.4616044  23.4568714  57.4566195  58.4221390
  17.2530136  54.1747809  53.6036941  16.3280632  54.0424023  53.8114633
  17.5014549  54.9542028  54.1006883  21.0231542  51.7174691  46.8881073
  20.9031167  52.1631741  47.7266553  20.3284130  52.0660008  46.3294611
  14.6138947  53.8181082  54.4380730  14.7431328  54.0715561  55.3520142
  13.9336398  54.4108790  54.1185385  18.7838434  64.4878332  50.5371204
  18.7062464  65.4386157  50.6159685  18.1800078  64.1424205  51.1946131
  21.2755664  51.6606198  63.1932571  20.4988998  52.2200118  63.1835436
  21.9146227  52.1462981  63.7147441  26.7216608  52.1896164  47.7161407
  27.6334464  52.4223550  47.5409105  26.2126255  52.7733208  47.1536486
  19.5302036  54.4691651  62.7550538  20.2716720  55.0076695  62.4785362
  18.8239021  55.0957940  62.9122090  25.0057376  56.6120792  61.3522700
  25.4140732  56.1703202  60.6077332  24.2834637  56.0373419  61.6056893
  21.3588446  51.5493398  58.7256257  22.2049641  51.9732812  58.8690906
  21.2987083  50.8927023  59.4194820  25.3286190  57.1721982  55.1074989
  24.6995053  57.3367696  54.4051056  24.9411852  57.5863592  55.8785953
  24.5087891  49.2097767  60.3837430  24.2648823  49.9639827  59.8471706
  24.7847822  49.5883114  61.2184677  24.0652583  48.3654200  55.9651268
  23.2037062  48.6635453  56.2568006  24.0915017  48.5824599  55.0332301
  20.8814152  56.9096390  52.3725074  21.3452498  57.1884093  51.5829696
  20.6170950  56.0079835  52.1898164  17.7738233  56.4567872  55.3104837
  18.3439590  56.8855140  54.6722321  18.3646345  56.1750457  56.0089023
  19.8183038  53.0319543  49.1814639  20.5207082  53.4840586  49.6488565
  19.4863667  52.3903362  49.8094532  18.2663400  51.6231299  63.5565848
  17.6362060  52.3047580  63.7901245  18.1599488  51.5114381  62.6118987
  13.5608372  51.2903095  54.4831772  12.7707426  51.5460624  54.0071883
  14.0519620  52.1051433  54.5883813  15.5123118  51.6547675  51.4415249
  14.7154281  51.7666369  51.9598745  15.2848710  51.9934327  50.5756140
  21.3428785  58.1792378  59.3897764  21.4073218  58.6412785  60.2255936
  20.6339709  57.5489743  59.5180074  11.8446075  51.5433586  56.9146763
  12.0954114  52.4280596  57.1804339  12.3805624  51.3638187  56.1421855
  21.0576803  59.8460485  49.2576744  20.9222478  60.6912021  49.6861592
  21.5986615  60.0479763  48.4942678  17.5444142  45.9252065  65.9191099
  17.1511088  45.3718264  66.5938744  18.3610283  46.2362644  66.3097617
  14.5106200  57.3635923  49.8304669  15.0230721  58.1579174  49.9810234
  15.1628913  56.6662214  49.7638271  16.3201085  60.4801680  51.9127422
  16.4967713  61.4019644  51.7248406  17.1157918  60.1660099  52.3421802
  20.4612103  47.3409944  63.5111356  21.2021817  47.9417097  63.4315818
  20.6930026  46.5987582  62.9529398  15.6053441  52.5266311  61.7889586
  15.4906957  51.6251569  62.0896684  14.7497959  52.7730008  61.4374402
  22.6845279  60.4684052  63.3877086  22.2409133  59.6820430  63.0697991
  23.3462493  60.6563202  62.7220977  17.4432400  61.9979853  57.9137765
  17.9939826  61.8696917  57.1414759  16.6043876  62.2974742  57.5632657
  24.7826517  60.7486852  61.4158487  24.7644993  61.5695733  60.9238757
  25.7046437  60.6240927  61.6408629  21.2399571  58.2630981  62.2581996
  21.7727908  57.5019269  62.0281304  20.7113653  57.9704633  63.0006150
  24.4069266  43.3691047  57.7875638  24.0633536  44.2592689  57.7114748
  24.7748229  43.1792705  56.9245223  12.4755117  55.6924578  50.6064240
  13.3130339  56.1021586  50.3897947  12.6533385  54.7524020  50.5764434
  24.3719549  53.3599658  46.2948073  23.8566173  54.1304263  46.5336460
  24.0996858  52.6864794  46.9181134  21.9566660  48.2049359  51.3533311
  21.1008256  47.8156209  51.1738950  22.3693612  48.2841320  50.4933097
  23.4865807  45.7395702  55.7524871  22.9830602  45.7025837  54.9392676
  23.7796414  46.6488445  55.8121527  19.7308693  45.8234432  54.7591053
  20.5961689  45.6277241  54.3996942  19.7986202  45.5944784  55.6860409
  29.3453823  56.1132013  48.2301246  28.5683266  55.7743172  47.7856408
  30.0245304  56.1184636  47.5556211  24.1605852  51.2326750  48.1207854
  23.8555988  51.5472900  48.9717997  25.1136294  51.3108170  48.1635187
  22.6052284  57.3916974  49.7700808  22.0773646  56.6569733  49.4574045
  22.1039787  58.1691650  49.5240776  17.3371012  48.0536640  52.1307419
  17.9114764  47.8311821  51.3980612  17.9241994  48.1225334  52.8836021
  26.3950589  53.9410367  52.9371796  26.9082471  54.5740359  53.4393506
  27.0451813  53.3411562  52.5715156  17.6640599  50.0841101  46.1503305
  16.8277911  50.4215788  46.4712579  17.5245369  49.9490081  45.2130442
  19.6393679  44.9277889  50.8582489  18.9858092  44.6126906  50.2339104
  19.5974154  44.3053629  51.5842312  20.7504884  55.2097184  42.7735781
  19.8431946  54.9786437  42.9726930  21.2475916  54.4134803  42.9609762
  23.6572963  63.9194691  45.6932467  22.9834662  64.2226388  46.3017425
  24.0438785  64.7223771  45.3437924  22.8731420  51.4159822  55.1830136
  21.9553981  51.6374769  55.0251824  23.2891563  51.4906133  54.3241844
  23.6566468  52.8151238  50.3132817  24.4038287  53.3272635  50.0039939
  23.9258057  52.4935291  51.1737210  21.9293118  55.3109779  47.2959771
  21.0204337  55.0268812  47.3932241  21.9588202  55.7308857  46.4363078
  27.1612385  58.9216368  51.0650939  26.7074712  58.0807278  51.1216129
  26.5306352  59.5577767  51.4025719  26.1045305  49.8508354  52.2951606
  25.3668062  49.3385741  52.6261849  26.3572078  49.4108736  51.4834883
  25.6045324  60.7592865  52.0000757  25.8968299  61.3197922  51.2813122
  26.1143945  61.0521426  52.7553916  26.2056932  42.6284606  52.8893375
  26.5115809  41.7681970  52.6019290  26.9309537  43.2202227  52.6892369
  12.4981288  53.0315293  51.2774973  12.3005688  52.4384654  50.5526040
  11.9427952  52.7267503  51.9950912  20.4778012  52.9238399  53.3969566
  20.5326622  51.9712236  53.3212043  19.6669214  53.0797838  53.8810865
  21.6269206  56.8518522  44.6347850  21.1888635  56.1354381  44.1753487
  22.3679646  57.0794637  44.0732941  18.4170372  51.5415459  51.1559945
  17.6038237  51.8409630  51.5625137  18.9129366  51.1471148  51.8734427
  20.5678950  61.5373216  53.0894210  20.5255128  61.7634062  52.1602742
  21.4841648  61.3036591  53.2380011  24.0144583  52.0057284  59.9874839
  24.3693971  52.2328757  60.8469305  24.6616715  52.3375660  59.3652094
  17.9084446  49.1133815  56.7721180  18.5483826  48.9722574  56.0744143
  17.0761977  48.8268328  56.3959782  18.6844750  58.4136245  52.8856173
  19.4785349  57.9186565  52.6838748  17.9736443  57.8854108  52.5223878
  23.5039595  60.7954341  57.2368540  23.5576617  61.3645277  58.0046256
  22.6354376  60.9656226  56.8722577  14.9927514  52.5579327  48.9615925
  14.0625102  52.4963782  49.1785887  15.0884986  52.0355280  48.1652567
  14.9113063  49.0834140  51.5494167  15.1719880  49.9979473  51.4403327
  15.7330235  48.6158582  51.6990780  16.3837988  50.4971897  58.7192991
  17.0561042  50.2889259  58.0705640  15.5567775  50.2993983  58.2798224
  22.2863560  47.1233838  60.7358652  21.6391475  47.8223787  60.6423129
  23.0564576  47.5569982  61.1034901  25.6942358  57.3882690  63.8109206
  25.5427865  57.1593242  62.8939289  25.6847038  58.3453291  63.8240551
  22.4627695  54.9614603  58.7955472  23.3919755  55.1125762  58.6224439
  22.0418725  55.0498623  57.9404119  21.2616026  58.9865267  56.5654010
  21.1227112  58.6184051  57.4379948  20.4730623  59.5012907  56.3937967
  21.8564178  64.0874364  47.9079546  22.0315934  63.6162407  48.7225169
  21.1696966  64.7140130  48.1360807  22.8121242  58.3646870  53.9542847
  22.4771074  58.3247640  54.8500497  22.3125187  57.6991586  53.4813258
  16.7865485  53.7714500  59.4795429  16.6485283  53.0394739  60.0806968
  17.6970409  53.6823400  59.1979616  25.7480433  55.7102904  44.2279907
  25.1309604  54.9849732  44.1312960  25.2796922  56.4712264  43.8846981
  19.4147786  53.4834459  58.9679108  20.1247405  52.8427651  58.9265727
  19.3717094  53.7347354  59.8905289  18.1276720  50.4699677  60.7874748
  17.5914077  50.0190415  61.4396344  17.5393429  50.6045586  60.0445212
  16.4225264  67.2363726  54.6819406  16.6621862  67.8682250  55.3598425
  15.5794460  66.8851766  54.9684766  17.5378979  49.9288328  43.3501211
  16.6608445  49.8077129  42.9863458  18.0136732  49.1374407  43.0980100
   9.0581119  54.7165488  53.4442719   9.7452159  54.4027218  52.8563734
   8.9029248  55.6206853  53.1709970  13.8615841  49.6055685  57.8727742
  13.7774030  48.9981354  57.1378152  13.0398548  50.0964703  57.8737239
  20.9353126  63.0442849  57.0860910  20.8623297  63.8497820  57.5980215
  20.4930519  63.2434815  56.2608932  20.7242905  62.2814619  50.5963732
  19.9410427  62.8236299  50.6901956  21.4235650  62.7988598  50.9957973
  24.0339555  48.0909248  53.2397937  24.5308255  47.3379211  52.9199008
  23.2626537  48.1273565  52.6741147  23.3951809  62.9429683  59.2419069
  24.1079781  63.5777148  59.1694970  22.9041838  63.0393549  58.4259071
  25.1169336  56.8480935  50.8136361  24.1825615  56.9682398  50.6441065
  25.2946004  55.9453402  50.5496371  20.6174524  50.2326631  52.9669622
  20.2472312  49.6797672  53.6550527  21.1133616  49.6284765  52.4144622
  18.4463723  60.6924126  60.0624640  19.1473182  61.3260609  60.2154034
  17.9758838  61.0338858  59.3020279  26.5718118  59.0342076  48.3472547
  26.8477962  58.9198671  49.2566421  25.7022617  58.6359561  48.3084720
  23.2072182  63.2828427  51.9905360  23.3894577  62.4650083  52.4533113
  24.0305168  63.4996119  51.5530250  23.5414348  62.2096612  49.2520409
  24.0702114  61.6989067  48.6390571  23.8042567  61.8939142  50.1165942
  22.2952582  53.9888545  64.3743227  21.6193219  53.8882674  65.0445602
  23.1180215  53.8327758  64.8379224  14.0431441  60.2260481  56.9955743
  14.6284877  59.4804169  57.1283647  13.8456279  60.5364438  57.8792406
  16.8970096  63.2611729  52.0118185  16.2280471  63.7457856  51.5282225
  16.7582966  63.5080949  52.9261563   8.6349095  52.7966082  55.7160186
   8.6733195  52.2629672  56.5097304   8.1289388  52.2701287  55.0971163
  21.0375364  65.2955472  58.6100843  21.5893672  65.4587094  59.3749928
  21.3781558  65.8859910  57.9380868  16.0139858  47.6430622  59.2122728
  16.0781184  48.5045453  58.8000126  15.9506978  47.0304624  58.4795086
  15.4892130  49.7153755  62.8595762  16.1164169  49.3330832  63.4733287
  14.6320049  49.4967956  63.2251455  25.8886239  60.1216730  64.4649498
  26.4326143  60.7346688  63.9704452  25.3073084  60.6796308  64.9816511
  12.2657673  51.5230184  48.7914117  12.5611114  50.6140862  48.7381171
  11.3645709  51.5017923  48.4695119  24.1743752  63.2437448  55.5964525
  24.0494891  62.4427188  55.0875471  24.8322843  63.7383641  55.1078495
  15.7951920  49.5986180  54.7741666  15.0738506  50.2122148  54.6349139
  16.5845176  50.1343945  54.6958312  26.2378660  61.0446468  57.2244076
  25.2908996  60.9251819  57.1522402  26.5861433  60.1568966  57.3070337
  18.5978233  46.9340607  61.0482317  19.1212635  47.1802903  61.8108627
  18.3790567  47.7660642  60.6285455  13.9945515  49.2044281  48.9153442
  13.6658221  48.3241660  48.7328548  14.3484885  49.1491950  49.8029831
  23.2425093  60.8399184  53.4248428  23.0950056  59.9115891  53.6055998
  24.0678587  60.8619275  52.9405503  17.1087338  49.4917251  49.2828920
  17.4483410  50.0203172  48.5607528  17.5559458  49.8297657  50.0587486
  26.8459215  61.6627743  54.5113300  27.7705763  61.4570604  54.3737752
  26.6774519  61.4144144  55.4202642  19.8030779  47.8754302  58.7331988
  19.4627599  47.0762115  59.1352668  19.0969785  48.1756013  58.1608821
  20.4547250  44.9603614  57.1859311  21.2773320  44.4864092  57.0638201
  20.6985314  45.7394098  57.6857997  19.0955485  47.9891873  47.4822213
  19.8163847  48.3673125  46.9785930  18.4720789  48.7080750  47.5857191
  23.2386608  48.6937022  48.4180545  23.4550222  49.5761660  48.1169373
  22.7580675  48.3023235  47.6886187  17.9785829  51.6522735  54.9951290
  17.8330410  51.9663038  55.8875571  17.5011033  52.2707635  54.4422188
  19.8382212  48.6425283  55.0432179  19.8243781  47.7466376  54.7064477
  20.5554640  48.6495947  55.6770465  21.6908343  49.0762623  57.0885307
  21.4326121  49.9979694  57.0869637  21.1593383  48.6793058  57.7785771
  26.6354531  62.1813410  49.8675392  26.8091409  61.6159833  49.1149244
  27.1283423  62.9814305  49.6854882  12.4531491  54.1928079  57.9338951
  11.9084959  54.9687887  58.0659225  13.3310841  54.5398884  57.7758072
  19.2419108  47.5239663  50.3119749  19.3635019  46.5956309  50.5110637
  18.9521150  47.5378349  49.3998065  22.1110298  45.2094574  53.4486469
  22.1331995  45.2733907  52.4938449  22.5278357  44.3699082  53.6426975
  27.6229704  61.4980175  46.9672290  28.3180609  62.1186867  47.1859605
  27.9652854  60.6475526  47.2424668  13.2397513  53.3197976  60.8269108
  12.4979249  53.4680611  61.4133738  12.9190257  53.5806241  59.9635857
  29.5221127  58.9479880  48.4959621  30.0472451  59.2867153  47.7708941
  29.4343480  58.0126895  48.3122756  21.1841176  62.8613954  60.6249498
  21.4928302  62.6163101  61.4972197  21.9816658  63.0660592  60.1368368
  21.2061788  65.0151863  52.8554874  20.7666778  64.5228242  53.5487731
  21.9569905  64.4724831  52.6146949  13.6854127  61.2063404  52.8579502
  14.5112147  60.9067176  52.4778146  13.3348179  60.4371027  53.3069291
  18.6535660  60.5589873  54.9277176  18.0315669  59.8960578  54.6279404
  19.3240527  60.5851004  54.2450824  11.8862732  59.1249731  53.8168436
  11.0494640  58.6971905  53.6352437  11.8586377  59.3182174  54.7539227
  18.7260187  49.0371661  64.5209682  18.7748343  49.9133783  64.1387451
  19.2682702  48.4949054  63.9481325  18.2149167  59.1093796  48.4035636
  18.3637287  59.7929260  47.7502309  19.0215610  59.0898886  48.9185092
  20.9559476  49.7903033  61.2756041  20.0862785  50.0836599  61.0038629
  21.1918956  50.3743478  61.9963304  15.9701800  55.1358973  49.4096705
  15.7247842  54.2321303  49.6076915  16.1397714  55.1376124  48.4676183
  23.6598510  46.0082650  58.7921461  24.1780454  46.7443677  58.4667949
  23.3053642  46.3146643  59.6268220  15.2397447  50.8687331  46.9082867
  14.5466692  50.9431686  46.2522903  14.9949199  50.1047675  47.4304384
  23.9111104  42.4282932  54.3122358  24.1912858  41.7606121  54.9382784
  24.6961711  42.6212028  53.7997021  21.7144572  61.6041926  45.8747384
  21.1418539  62.2232113  45.4217856  22.2877366  62.1541288  46.4087306
  24.9341832  61.8879076  47.0055966  25.8672505  61.8224638  47.2088842
  24.8465045  62.7235343  46.5470499  27.5629849  61.2044947  43.9659914
  27.4843480  60.8704810  44.8595672  28.3839516  61.6966715  43.9651386
  22.0991371  52.9402739  43.2163436  23.0450476  52.8108947  43.2851854
  21.7205616  52.2017401  43.6932864  28.0713255  44.6058745  53.1790328
  27.8738077  44.2973833  54.0633660  28.6812961  45.3320384  53.3088258
  21.9830063  56.9920485  64.6764093  22.9033073  57.1699084  64.8704140
  21.9479646  56.0476531  64.5243793  20.2834288  50.8652715  43.1518322
  19.3765743  50.5685828  43.2281035  20.5610269  50.5682534  42.2852608
  11.2012228  52.1859079  53.6017368  10.8815013  51.3324387  53.3091742
  10.6545657  52.4007657  54.3575335  14.9792136  54.9021520  57.3186874
  15.1978146  55.8338628  57.3374908  15.3917910  54.5429494  58.1041678
  21.8996354  45.4089605  49.3062563  21.0897082  45.0636690  49.6817809
  22.5880771  45.0997149  49.8950174  23.8286902  44.4867652  50.9286859
  24.3817941  44.9063105  51.5876883  24.0656988  43.5603400  50.9709815
  19.8520001  50.4754726  66.7089623  19.7516728  51.4249083  66.6401714
  19.6341543  50.1472965  65.8365693  19.0533073  47.7239651  43.2930301
  19.9152237  48.0494549  43.5526118  19.2383417  46.9371147  42.7803367
  11.0700488  55.8061990  55.5710490  10.3763960  55.3915943  55.0580444
  11.8173479  55.8482527  54.9743908  27.2065709  46.5968177  50.4365524
  26.6264378  47.2552981  50.0543576  26.9401642  45.7745522  50.0252941
  25.6569276  45.9973235  52.6386844  26.1569054  46.1089769  51.8301163
  26.3004883  45.6934288  53.2787653  19.7151271  53.9051864  65.5254685
  19.2318353  54.7052225  65.7318574  19.8012210  53.9159809  64.5722129
  12.9837231  55.7380244  53.4476504  12.9607919  55.8367931  52.4958388
  13.2937867  56.5845395  53.7693671  15.6424609  57.7956399  57.5623119
  16.5967862  57.7640341  57.4953050  15.4437132  57.3347023  58.3773345
  16.2323991  56.3657515  60.1293916  17.0516880  56.8601594  60.1528754
  16.5060799  55.4489483  60.1011484  25.9890587  48.7568268  49.4921872
  25.1016442  49.0417918  49.2742067  26.4044576  48.5962031  48.6449149
  13.9974838  63.3376019  54.5793317  13.8629306  62.5776420  54.0131315
  13.5806900  64.0616919  54.1122106  25.1333801  58.5212942  43.5869892
  25.8369651  58.7262945  44.2027548  24.4096449  59.0889704  43.8518976
  25.9631611  54.2722803  49.7072162  25.9066812  54.7291355  48.8679795
  26.5159953  53.5113488  49.5295005  17.1543963  64.2345336  54.7911759
  17.0376348  65.1790768  54.6890450  16.3336410  63.9318897  55.1797559
  27.0420498  58.9595471  45.6368352  27.8766102  58.5276670  45.4545827
  26.8804841  58.7877485  46.5645247  26.6966390  55.4627585  47.0024691
  26.6415194  55.2971856  46.0613135  26.0712445  56.1703618  47.1586881
  11.4858905  50.6995649  60.8286114  12.1317769  50.1894603  61.3173339
  11.2776056  51.4364331  61.4029539  24.0112297  57.7676497  66.3278254
  24.8803457  57.9417149  65.9664889  23.5319049  58.5870913  66.2053983
  20.0062516  44.9635694  46.5810010  19.9941185  45.9077534  46.7378281
  20.8985938  44.7805839  46.2869471  18.1798478  64.8873598  58.0067688
  19.0825724  64.9197208  58.3234183  17.9535848  63.9574049  58.0214024
  19.9352080  63.6404584  54.6677766  18.9847711  63.6406446  54.5542139
  20.2384566  62.8937319  54.1513801  23.8214635  41.5578470  50.8355947
  23.0547031  41.0036957  50.9812629  24.2325340  41.6300339  51.6970098
  15.8256396  47.8463266  64.9261128  16.6887858  47.4900071  65.1364452
  15.2521807  47.5077161  65.6136532  32.4794479  69.4292551  55.6685053
  32.1412991  69.3133615  54.7805588  33.3484248  69.0283716  55.6486060
  28.3381295  71.2828027  51.6581944  27.7746160  71.1917964  50.8898232
  28.2233690  70.4627931  52.1384437  32.9614262  70.5827402  61.6271259
  32.9502903  70.1880201  60.7551763  33.1234902  69.8493475  62.2205030
  25.8845727  72.7779219  54.4966165  26.6767019  72.4370043  54.0812464
  26.1242377  72.8874194  55.4168318  33.9180854  74.9498995  46.9696409
  33.2668834  75.5353075  46.5830423  34.7125217  75.4805190  47.0291447
  27.8436481  72.0388132  47.3683544  28.6167357  71.4917119  47.2296419
  28.1961880  72.9032381  47.5798005  29.6821524  73.3664514  60.5750443
  29.3911390  74.2710145  60.4597109  30.3178508  73.4081042  61.2894513
  30.6077730  70.7441363  57.1651803  31.2041303  70.5197385  56.4508766
  30.6652702  70.0026108  57.7677250  30.1802759  68.1980798  45.0001994
  30.4328279  67.6762319  44.2385457  29.2427318  68.0346943  45.1028677
  35.3956119  72.6389427  47.5065394  34.7601952  72.7124053  48.2186298
  35.0653525  73.2283025  46.8284473  29.8999048  70.1008904  47.2026369
  29.7835306  69.4253807  47.8707453  30.0101307  69.6141278  46.3858522
  32.2430588  69.5619051  50.9073058  31.8788796  69.0349672  51.6185979
  33.0997704  69.1717520  50.7339543  31.8836075  64.5908951  45.9034406
  32.0510478  65.4589187  46.2704877  31.6933245  64.7536232  44.9795696
  28.0923890  69.5039726  53.6036941  27.1674387  69.3715941  53.8114633
  28.3408303  70.2833946  54.1006883  38.0408552  65.5708470  55.2497674
  37.1325430  65.5023878  54.9556435  37.9896148  66.0480415  56.0779499
  31.8625296  67.0466608  46.8881073  31.7424922  67.4923659  47.7266553
  31.1677885  67.3951926  46.3294611  25.4532701  69.1473000  54.4380730
  25.5825082  69.4007479  55.3520142  24.7730152  69.7400708  54.1185385
  29.6232188  79.8170250  50.5371204  29.5456218  80.7678075  50.6159685
  29.0193832  79.4716122  51.1946131  30.3695790  69.7983569  62.7550538
  31.1110475  70.3368613  62.4785362  29.6632776  70.4249858  62.9122090
  32.1982200  66.8785316  58.7256257  33.0443395  67.3024730  58.8690906
  32.1380838  66.2218940  59.4194820  31.7207907  72.2388308  52.3725074
  32.1846252  72.5176011  51.5829696  31.4564705  71.3371753  52.1898164
  28.6131988  71.7859789  55.3104837  29.1833345  72.2147058  54.6722321
  29.2040100  71.5042374  56.0089023  30.6576793  68.3611460  49.1814639
  31.3600836  68.8132504  49.6488565  30.3257421  67.7195279  49.8094532
  24.4002127  66.6195013  54.4831772  23.6101181  66.8752542  54.0071883
  24.8913374  67.4343351  54.5883813  26.3516872  66.9839592  51.4415249
  25.5548035  67.0958286  51.9598745  26.1242464  67.3226244  50.5756140
  32.1822540  73.5084295  59.3897764  32.2466972  73.9704703  60.2255936
  31.4733464  72.8781660  59.5180074  22.6839830  66.8725503  56.9146763
  22.9347868  67.7572513  57.1804339  23.2199378  66.6930105  56.1421855
  31.8970557  75.1752403  49.2576744  31.7616232  76.0203939  49.6861592
  32.4380370  75.3771681  48.4942678  25.3499955  72.6927841  49.8304669
  25.8624475  73.4871091  49.9810234  26.0022668  71.9954131  49.7638271
  27.1594839  75.8093597  51.9127422  27.3361468  76.7311562  51.7248406
  27.9551673  75.4952016  52.3421802  26.4447196  67.8558229  61.7889586
  26.3300711  66.9543486  62.0896684  25.5891714  68.1021926  61.4374402
  33.5239034  75.7975969  63.3877086  33.0802888  75.0112348  63.0697991
  34.1856247  75.9855120  62.7220977  28.2826155  77.3271771  57.9137765
  28.8333580  77.1988834  57.1414759  27.4437631  77.6266660  57.5632657
  32.0793326  73.5922899  62.2581996  32.6121663  72.8311187  62.0281304
  31.5507407  73.2996551  63.0006150  23.3148872  71.0216495  50.6064240
  24.1524094  71.4313504  50.3897947  23.4927139  70.0815937  50.5764434
  35.2113304  68.6891576  46.2948073  34.6959927  69.4596181  46.5336460
  34.9390612  68.0156712  46.9181134  32.7960415  63.5341277  51.3533311
  31.9402011  63.1448127  51.1738950  33.2087366  63.6133238  50.4933097
  34.9999607  66.5618668  48.1207854  34.6949742  66.8764817  48.9717997
  35.9530049  66.6400088  48.1635187  33.4446039  72.7208891  49.7700808
  32.9167400  71.9861651  49.4574045  32.9433541  73.4983568  49.5240776
  28.1764766  63.3828558  52.1307419  28.7508518  63.1603739  51.3980612
  28.7635749  63.4517252  52.8836021  28.5034353  65.4133019  46.1503305
  27.6671666  65.7507705  46.4712579  28.3639123  65.2781998  45.2130442
  31.5898639  70.5389102  42.7735781  30.6825701  70.3078355  42.9726930
  32.0869671  69.7426721  42.9609762  34.4966718  79.2486609  45.6932467
  33.8228416  79.5518306  46.3017425  34.8832540  80.0515689  45.3437924
  33.7125174  66.7451740  55.1830136  32.7947736  66.9666687  55.0251824
  34.1285318  66.8198051  54.3241844  34.4960222  68.1443156  50.3132817
  35.2432041  68.6564553  50.0039939  34.7651812  67.8227208  51.1737210
  32.7686872  70.6401696  47.2959771  31.8598092  70.3560729  47.3932241
  32.7981956  71.0600775  46.4363078  23.3375043  68.3607211  51.2774973
  23.1399442  67.7676571  50.5526040  22.7821707  68.0559421  51.9950912
  31.3171766  68.2530317  53.3969566  31.3720376  67.3004153  53.3212043
  30.5062968  68.4089756  53.8810865  32.4662960  72.1810440  44.6347850
  32.0282390  71.4646299  44.1753487  33.2073401  72.4086555  44.0732941
  29.2564126  66.8707377  51.1559945  28.4431992  67.1701547  51.5625137
  29.7523120  66.4763066  51.8734427  31.4072704  76.8665134  53.0894210
  31.3648883  77.0925980  52.1602742  32.3235403  76.6328508  53.2380011
  28.7478201  64.4425732  56.7721180  29.3877580  64.3014491  56.0744143
  27.9155732  64.1560246  56.3959782  29.5238505  73.7428163  52.8856173
  30.3179103  73.2478483  52.6838748  28.8130197  73.2146026  52.5223878
  25.8321268  67.8871245  48.9615925  24.9018856  67.8255700  49.1785887
  25.9278740  67.3647197  48.1652567  25.7506817  64.4126057  51.5494167
  26.0113635  65.3271391  51.4403327  26.5723990  63.9450500  51.6990780
  27.2231743  65.8263815  58.7192991  27.8954796  65.6181177  58.0705640
  26.3961529  65.6285901  58.2798224  33.3021449  70.2906520  58.7955472
  34.2313509  70.4417680  58.6224439  32.8812479  70.3790541  57.9404119
  32.1009781  74.3157185  56.5654010  31.9620867  73.9475969  57.4379948
  31.3124377  74.8304824  56.3937967  32.6957933  79.4166281  47.9079546
  32.8709689  78.9454324  48.7225169  32.0090721  80.0432047  48.1360807
  27.6259240  69.1006417  59.4795429  27.4879038  68.3686656  60.0806968
  28.5364163  69.0115318  59.1979616  36.5874188  71.0394822  44.2279907
  35.9703358  70.3141650  44.1312960  36.1190676  71.8004182  43.8846981
  30.2541541  68.8126377  58.9679108  30.9641159  68.1719569  58.9265727
  30.2110849  69.0639272  59.8905289  27.2619018  82.5655644  54.6819406
  27.5015616  83.1974168  55.3598425  26.4188215  82.2143684  54.9684766
  28.3772734  65.2580246  43.3501211  27.5002200  65.1369047  42.9863458
  28.8530487  64.4666324  43.0980100  19.8974874  70.0457406  53.4442719
  20.5845914  69.7319136  52.8563734  19.7423002  70.9498770  53.1709970
  24.7009596  64.9347602  57.8727742  24.6167785  64.3273272  57.1378152
  23.8792302  65.4256621  57.8737239  31.7746880  78.3734766  57.0860910
  31.7017051  79.1789738  57.5980215  31.3324273  78.5726732  56.2608932
  31.5636660  77.6106536  50.5963732  30.7804182  78.1528217  50.6901956
  32.2629405  78.1280516  50.9957973  34.8733310  63.4201166  53.2397937
  35.3702009  62.6671128  52.9199008  34.1020291  63.4565483  52.6741147
  31.4568278  65.5618549  52.9669622  31.0866066  65.0089589  53.6550527
  31.9527371  64.9576682  52.4144622  29.2857477  76.0216044  60.0624640
  29.9866937  76.6552527  60.2154034  28.8152592  76.3630775  59.3020279
  34.0465937  78.6120345  51.9905360  34.2288331  77.7942000  52.4533113
  34.8698923  78.8288037  51.5530250  34.3808102  77.5388530  49.2520409
  34.9095869  77.0280984  48.6390571  34.6436322  77.2231060  50.1165942
  24.8825195  75.5552399  56.9955743  25.4678632  74.8096087  57.1283647
  24.6850034  75.8656356  57.8792406  27.7363850  78.5903646  52.0118185
  27.0674226  79.0749774  51.5282225  27.5976720  78.8372867  52.9261563
  19.4742850  68.1257999  55.7160186  19.5126949  67.5921590  56.5097304
  18.9683143  67.5993205  55.0971163  31.8769119  80.6247390  58.6100843
  32.4287427  80.7879011  59.3749928  32.2175312  81.2151828  57.9380868
  26.8533612  62.9722540  59.2122728  26.9174939  63.8337371  58.8000126
  26.7900732  62.3596541  58.4795086  23.1051427  66.8522101  48.7914117
  23.4004869  65.9432780  48.7381171  22.2039463  66.8309841  48.4695119
  35.0137506  78.5729365  55.5964525  34.8888646  77.7719105  55.0875471
  35.6716597  79.0675559  55.1078495  26.6345674  64.9278098  54.7741666
  25.9132260  65.5414066  54.6349139  27.4238930  65.4635863  54.6958312
  24.8339269  64.5336199  48.9153442  24.5051975  63.6533578  48.7328548
  25.1878640  64.4783868  49.8029831  34.0818848  76.1691102  53.4248428
  33.9343810  75.2407809  53.6055998  34.9072341  76.1911192  52.9405503
  27.9481092  64.8209169  49.2828920  28.2877165  65.3495090  48.5607528
  28.3953213  65.1589575  50.0587486  29.9349239  63.3183790  47.4822213
  30.6557602  63.6965043  46.9785930  29.3114543  64.0372667  47.5857191
  28.8179584  66.9814653  54.9951290  28.6724164  67.2954956  55.8875571
  28.3404787  67.5999553  54.4422188  30.6775966  63.9717201  55.0432179
  30.6637535  63.0758294  54.7064477  31.3948395  63.9787864  55.6770465
  32.5302097  64.4054541  57.0885307  32.2719875  65.3271611  57.0869637
  31.9987138  64.0084975  57.7785771  23.2925246  69.5219997  57.9338951
  22.7478714  70.2979805  58.0659225  24.1704596  69.8690801  57.7758072
  30.0812862  62.8531581  50.3119749  30.2028774  61.9248227  50.5110637
  29.7914905  62.8670267  49.3998065  24.0791268  68.6489893  60.8269108
  23.3373004  68.7972529  61.4133738  23.7584012  68.9098159  59.9635857
  32.0234930  78.1905871  60.6249498  32.3322057  77.9455018  61.4972197
  32.8210412  78.3952510  60.1368368  32.0455542  80.3443781  52.8554874
  31.6060533  79.8520160  53.5487731  32.7963659  79.8016749  52.6146949
  24.5247881  76.5355322  52.8579502  25.3505901  76.2359094  52.4778146
  24.1741933  75.7662944  53.3069291  29.4929414  75.8881790  54.9277176
  28.8709424  75.2252495  54.6279404  30.1634281  75.9142922  54.2450824
  22.7256486  74.4541648  53.8168436  21.8888395  74.0263823  53.6352437
  22.6980132  74.6474092  54.7539227  29.0542921  74.4385714  48.4035636
  29.2031042  75.1221178  47.7502309  29.8609365  74.4190804  48.9185092
  26.8095554  70.4650891  49.4096705  26.5641596  69.5613221  49.6076915
  26.9791469  70.4668042  48.4676183  26.0791202  66.1979249  46.9082867
  25.3860447  66.2723604  46.2522903  25.8342954  65.4339592  47.4304384
  32.5538327  76.9333844  45.8747384  31.9812294  77.5524031  45.4217856
  33.1271121  77.4833206  46.4087306  38.6213717  66.1792484  58.0593933
  39.5731140  66.2790582  58.0806157  38.4517167  65.3870753  58.5692017
  35.7735587  77.2170994  47.0055966  36.7066260  77.1516556  47.2088842
  35.6858799  78.0527261  46.5470499  32.9385125  68.2694657  43.2163436
  33.8844230  68.1400865  43.2851854  32.5599370  67.5309319  43.6932864
  31.1228043  66.1944633  43.1518322  30.2159498  65.8977746  43.2281035
  31.4004024  65.8974451  42.2852608  22.0405983  67.5150997  53.6017368
  21.7208767  66.6616305  53.3091742  21.4939411  67.7299575  54.3575335
  25.8185890  70.2313438  57.3186874  26.0371900  71.1630545  57.3374908
  26.2311664  69.8721412  58.1041678  29.8926827  63.0531568  43.2930301
  30.7545991  63.3786467  43.5526118  30.0777171  62.2663064  42.7803367
  21.9094243  71.1353908  55.5710490  21.2157714  70.7207861  55.0580444
  22.6567234  71.1774445  54.9743908  23.8230985  71.0672162  53.4476504
  23.8001674  71.1659849  52.4958388  24.1331622  71.9137313  53.7693671
  26.4818363  73.1248317  57.5623119  27.4361617  73.0932259  57.4953050
  26.2830887  72.6638941  58.3773345  27.0717745  71.6949433  60.1293916
  27.8910634  72.1893512  60.1528754  27.3454553  70.7781401  60.1011484
  24.8368592  78.6667936  54.5793317  24.7023060  77.9068337  54.0131315
  24.4200654  79.3908836  54.1122106  35.9727555  73.8504860  43.5869892
  36.6763405  74.0554862  44.2027548  35.2490204  74.4181622  43.8518976
  27.9937718  79.5637253  54.7911759  27.8770102  80.5082686  54.6890450
  27.1730164  79.2610815  55.1797559  22.3252660  66.0287567  60.8286114
  22.9711523  65.5186521  61.3173339  22.1169811  66.7656248  61.4029539
  30.8456270  60.2927611  46.5810010  30.8334940  61.2369451  46.7378281
  31.7379692  60.1097757  46.2869471  29.0192232  80.2165515  58.0067688
  29.9219479  80.2489126  58.3234183  28.7929602  79.2865966  58.0214024
  30.7745834  78.9696502  54.6677766  29.8241465  78.9698363  54.5542139
  31.0778320  78.2229236  54.1513801  39.1775050  86.6119945  51.6581944
  38.6139915  86.5209882  50.8898232  39.0627445  85.7919849  52.1384437
  43.8008017  85.9119320  61.6271259  43.7896658  85.5172118  60.7551763
  43.9628656  85.1785393  62.2205030  36.7239482  88.1071136  54.4966165
  37.5160773  87.7661961  54.0812464  36.9636132  88.2166111  55.4168318
  44.7574608  90.2790912  46.9696409  44.1062588  90.8644993  46.5830423
  45.5518971  90.8097107  47.0291447  38.6830235  87.3680050  47.3683544
  39.4561111  86.8209037  47.2296419  39.0355634  88.2324299  47.5798005
  40.5215278  88.6956432  60.5750443  40.2305144  89.6002063  60.4597109
  41.1572262  88.7372959  61.2894513  41.4471485  86.0733280  57.1651803
  42.0435057  85.8489303  56.4508766  41.5046456  85.3318026  57.7677250
  41.0196513  83.5272716  45.0001994  41.2722034  83.0054237  44.2385457
  40.0821072  83.3638861  45.1028677  46.2349873  87.9681344  47.5065394
  45.5995706  88.0415971  48.2186298  45.9047280  88.5574943  46.8284473
  40.7392802  85.4300822  47.2026369  40.6229060  84.7545725  47.8707453
  40.8495062  84.9433196  46.3858522  43.0824343  84.8910969  50.9073058
  42.7182550  84.3641590  51.6185979  43.9391459  84.5009438  50.7339543
  38.9317645  84.8331644  53.6036941  38.0068141  84.7007858  53.8114633
  39.1802058  85.6125863  54.1006883  36.2926456  84.4764918  54.4380730
  36.4218837  84.7299397  55.3520142  35.6123907  85.0692626  54.1185385
  40.4625943  95.1462168  50.5371204  40.3849973  96.0969993  50.6159685
  39.8587586  94.8008040  51.1946131  41.2089545  85.1275486  62.7550538
  41.9504229  85.6660530  62.4785362  40.5026530  85.7541775  62.9122090
  42.5601661  87.5680226  52.3725074  43.0240007  87.8467929  51.5829696
  42.2958459  86.6663670  52.1898164  39.4525742  87.1151707  55.3104837
  40.0227099  87.5438976  54.6722321  40.0433854  86.8334292  56.0089023
  41.4970547  83.6903378  49.1814639  42.1994591  84.1424422  49.6488565
  41.1651176  83.0487197  49.8094532  35.2395881  81.9486931  54.4831772
  34.4494935  82.2044459  54.0071883  35.7307129  82.7635269  54.5883813
  37.1910627  82.3131510  51.4415249  36.3941790  82.4250204  51.9598745
  36.9636219  82.6518162  50.5756140  43.0216294  88.8376213  59.3897764
  43.0860727  89.2996620  60.2255936  42.3127218  88.2073578  59.5180074
  33.5233584  82.2017421  56.9146763  33.7741623  83.0864431  57.1804339
  34.0593133  82.0222023  56.1421855  42.7364312  90.5044321  49.2576744
  42.6009987  91.3495856  49.6861592  43.2774124  90.7063598  48.4942678
  36.1893709  88.0219759  49.8304669  36.7018230  88.8163009  49.9810234
  36.8416422  87.3246049  49.7638271  37.9988594  91.1385515  51.9127422
  38.1755222  92.0603480  51.7248406  38.7945427  90.8243934  52.3421802
  37.2840950  83.1850147  61.7889586  37.1694466  82.2835404  62.0896684
  36.4285468  83.4313844  61.4374402  44.3632788  91.1267887  63.3877086
  43.9196642  90.3404266  63.0697991  45.0250002  91.3147038  62.7220977
  39.1219909  92.6563689  57.9137765  39.6727334  92.5280752  57.1414759
  38.2831385  92.9558578  57.5632657  46.4614026  91.4070687  61.4158487
  46.4432502  92.2279568  60.9238757  47.3833946  91.2824762  61.6408629
  42.9187080  88.9214817  62.2581996  43.4515417  88.1603105  62.0281304
  42.3901162  88.6288468  63.0006150  34.1542626  86.3508413  50.6064240
  34.9917848  86.7605421  50.3897947  34.3320894  85.4107855  50.5764434
  44.2839793  88.0500809  49.7700808  43.7561155  87.3153569  49.4574045
  43.7827296  88.8275485  49.5240776  39.0158521  78.7120475  52.1307419
  39.5902273  78.4895657  51.3980612  39.6029503  78.7809170  52.8836021
  39.3428108  80.7424936  46.1503305  38.5065420  81.0799623  46.4712579
  39.2032877  80.6073916  45.2130442  42.4292393  85.8681019  42.7735781
  41.5219455  85.6370273  42.9726930  42.9263425  85.0718639  42.9609762
  45.3360472  94.5778526  45.6932467  44.6622171  94.8810223  46.3017425
  45.7226294  95.3807607  45.3437924  43.6080627  85.9693614  47.2959771
  42.6991846  85.6852647  47.3932241  43.6375711  86.3892693  46.4363078
  48.8399894  89.5800204  51.0650939  48.3862221  88.7391114  51.1216129
  48.2093861  90.2161602  51.4025719  47.2832833  91.4176700  52.0000757
  47.5755808  91.9781757  51.2813122  47.7931454  91.7105261  52.7553916
  34.1768797  83.6899128  51.2774973  33.9793197  83.0968489  50.5526040
  33.6215461  83.3851338  51.9950912  43.3056715  87.5102358  44.6347850
  42.8676144  86.7938217  44.1753487  44.0467155  87.7378473  44.0732941
  42.2466459  92.1957051  53.0894210  42.2042637  92.4217898  52.1602742
  43.1629157  91.9620426  53.2380011  40.3632259  89.0720080  52.8856173
  41.1572858  88.5770401  52.6838748  39.6523952  88.5437944  52.5223878
  45.1827104  91.4538176  57.2368540  45.2364126  92.0229112  58.0046256
  44.3141885  91.6240061  56.8722577  36.6715023  83.2163162  48.9615925
  35.7412611  83.1547618  49.1785887  36.7672495  82.6939115  48.1652567
  36.5900572  79.7417975  51.5494167  36.8507389  80.6563308  51.4403327
  37.4117744  79.2742418  51.6990780  38.0625497  81.1555732  58.7192991
  38.7348551  80.9473094  58.0705640  37.2355284  80.9577818  58.2798224
  42.9403535  89.6449102  56.5654010  42.8014621  89.2767887  57.4379948
  42.1518132  90.1596742  56.3937967  43.5351687  94.7458199  47.9079546
  43.7103443  94.2746242  48.7225169  42.8484475  95.3723965  48.1360807
  38.4652994  84.4298335  59.4795429  38.3272792  83.6978574  60.0806968
  39.3757918  84.3407235  59.1979616  41.0935295  84.1418294  58.9679108
  41.8034914  83.5011487  58.9265727  41.0504603  84.3931189  59.8905289
  38.1012773  97.8947562  54.6819406  38.3409371  98.5266086  55.3598425
  37.2581969  97.5435602  54.9684766  39.2166488  80.5872164  43.3501211
  38.3395954  80.4660965  42.9863458  39.6924241  79.7958242  43.0980100
  30.7368628  85.3749323  53.4442719  31.4239668  85.0611054  52.8563734
  30.5816757  86.2790688  53.1709970  35.5403350  80.2639520  57.8727742
  35.4561539  79.6565190  57.1378152  34.7186057  80.7548538  57.8737239
  42.6140634  93.7026684  57.0860910  42.5410806  94.5081656  57.5980215
  42.1718028  93.9018650  56.2608932  42.4030414  92.9398454  50.5963732
  41.6197936  93.4820134  50.6901956  43.1023159  93.4572434  50.9957973
  45.0739318  93.6013518  59.2419069  45.7867290  94.2360983  59.1694970
  44.5829347  93.6977384  58.4259071  40.1251232  91.3507962  60.0624640
  40.8260691  91.9844445  60.2154034  39.6546347  91.6922693  59.3020279
  48.2505627  89.6925911  48.3472547  48.5265471  89.5782506  49.2566421
  47.3810126  89.2943396  48.3084720  44.8859691  93.9412262  51.9905360
  45.0682086  93.1233918  52.4533113  45.7092677  94.1579954  51.5530250
  45.2201857  92.8680447  49.2520409  45.7489623  92.3572902  48.6390571
  45.4830076  92.5522978  50.1165942  35.7218950  90.8844317  56.9955743
  36.3072386  90.1388005  57.1283647  35.5243788  91.1948273  57.8792406
  38.5757605  93.9195564  52.0118185  37.9067980  94.4041692  51.5282225
  38.4370475  94.1664784  52.9261563  30.3136604  83.4549917  55.7160186
  30.3520704  82.9213508  56.5097304  29.8076897  82.9285122  55.0971163
  42.7162873  95.9539308  58.6100843  43.2681181  96.1170929  59.3749928
  43.0569067  96.5443745  57.9380868  33.9445182  82.1814019  48.7914117
  34.2398623  81.2724697  48.7381171  33.0433218  82.1601758  48.4695119
  45.8531261  93.9021283  55.5964525  45.7282400  93.1011023  55.0875471
  46.5110352  94.3967476  55.1078495  37.4739429  80.2570016  54.7741666
  36.7526015  80.8705983  54.6349139  38.2632685  80.7927780  54.6958312
  47.9166169  91.7030303  57.2244076  46.9696505  91.5835654  57.1522402
  48.2648942  90.8152801  57.3070337  35.6733024  79.8628117  48.9153442
  35.3445730  78.9825496  48.7328548  36.0272394  79.8075785  49.8029831
  44.9212602  91.4983019  53.4248428  44.7737565  90.5699727  53.6055998
  45.7466096  91.5203110  52.9405503  38.7874847  80.1501086  49.2828920
  39.1270919  80.6787008  48.5607528  39.2346967  80.4881493  50.0587486
  48.5246724  92.3211578  54.5113300  49.4493272  92.1154439  54.3737752
  48.3562028  92.0727979  55.4202642  41.4818287  78.5338137  58.7331988
  41.1415108  77.7345950  59.1352668  40.7757294  78.8339848  58.1608821
  40.7742994  78.6475708  47.4822213  41.4951356  79.0256961  46.9785930
  40.1508298  79.3664585  47.5857191  39.6573338  82.3106570  54.9951290
  39.5117919  82.6246873  55.8875571  39.1798542  82.9291471  54.4422188
  41.5169721  79.3009118  55.0432179  41.5031290  78.4050212  54.7064477
  42.2342149  79.3079782  55.6770465  43.3695852  79.7346458  57.0885307
  43.1113629  80.6563529  57.0869637  42.8380892  79.3376893  57.7785771
  48.3142040  92.8397246  49.8675392  48.4878918  92.2743668  49.1149244
  48.8070932  93.6398140  49.6854882  34.1319000  84.8511915  57.9338951
  33.5872468  85.6271723  58.0659225  35.0098350  85.1982719  57.7758072
  40.9206617  78.1823499  50.3119749  41.0422528  77.2540145  50.5110637
  40.6308659  78.1962184  49.3998065  49.3017213  92.1564010  46.9672290
  49.9968118  92.7770703  47.1859605  49.6440363  91.3059361  47.2424668
  34.9185022  83.9781811  60.8269108  34.1766758  84.1264446  61.4133738
  34.5977766  84.2390077  59.9635857  51.2008636  89.6063716  48.4959621
  51.7259960  89.9450988  47.7708941  51.1130989  88.6710731  48.3122756
  42.8628685  93.5197789  60.6249498  43.1715811  93.2746936  61.4972197
  43.6604167  93.7244428  60.1368368  42.8849297  95.6735699  52.8554874
  42.4454287  95.1812077  53.5487731  43.6357414  95.1308666  52.6146949
  35.3641636  91.8647240  52.8579502  36.1899656  91.5651012  52.4778146
  35.0135688  91.0954862  53.3069291  40.3323169  91.2173708  54.9277176
  39.7103178  90.5544413  54.6279404  41.0028036  91.2434840  54.2450824
  33.5650241  89.7833566  53.8168436  32.7282149  89.3555740  53.6352437
  33.5373886  89.9766009  54.7539227  39.8936676  89.7677631  48.4035636
  40.0424796  90.4513096  47.7502309  40.7003119  89.7482721  48.9185092
  53.7114296  87.0738907  53.8788139  54.5461188  87.5128711  54.0425700
  53.8473425  86.5977560  53.0596385  37.6489309  85.7942809  49.4096705
  37.4035351  84.8905139  49.6076915  37.8185223  85.7959959  48.4676183
  36.9184956  81.5271166  46.9082867  36.2254201  81.6015521  46.2522903
  36.6736708  80.7631510  47.4304384  43.3932081  92.2625762  45.8747384
  42.8206048  92.8815949  45.4217856  43.9664875  92.8125123  46.4087306
  46.6129341  92.5462912  47.0055966  47.5460014  92.4808473  47.2088842
  46.5252554  93.3819179  46.5470499  49.2417358  91.8628782  43.9659914
  49.1630989  91.5288646  44.8595672  50.0627025  92.3550550  43.9651386
  43.7778880  83.5986574  43.2163436  44.7237985  83.4692783  43.2851854
  43.3993125  82.8601236  43.6932864  43.6617572  87.6504321  64.6764093
  44.5820582  87.8282920  64.8704140  43.6267155  86.7060366  64.5243793
  41.9621797  81.5236551  43.1518322  41.0553252  81.2269664  43.2281035
  42.2397778  81.2266369  42.2852608  32.8799737  82.8442914  53.6017368
  32.5602522  81.9908222  53.3091742  32.3333166  83.0591492  54.3575335
  36.6579645  85.5605355  57.3186874  36.8765655  86.4922463  57.3374908
  37.0705419  85.2013330  58.1041678  32.7487997  86.4645826  55.5710490
  32.0551469  86.0499778  55.0580444  33.4960988  86.5066362  54.9743908
  41.3938780  84.5635700  65.5254685  40.9105862  85.3636060  65.7318574
  41.4799719  84.5743645  64.5722129  34.6624740  86.3964079  53.4476504
  34.6395428  86.4951767  52.4958388  34.9725376  87.2429230  53.7693671
  37.3212118  88.4540235  57.5623119  38.2755371  88.4224177  57.4953050
  37.1224641  87.9930858  58.3773345  37.9111500  87.0241351  60.1293916
  38.7304389  87.5185429  60.1528754  38.1848308  86.1073319  60.1011484
  35.6762347  93.9959854  54.5793317  35.5416815  93.2360255  54.0131315
  35.2594409  94.7200754  54.1122106  46.8121310  89.1796778  43.5869892
  47.5157160  89.3846780  44.2027548  46.0883958  89.7473539  43.8518976
  38.8331472  94.8929171  54.7911759  38.7163857  95.8374604  54.6890450
  38.0123919  94.5902733  55.1797559  48.7208007  89.6179307  45.6368352
  49.5553611  89.1860505  45.4545827  48.5592350  89.4461320  46.5645247
  33.1646414  81.3579484  60.8286114  33.8105278  80.8478438  61.3173339
  32.9563565  82.0948166  61.4029539  39.8585987  95.5457433  58.0067688
  40.7613233  95.5781043  58.3234183  39.6323357  94.6157884  58.0214024
  41.6139589  94.2988419  54.6677766  40.6635220  94.2990281  54.5542139
  41.9172075  93.5521154  54.1513801  57.3492282 100.1348958  55.7323529
  57.9870692 100.0155705  55.0286869  57.2313125 101.0829802  55.7911481
  54.1581988 100.0876386  55.6685053  53.8200500  99.9717451  54.7805588
  55.0271757  99.6867551  55.6486060  50.0168804 101.9411862  51.6581944
  49.4533669 101.8501799  50.8898232  49.9021199 101.1211767  52.1384437
  54.6401771 101.2411238  61.6271259  54.6290412 100.8464036  60.7551763
  54.8022411 100.5077310  62.2205030  47.5633236 103.4363054  54.4966165
  48.3554528 103.0953879  54.0812464  47.8029886 103.5458029  55.4168318
  55.5968363 105.6082830  46.9696409  54.9456343 106.1936910  46.5830423
  56.3912726 106.1389025  47.0291447  49.5223990 102.6971967  47.3683544
  50.2954866 102.1500954  47.2296419  49.8749389 103.5616217  47.5798005
  51.3609033 104.0248349  60.5750443  51.0698898 104.9293980  60.4597109
  51.9966017 104.0664877  61.2894513  52.2865239 101.4025198  57.1651803
  52.8828812 101.1781220  56.4508766  52.3440211 100.6609943  57.7677250
  51.8590268  98.8564633  45.0001994  52.1115788  98.3346155  44.2385457
  50.9214827  98.6930779  45.1028677  56.9033551  97.8600412  52.8076737
  57.6896640  97.4419835  52.4567154  57.1672255  98.7646504  52.9758385
  57.0743628 103.2973262  47.5065394  56.4389461 103.3707889  48.2186298
  56.7441034 103.8866861  46.8284473  62.3041978  97.7975645  53.7109715
  63.0367150  97.2274862  53.9447545  61.5481333  97.4097245  54.1516221
  51.5786557 100.7592739  47.2026369  51.4622815 100.0837643  47.8707453
  51.6888816 100.2725113  46.3858522  53.9218097 100.2202886  50.9073058
  53.5576305  99.6933507  51.6185979  54.7785213  99.8301355  50.7339543
  59.8267398  91.5097219  58.1704324  59.4950723  92.3792630  57.9465539
  59.2313011  91.1933503  58.8498354  53.5623584  95.2492786  45.9034406
  53.7297987  96.1173022  46.2704877  53.3720753  95.4120068  44.9795696
  56.3198918 103.7109765  57.5700237  56.0199641 104.6134804  57.4616044
  55.9749977 103.4441948  58.4221390  49.7711399 100.1623562  53.6036941
  48.8461896 100.0299776  53.8114633  50.0195812 100.9417781  54.1006883
  59.7196061  96.2292305  55.2497674  58.8112939  96.1607714  54.9556435
  59.6683657  96.7064250  56.0779499  53.5412805  97.7050444  46.8881073
  53.4212430  98.1507494  47.7266553  52.8465394  98.0535761  46.3294611
  47.1320210  99.8056835  54.4380730  47.2612591 100.0591314  55.3520142
  46.4517661 100.3984543  54.1185385  53.7936927  97.6481951  63.1932571
  53.0170261  98.2075871  63.1835436  54.4327490  98.1338734  63.7147441
  61.5857708  94.4308744  57.0275548  60.9432088  94.7241277  56.3815342
  61.0812636  94.3161664  57.8328745  59.2397871  98.1771917  47.7161407
  60.1515728  98.4099304  47.5409105  58.7307519  98.7608961  47.1536486
  52.0483299 100.4567404  62.7550538  52.7897984 100.9952448  62.4785362
  51.3420285 101.0833693  62.9122090  57.5238639 102.5996545  61.3522700
  57.9321995 102.1578955  60.6077332  56.8015901 102.0249172  61.6056893
  53.8769709  97.5369151  58.7256257  54.7230904  97.9608565  58.8690906
  53.8168347  96.8802776  59.4194820  57.8467454 103.1597735  55.1074989
  57.2176316 103.3243449  54.4051056  57.4593116 103.5739345  55.8785953
  61.7256686 104.0952173  52.4619352  61.0407724 104.4751074  51.9116386
  61.8100535 104.7047500  53.1951300  57.0269154  95.1973520  60.3837430
  56.7830086  95.9515580  59.8471706  57.3029085  95.5758867  61.2184677
  58.9807617 101.7412132  59.0614696  59.1924512 102.3843892  58.3849077
  58.9337366 100.9074449  58.5936626  56.5833846  94.3529953  55.9651268
  55.7218325  94.6511206  56.2568006  56.6096281  94.5700352  55.0332301
  53.3995416 102.8972143  52.3725074  53.8633761 103.1759846  51.5829696
  53.1352214 101.9955588  52.1898164  50.2919497 102.4443625  55.3104837
  50.8620854 102.8730893  54.6722321  50.8827609 102.1626210  56.0089023
  52.3364302  99.0195296  49.1814639  53.0388345  99.4716339  49.6488565
  52.0044930  98.3779115  49.8094532  50.7844663  97.6107052  63.5565848
  50.1543324  98.2923333  63.7901245  50.6780751  97.4990134  62.6118987
  46.0789636  97.2778848  54.4831772  45.2888690  97.5336377  54.0071883
  46.5700883  98.0927186  54.5883813  60.0953445 104.6184088  57.2337053
  60.9170889 104.2164275  56.9519735  60.0915848 104.5152322  58.1853169
  48.0304381  97.6423428  51.4415249  47.2335544  97.7542122  51.9598745
  47.8029973  97.9810080  50.5756140  53.8610049 104.1668131  59.3897764
  53.9254481 104.6288538  60.2255936  53.1520973 103.5365496  59.5180074
  44.3627339  97.5309339  56.9146763  44.6135377  98.4156349  57.1804339
  44.8986887  97.3513940  56.1421855  68.1859438 100.9622836  53.5822025
  67.4323147 100.3930234  53.4266029  68.3206979 100.9285500  54.5292659
  53.5758066 105.8336238  49.2576744  53.4403741 106.6787774  49.6861592
  54.1167879 106.0355516  48.4942678  47.0287464 103.3511676  49.8304669
  47.5411984 104.1454927  49.9810234  47.6810177 102.6537967  49.7638271
  48.8382348 106.4677433  51.9127422  49.0148977 107.3895397  51.7248406
  49.6339182 106.1535852  52.3421802  52.9793367  93.3285697  63.5111356
  53.7203080  93.9292850  63.4315818  53.2111290  92.5863335  62.9529398
  48.1234705  98.5142065  61.7889586  48.0088220  97.6127322  62.0896684
  47.2679223  98.7605761  61.4374402  55.2026543 106.4559805  63.3877086
  54.7590397 105.6696183  63.0697991  55.8643756 106.6438955  62.7220977
  49.9613664 107.9855606  57.9137765  50.5121089 107.8572670  57.1414759
  49.1225140 108.2850495  57.5632657  57.3007781 106.7362605  61.4158487
  57.2826256 107.5571486  60.9238757  58.2227701 106.6116680  61.6408629
  53.7580835 104.2506734  62.2581996  54.2909172 103.4895022  62.0281304
  53.2294916 103.9580386  63.0006150  44.9936380 101.6800331  50.6064240
  45.8311602 102.0897339  50.3897947  45.1714648 100.7399773  50.5764434
  56.8900813  99.3475411  46.2948073  56.3747436 100.1180016  46.5336460
  56.6178121  98.6740547  46.9181134  54.4747924  94.1925112  51.3533311
  53.6189520  93.8031962  51.1738950  54.8874875  94.2717073  50.4933097
  56.0047070  91.7271455  55.7524871  55.5011866  91.6901590  54.9392676
  56.2977677  92.6364198  55.8121527  52.2489956  91.8110185  54.7591053
  53.1142953  91.6152994  54.3996942  52.3167465  91.5820537  55.6860409
  61.8635087 102.1007766  48.2301246  61.0864529 101.7618925  47.7856408
  62.5426568 102.1060389  47.5556211  56.6787116  97.2202503  48.1207854
  56.3737251  97.5348653  48.9717997  57.6317558  97.2983923  48.1635187
  55.1233548 103.3792727  49.7700808  54.5954909 102.6445486  49.4574045
  54.6221050 104.1567403  49.5240776  60.1026394 101.5741747  54.8867854
  59.4450068 102.2641009  54.9747983  60.9066793 101.9638179  55.2301840
  49.8552275  94.0412393  52.1307419  50.4296027  93.8187574  51.3980612
  50.4423258  94.1101087  52.8836021  58.9131852  99.9286120  52.9371796
  59.4263734 100.5616112  53.4393506  59.5633076  99.3287315  52.5715156
  50.1821862  96.0716854  46.1503305  49.3459175  96.4091541  46.4712579
  50.0426632  95.9365834  45.2130442  52.1574943  90.9153642  50.8582489
  51.5039355  90.6002659  50.2339104  52.1155417  90.2929382  51.5842312
  53.2686148 101.1972937  42.7735781  52.3613210 100.9662190  42.9726930
  53.7657180 100.4010556  42.9609762  56.1754227 109.9070444  45.6932467
  55.5015925 110.2102141  46.3017425  56.5620049 110.7099524  45.3437924
  55.3912683  97.4035575  55.1830136  54.4735245  97.6250522  55.0251824
  55.8072827  97.4781886  54.3241844  56.1747731  98.8026991  50.3132817
  56.9219550  99.3148388  50.0039939  56.4439321  98.4811044  51.1737210
  54.4474381 101.2985532  47.2959771  53.5385600 101.0144565  47.3932241
  54.4769465 101.7184610  46.4363078  59.6793649 104.9092121  51.0650939
  59.2255976 104.0683031  51.1216129  59.0487615 105.5453520  51.4025719
  58.6226568  95.8384107  52.2951606  57.8849325  95.3261494  52.6261849
  58.8753342  95.3984489  51.4834883  58.1226588 106.7468618  52.0000757
  58.4149562 107.3073675  51.2813122  58.6325208 107.0397179  52.7553916
  58.7238196  88.6160359  52.8893375  59.0297072  87.7557723  52.6019290
  59.4490800  89.2077980  52.6892369  45.0162552  99.0191046  51.2774973
  44.8186951  98.4260407  50.5526040  44.4609216  98.7143256  51.9950912
  52.9959275  98.9114152  53.3969566  53.0507885  97.9587989  53.3212043
  52.1850477  99.0673592  53.8810865  54.1450469 102.8394276  44.6347850
  53.7069899 102.1230134  44.1753487  54.8860910 103.0670390  44.0732941
  50.9351635  97.5291212  51.1559945  50.1219501  97.8285383  51.5625137
  51.4310629  97.1346901  51.8734427  53.0860213 107.5248969  53.0894210
  53.0436392 107.7509815  52.1602742  54.0022912 107.2912344  53.2380011
  56.5325847  97.9933037  59.9874839  56.8875235  98.2204510  60.8469305
  57.1797978  98.3251413  59.3652094  62.2623584 101.1151473  50.6924168
  62.1241482 101.3053069  49.7645357  61.9059803 101.8770855  51.1492219
  50.4265710  95.1009568  56.7721180  51.0665089  94.9598327  56.0744143
  49.5943241  94.8144081  56.3959782  62.2892963 103.1828000  55.7035440
  62.7229470 103.0903289  56.5518494  63.0024544 103.1585500  55.0655456
  51.2026014 104.4011998  52.8856173  51.9966612 103.9062318  52.6838748
  50.4917706 103.8729861  52.5223878  56.0220858 106.7830094  57.2368540
  56.0757881 107.3521030  58.0046256  55.1535640 106.9531979  56.8722577
  47.5108777  98.5455080  48.9615925  46.5806365  98.4839535  49.1785887
  47.6066249  98.0231033  48.1652567  47.4294326  95.0709893  51.5494167
  47.6901144  95.9855226  51.4403327  48.2511499  94.6034335  51.6990780
  48.9019252  96.4847650  58.7192991  49.5742305  96.2765012  58.0705640
  48.0749038  96.2869736  58.2798224  63.1508513 103.2251700  58.2368325
  63.3444403 104.1297511  58.4827600  63.0509131 102.7659119  59.0706910
  54.8044824  93.1109591  60.7358652  54.1572739  93.8099540  60.6423129
  55.5745839  93.5445735  61.1034901  58.2123622 103.3758443  63.8109206
  58.0609128 103.1468995  62.8939289  58.2028301 104.3329044  63.8240551
  54.9808958 100.9490356  58.7955472  55.9101018 101.1001515  58.6224439
  54.5599988 101.0374376  57.9404119  53.7797290 104.9741020  56.5654010
  53.6408376 104.6059805  57.4379948  52.9911886 105.4888660  56.3937967
  54.3745442 110.0750117  47.9079546  54.5497198 109.6038160  48.7225169
  53.6878230 110.7015883  48.1360807  55.3302505 104.3522623  53.9542847
  54.9952338 104.3123393  54.8500497  54.8306451 103.6867339  53.4813258
  49.3046749  99.7590253  59.4795429  49.1666547  99.0270492  60.0806968
  50.2151672  99.6699153  59.1979616  58.2661697 101.6978657  44.2279907
  57.6490867 100.9725485  44.1312960  57.7978185 102.4588017  43.8846981
  51.9329050  99.4710212  58.9679108  52.6428668  98.8303404  58.9265727
  51.8898358  99.7223107  59.8905289  59.9215828 106.4077565  61.8885687
  59.8628374 105.7236786  61.2216270  60.3235347 107.1496556  61.4366313
  50.6457984  96.4575430  60.7874748  50.1095341  96.0066168  61.4396344
  50.0574692  96.5921339  60.0445212  50.0560243  95.9164081  43.3501211
  49.1789709  95.7952882  42.9863458  50.5317996  95.1250160  43.0980100
  59.9233236 104.3717149  60.1199667  59.0360014 104.0343071  60.2426066
  60.4931787 103.6400181  60.3568433  41.5762383 100.7041241  53.4442719
  42.2633423 100.3902971  52.8563734  41.4210511 101.6082606  53.1709970
  46.3797105  95.5931438  57.8727742  46.2955294  94.9857107  57.1378152
  45.5579811  96.0840456  57.8737239  53.4534389 109.0318602  57.0860910
  53.3804560 109.8373573  57.5980215  53.0111782 109.2310568  56.2608932
  53.2424169 108.2690372  50.5963732  52.4591690 108.8112052  50.6901956
  53.9416914 108.7864351  50.9957973  56.5520819  94.0785001  53.2397937
  57.0489518  93.3254964  52.9199008  55.7807800  94.1149318  52.6741147
  64.4050576  99.7825367  54.8816229  64.3940452 100.6650082  54.5110162
  63.5367956  99.4296918  54.6870766  55.9133072 108.9305436  59.2419069
  56.6261045 109.5652901  59.1694970  55.4223101 109.0269302  58.4259071
  57.6350599 102.8356688  50.8136361  56.7006878 102.9558151  50.6441065
  57.8127268 101.9329155  50.5496371  53.1355787  96.2202384  52.9669622
  52.7653575  95.6673425  53.6550527  53.6314880  95.6160518  52.4144622
  61.0223151  98.6774008  51.3486395  61.4883603  99.5101999  51.2746697
  61.4730651  98.2118989  52.0531653  50.9644986 106.6799879  60.0624640
  51.6654446 107.3136362  60.2154034  50.4940101 107.0214611  59.3020279
  59.0899382 105.0217829  48.3472547  59.3659226 104.9074424  49.2566421
  58.2203881 104.6235314  48.3084720  58.9939813  91.0454595  55.3877296
  58.0802893  91.2758822  55.5559503  59.4232915  91.1293039  56.2391329
  58.7646272  99.2344487  57.8877190  58.1117722  99.4820394  57.2329643
  59.1426652  98.4208625  57.5539667  55.7253446 109.2704180  51.9905360
  55.9075840 108.4525836  52.4533113  56.5486432 109.4871872  51.5530250
  56.0595611 108.1972365  49.2520409  56.5883378 107.6864820  48.6390571
  56.3223831 107.8814895  50.1165942  54.8133845  99.9764298  64.3743227
  54.1374482  99.8758427  65.0445602  55.6361479  99.8203512  64.8379224
  46.5612704 106.2136234  56.9955743  47.1466141 105.4679922  57.1283647
  46.3637543 106.5240191  57.8792406  41.1530359  98.7841835  55.7160186
  41.1914458  98.2505425  56.5097304  40.6470652  98.2577040  55.0971163
  48.5321121  93.6306375  59.2122728  48.5962448  94.4921206  58.8000126
  48.4688241  93.0180377  58.4795086  48.0073394  95.7029508  62.8595762
  48.6345432  95.3206585  63.4733287  47.1501313  95.4843710  63.2251455
  58.4067502 106.1092483  64.4649498  58.9507406 106.7222441  63.9704452
  57.8254347 106.6672061  64.9816511  44.7838936  97.5105937  48.7914117
  45.0792377  96.6016615  48.7381171  43.8826972  97.4893676  48.4695119
  56.6925015 109.2313201  55.5964525  56.5676155 108.4302941  55.0875471
  57.3504106 109.7259394  55.1078495  48.3133183  95.5861933  54.7741666
  47.5919769  96.1997901  54.6349139  49.1026439  96.1219698  54.6958312
  58.7559924 107.0322221  57.2244076  57.8090259 106.9127572  57.1522402
  59.1042697 106.1444719  57.3070337  51.1159497  92.9216360  61.0482317
  51.6393899  93.1678656  61.8108627  50.8971830  93.7536395  60.6285455
  46.5126778  95.1920034  48.9153442  46.1839484  94.3117413  48.7328548
  46.8666149  95.1367703  49.8029831  55.7606357 106.8274937  53.4248428
  55.6131319 105.8991644  53.6055998  56.5859850 106.8495028  52.9405503
  49.6268601  95.4793004  49.2828920  49.9664674  96.0078925  48.5607528
  50.0740722  95.8173410  50.0587486  59.3640479 107.6503496  54.5113300
  60.2887026 107.4446357  54.3737752  59.1955782 107.4019897  55.4202642
  52.3212042  93.8630055  58.7331988  51.9808862  93.0637868  59.1352668
  51.6151048  94.1631766  58.1608821  52.9728514  90.9479367  57.1859311
  53.7954583  90.4739845  57.0638201  53.2166577  91.7269851  57.6857997
  51.6136748  93.9767626  47.4822213  52.3345111  94.3548879  46.9785930
  50.9902052  94.6956503  47.5857191  55.7567871  94.6812775  48.4180545
  55.9731486  95.5637413  48.1169373  55.2761938  94.2898988  47.6886187
  50.4967093  97.6398488  54.9951290  50.3511673  97.9538791  55.8875571
  50.0192296  98.2583388  54.4422188  52.3563475  94.6301036  55.0432179
  52.3425044  93.7342129  54.7064477  53.0735904  94.6371700  55.6770465
  54.2089606  95.0638376  57.0885307  53.9507384  95.9855447  57.0869637
  53.6774647  94.6668811  57.7785771  59.1535795 108.1689163  49.8675392
  59.3272672 107.6035586  49.1149244  59.6464686 108.9690058  49.6854882
  44.9712755 100.1803832  57.9338951  44.4266223 100.9563640  58.0659225
  45.8492105 100.5274637  57.7758072  51.7600371  93.5115416  50.3119749
  51.8816283  92.5832062  50.5110637  51.4702414  93.5254102  49.3998065
  54.6291562  91.1970327  53.4486469  54.6513259  91.2609660  52.4938449
  55.0459621  90.3574835  53.6426975  65.0075186 100.9325586  51.4865692
  65.4506332 100.1832911  51.0884815  64.1301696 100.9235723  51.1039424
  60.1410967 107.4855928  46.9672290  60.8361872 108.1062620  47.1859605
  60.4834118 106.6351279  47.2424668  45.7578777  99.3073729  60.8269108
  45.0160513  99.4556364  61.4133738  45.4371521  99.5681994  59.9635857
  62.0402391 104.9355633  48.4959621  62.5653715 105.2742906  47.7708941
  61.9524743 104.0002649  48.3122756  53.7022439 108.8489707  60.6249498
  54.0109566 108.6038854  61.4972197  54.4997921 109.0536345  60.1368368
  53.7243051 111.0027616  52.8554874  53.2848042 110.5103995  53.5487731
  54.4751168 110.4600584  52.6146949  46.2035390 107.1939157  52.8579502
  47.0293410 106.8942929  52.4778146  45.8529442 106.4246780  53.3069291
  51.1716923 106.5465626  54.9277176  50.5496933 105.8836331  54.6279404
  51.8421790 106.5726757  54.2450824  44.4043995 105.1125484  53.8168436
  43.5675904 104.6847658  53.6352437  44.3767641 105.3057927  54.7539227
  51.2441451  95.0247414  64.5209682  51.2929606  95.9009536  64.1387451
  51.7863965  94.4824807  63.9481325  61.7296297 105.5688537  63.8010819
  60.9391840 105.5512676  63.2615318  61.4929651 106.1076831  64.5559856
  61.8494172 102.4181003  61.1143547  61.8992177 102.2531011  62.0559070
  61.7408095 101.5508262  60.7241428  50.7330430 105.0969549  48.4035636
  50.8818551 105.7805013  47.7502309  51.5396874 105.0774639  48.9185092
  59.1397934  98.4011931  62.4302854  60.0407797  98.2618396  62.1386852
  59.2145909  98.5666386  63.3701032  53.4740739  95.7778786  61.2756041
  52.6044049  96.0712352  61.0038629  53.7100220  96.3619231  61.9963304
  63.3512368 104.8377945  61.3585569  63.0597177 105.2007925  62.1949030
  62.7384500 104.1244953  61.1798901  64.5508051 102.4030824  53.8788139
  65.3854942 102.8420629  54.0425700  64.6867180 101.9269478  53.0596385
  61.5999557  99.9610559  59.8265627  62.0753678 100.1538206  59.0184478
  60.6765122 100.0169745  59.5809011  48.4883063 101.1234727  49.4096705
  48.2429105 100.2197057  49.6076915  48.6578978 101.1251877  48.4676183
  56.1779773  91.9958403  58.7921461  56.6961717  92.7319430  58.4667949
  55.8234906  92.3022396  59.6268220  47.7578711  96.8563084  46.9082867
  47.0647956  96.9307439  46.2522903  47.5130463  96.0923428  47.4304384
  56.4292367  88.4158685  54.3122358  56.7094121  87.7481874  54.9382784
  57.2142974  88.6087781  53.7997021  54.2325836 107.5917679  45.8747384
  53.6599803 108.2107866  45.4217856  54.8058630 108.1417041  46.4087306
  60.3001226  96.8376319  58.0593933  61.2518649  96.9374417  58.0806157
  60.1304676  96.0454588  58.5692017  58.3215605  93.9231903  58.2453334
  57.7265537  94.2036915  57.5499822  58.0365302  94.4125804  59.0170075
  57.4523096 107.8754829  47.0055966  58.3853769 107.8100391  47.2088842
  57.3646308 108.7111096  46.5470499  60.0811112 107.1920700  43.9659914
  60.0024744 106.8580563  44.8595672  60.9020779 107.6842468  43.9651386
  62.7789303 100.0582439  57.1736232  62.7465624  99.1198440  57.3595916
  63.3889927 100.1366476  56.4402057  54.6172634  98.9278492  43.2163436
  55.5631739  98.7984700  43.2851854  54.2386879  98.1893154  43.6932864
  62.9283792  96.8493483  57.2194515  62.4122841  96.0651939  57.0324444
  63.8123740  96.5212199  57.3841035  60.5894519  90.5934498  53.1790328
  60.3919340  90.2849586  54.0633660  61.1994224  91.3196137  53.3088258
  68.5965853 101.1198446  56.3142269  69.3269242 100.8583734  56.8749972
  67.9872799 100.3827168  56.3544337  66.6781150  99.2606309  56.9116720
  65.9514314  99.1262273  56.3033212  66.2628437  99.5683137  57.7173438
  54.5011327 102.9796238  64.6764093  55.4214336 103.1574837  64.8704140
  54.4660910 102.0352284  64.5243793  52.8015552  96.8528468  43.1518322
  51.8947007  96.5561581  43.2281035  53.0791533  96.5558287  42.2852608
  43.7193492  98.1734832  53.6017368  43.3996276  97.3200140  53.3091742
  43.1726920  98.3883410  54.3575335  47.4973399 100.8897273  57.3186874
  47.7159409 101.8214381  57.3374908  47.9099173 100.5305247  58.1041678
  54.4177617  91.3965358  49.3062563  53.6078346  91.0512443  49.6817809
  55.1062034  91.0872902  49.8950174  56.3468166  90.4743405  50.9286859
  56.8999204  90.8938858  51.5876883  56.5838252  89.5479153  50.9709815
  52.3701265  96.4630479  66.7089623  52.2697992  97.4124836  66.6401714
  52.1522807  96.1348718  65.8365693  51.5714336  93.7115404  43.2930301
  52.4333500  94.0370302  43.5526118  51.7564680  92.9246900  42.7803367
  43.5881752 101.7937743  55.5710490  42.8945223 101.3791696  55.0580444
  44.3354743 101.8358280  54.9743908  59.7246973  92.5843930  50.4365524
  59.1445642  93.2428734  50.0543576  59.4582905  91.7621275  50.0252941
  58.1750539  91.9848988  52.6386844  58.6750317  92.0965522  51.8301163
  58.8186147  91.6810041  53.2787653  52.2332535  99.8927617  65.5254685
  51.7499617 100.6927978  65.7318574  52.3193474  99.9035562  64.5722129
  45.5018494 101.7255997  53.4476504  45.4789183 101.8243684  52.4958388
  45.8119131 102.5721148  53.7693671  48.1605872 103.7832152  57.5623119
  49.1149126 103.7516095  57.4953050  47.9618396 103.3222776  58.3773345
  48.7505254 102.3533268  60.1293916  49.5698143 102.8477347  60.1528754
  49.0242062 101.4365236  60.1011484  58.5071851  94.7444021  49.4921872
  57.6197706  95.0293671  49.2742067  58.9225840  94.5837784  48.6449149
  61.8586387  94.7690542  53.2076211  62.6346777  95.2586994  53.4800828
  61.1334521  95.1948596  53.6648081  64.2958945  95.4818161  54.2650152
  64.8903436  95.2413897  53.5543460  64.3685529  94.7625291  54.8923688
  57.6515064 104.5088695  43.5869892  58.3550914 104.7138698  44.2027548
  56.9277713 105.0765457  43.8518976  58.4812874 100.2598556  49.7072162
  58.4248076 100.7167108  48.8679795  59.0341217  99.4989241  49.5295005
  62.2917680  96.0488288  50.5322282  62.0354615  95.6484924  51.3630489
  61.6670548  96.7632082  50.4072421  66.6030018  98.7884362  53.0393573
  66.0429576  98.8577551  53.8125135  65.9973521  98.6125346  52.3193069
  59.5601761 104.9471224  45.6368352  60.3947365 104.5152423  45.4545827
  59.3986104 104.7753238  46.5645247  59.2147654 101.4503338  47.0024691
  59.1596457 101.2847609  46.0613135  58.5893709 102.1579371  47.1586881
  44.0040169  96.6871402  60.8286114  44.6499032  96.1770356  61.3173339
  43.7957320  97.4240084  61.4029539  56.5293561 103.7552250  66.3278254
  57.3984720 103.9292902  65.9664889  56.0500312 104.5746666  66.2053983
  52.5243779  90.9511447  46.5810010  52.5122449  91.8953287  46.7378281
  53.4167201  90.7681592  46.2869471  52.4533343 109.6280337  54.6677766
  51.5028974 109.6282199  54.5542139  52.7565829 108.8813072  54.1513801
  56.3395899  87.5454223  50.8355947  55.5728294  86.9912710  50.9812629
  56.7506604  87.6176092  51.6970098  48.3437660  93.8339019  64.9261128
  49.2069121  93.4775824  65.1364452  47.7703070  93.4952914  65.6136532
  62.6984022 114.1856551  45.0001994  62.9509543 113.6638072  44.2385457
  61.7608581 114.0222696  45.1028677  67.7427305 113.1892329  52.8076737
  68.5290394 112.7711753  52.4567154  68.0066009 114.0938422  52.9758385
  73.1435732 113.1267563  53.7109715  73.8760904 112.5566779  53.9447545
  72.3875088 112.7389163  54.1516221  70.6661153 106.8389137  58.1704324
  70.3344477 107.7084548  57.9465539  70.0706766 106.5225421  58.8498354
  64.4017339 110.5784704  45.9034406  64.5691741 111.4464940  46.2704877
  64.2114508 110.7411985  44.9795696  70.5589816 111.5584223  55.2497674
  69.6506693 111.4899631  54.9556435  70.5077412 112.0356168  56.0779499
  64.3806560 113.0342361  46.8881073  64.2606185 113.4799412  47.7266553
  63.6859148 113.3827679  46.3294611  64.6330682 112.9773868  63.1932571
  63.8564016 113.5367789  63.1835436  65.2721245 113.4630651  63.7147441
  72.4251462 109.7600661  57.0275548  71.7825843 110.0533194  56.3815342
  71.9206391 109.6453582  57.8328745  70.0791626 113.5063834  47.7161407
  70.9909482 113.7391221  47.5409105  69.5701273 114.0900879  47.1536486
  64.7163464 112.8661069  58.7256257  65.5624659 113.2900483  58.8690906
  64.6562101 112.2094693  59.4194820  67.8662909 110.5265437  60.3837430
  67.6223841 111.2807498  59.8471706  68.1422839 110.9050785  61.2184677
  67.4227601 109.6821870  55.9651268  66.5612080 109.9803124  56.2568006
  67.4490035 109.8992269  55.0332301  63.1758056 114.3487213  49.1814639
  63.8782100 114.8008257  49.6488565  62.8438685 113.7071032  49.8094532
  61.6238418 112.9398970  63.5565848  60.9937078 113.6215251  63.7901245
  61.5174506 112.8282052  62.6118987  60.9019160 107.2419736  65.9191099
  60.5086106 106.6885934  66.5938744  61.7185301 107.5530314  66.3097617
  63.8187121 108.6577615  63.5111356  64.5596835 109.2584768  63.4315818
  64.0505044 107.9155253  62.9529398  67.7644284 104.6858718  57.7875638
  67.4208554 105.5760360  57.7114748  68.1323247 104.4960375  56.9245223
  67.7294567 114.6767329  46.2948073  67.2141191 115.4471934  46.5336460
  67.4571876 114.0032465  46.9181134  65.3141678 109.5217030  51.3533311
  64.4583274 109.1323880  51.1738950  65.7268630 109.6008991  50.4933097
  66.8440825 107.0563373  55.7524871  66.3405620 107.0193508  54.9392676
  67.1371432 107.9656116  55.8121527  63.0883711 107.1402103  54.7591053
  63.9536707 106.9444911  54.3996942  63.1561220 106.9112455  55.6860409
  67.5180870 112.5494421  48.1207854  67.2131006 112.8640570  48.9717997
  68.4711312 112.6275841  48.1635187  60.6946030 109.3704311  52.1307419
  61.2689782 109.1479492  51.3980612  61.2817012 109.4393005  52.8836021
  69.7525607 115.2578038  52.9371796  70.2657489 115.8908029  53.4393506
  70.4026831 114.6579233  52.5715156  61.0215617 111.4008772  46.1503305
  60.1852929 111.7383458  46.4712579  60.8820386 111.2657751  45.2130442
  62.9968697 106.2445560  50.8582489  62.3433110 105.9294577  50.2339104
  62.9549172 105.6221300  51.5842312  66.2306438 112.7327493  55.1830136
  65.3128999 112.9542440  55.0251824  66.6466581 112.8073804  54.3241844
  67.0141486 114.1318909  50.3132817  67.7613304 114.6440306  50.0039939
  67.2833075 113.8102962  51.1737210  69.4620323 111.1676025  52.2951606
  68.7243079 110.6553411  52.6261849  69.7147096 110.7276407  51.4834883
  69.5631950 103.9452277  52.8893375  69.8690827 103.0849640  52.6019290
  70.2884555 104.5369897  52.6892369  63.8353030 114.2406070  53.3969566
  63.8901640 113.2879907  53.3212043  63.0244232 114.3965509  53.8810865
  61.7745390 112.8583130  51.1559945  60.9613255 113.1577300  51.5625137
  62.2704384 112.4638819  51.8734427  67.3719601 113.3224954  59.9874839
  67.7268989 113.5496427  60.8469305  68.0191733 113.6543331  59.3652094
  73.1017338 116.4443390  50.6924168  72.9635237 116.6344986  49.7645357
  72.7453557 117.2062773  51.1492219  61.2659464 110.4301485  56.7721180
  61.9058844 110.2890244  56.0744143  60.4336995 110.1435999  56.3959782
  58.2688081 110.4001810  51.5494167  58.5294898 111.3147144  51.4403327
  59.0905253 109.9326253  51.6990780  59.7413006 111.8139568  58.7192991
  60.4136060 111.6056930  58.0705640  58.9142793 111.6161654  58.2798224
  65.6438578 108.4401508  60.7358652  64.9966493 109.1391458  60.6423129
  66.4139594 108.8737652  61.1034901  61.4851738 111.7867348  60.7874748
  60.9489095 111.3358086  61.4396344  60.8968447 111.9213257  60.0445212
  60.8953997 111.2455999  43.3501211  60.0183463 111.1244800  42.9863458
  61.3711750 110.4542077  43.0980100  57.2190859 110.9223355  57.8727742
  57.1349048 110.3149025  57.1378152  56.3973566 111.4132374  57.8737239
  67.3914573 109.4076919  53.2397937  67.8883273 108.6546881  52.9199008
  66.6201555 109.4441236  52.6741147  63.9749542 111.5494302  52.9669622
  63.6047329 110.9965342  53.6550527  64.4708634 110.9452435  52.4144622
  71.8616905 114.0065925  51.3486395  72.3277357 114.8393917  51.2746697
  72.3124406 113.5410907  52.0531653  69.8333568 106.3746512  55.3877296
  68.9196648 106.6050739  55.5559503  70.2626669 106.4584957  56.2391329
  69.6040026 114.5636404  57.8877190  68.9511477 114.8112312  57.2329643
  69.9820406 113.7500543  57.5539667  65.6527600 115.3056215  64.3743227
  64.9768237 115.2050345  65.0445602  66.4755233 115.1495429  64.8379224
  59.3714876 108.9598293  59.2122728  59.4356202 109.8213124  58.8000126
  59.3081996 108.3472294  58.4795086  58.8467148 111.0321425  62.8595762
  59.4739187 110.6498503  63.4733287  57.9895067 110.8135627  63.2251455
  59.1526938 110.9153851  54.7741666  58.4313524 111.5289819  54.6349139
  59.9420194 111.4511616  54.6958312  61.9553251 108.2508277  61.0482317
  62.4787653 108.4970574  61.8108627  61.7365585 109.0828312  60.6285455
  57.3520532 110.5211952  48.9153442  57.0233239 109.6409331  48.7328548
  57.7059903 110.4659621  49.8029831  60.4662356 110.8084922  49.2828920
  60.8058428 111.3370843  48.5607528  60.9134476 111.1465328  50.0587486
  63.1605796 109.1921973  58.7331988  62.8202617 108.3929786  59.1352668
  62.4544803 109.4923683  58.1608821  63.8122268 106.2771285  57.1859311
  64.6348338 105.8031763  57.0638201  64.0560332 107.0561769  57.6857997
  62.4530503 109.3059543  47.4822213  63.1738865 109.6840796  46.9785930
  61.8295807 110.0248420  47.5857191  66.5961626 110.0104692  48.4180545
  66.8125240 110.8929330  48.1169373  66.1155693 109.6190906  47.6886187
  61.3360847 112.9690406  54.9951290  61.1905428 113.2830709  55.8875571
  60.8586051 113.5875306  54.4422188  63.1957230 109.9592954  55.0432179
  63.1818799 109.0634047  54.7064477  63.9129658 109.9663617  55.6770465
  65.0483361 110.3930294  57.0885307  64.7901138 111.3147364  57.0869637
  64.5168401 109.9960728  57.7785771  62.5994126 108.8407334  50.3119749
  62.7210037 107.9123980  50.5110637  62.3096168 108.8546020  49.3998065
  65.4685316 106.5262244  53.4486469  65.4907013 106.5901577  52.4938449
  65.8853375 105.6866753  53.6426975  62.0835205 110.3539331  64.5209682
  62.1323361 111.2301454  64.1387451  62.6257720 109.8116724  63.9481325
  69.9791689 113.7303849  62.4302854  70.8801551 113.5910314  62.1386852
  70.0539663 113.8958304  63.3701032  64.3134494 111.1070704  61.2756041
  63.4437803 111.4004270  61.0038629  64.5493974 111.6911149  61.9963304
  72.4393311 115.2902477  59.8265627  72.9147433 115.4830123  59.0184478
  71.5158877 115.3461663  59.5809011  67.0173528 107.3250321  58.7921461
  67.5355472 108.0611348  58.4667949  66.6628660 107.6314314  59.6268220
  58.5972465 112.1855002  46.9082867  57.9041710 112.2599357  46.2522903
  58.3524217 111.4215345  47.4304384  67.2686122 103.7450603  54.3122358
  67.5487876 103.0773792  54.9382784  68.0536729 103.9379699  53.7997021
  71.1394980 112.1668237  58.0593933  72.0912403 112.2666335  58.0806157
  70.9698431 111.3746506  58.5692017  69.1609360 109.2523820  58.2453334
  68.5659292 109.5328833  57.5499822  68.8759056 109.7417721  59.0170075
  73.6183058 115.3874357  57.1736232  73.5859378 114.4490358  57.3595916
  74.2283682 115.4658394  56.4402057  65.4566389 114.2570410  43.2163436
  66.4025494 114.1276618  43.2851854  65.0780634 113.5185072  43.6932864
  73.7677546 112.1785400  57.2194515  73.2516595 111.3943857  57.0324444
  74.6517495 111.8504117  57.3841035  71.4288273 105.9226416  53.1790328
  71.2313095 105.6141504  54.0633660  72.0387979 106.6488055  53.3088258
  63.6409306 112.1820386  43.1518322  62.7340761 111.8853499  43.2281035
  63.9185287 111.8850204  42.2852608  65.2571372 106.7257276  49.3062563
  64.4472100 106.3804361  49.6817809  65.9455789 106.4164820  49.8950174
  67.1861920 105.8035323  50.9286859  67.7392959 106.2230776  51.5876883
  67.4232006 104.8771071  50.9709815  63.2095019 111.7922396  66.7089623
  63.1091746 112.7416753  66.6401714  62.9916561 111.4640635  65.8365693
  62.4108091 109.0407321  43.2930301  63.2727255 109.3662220  43.5526118
  62.5958435 108.2538817  42.7803367  70.5640727 107.9135848  50.4365524
  69.9839396 108.5720652  50.0543576  70.2976660 107.0913192  50.0252941
  69.0144293 107.3140906  52.6386844  69.5144072 107.4257440  51.8301163
  69.6579901 107.0101958  53.2787653  69.3465605 110.0735938  49.4921872
  68.4591460 110.3585589  49.2742067  69.7619594 109.9129702  48.6449149
  72.6980141 110.0982459  53.2076211  73.4740531 110.5878912  53.4800828
  71.9728275 110.5240513  53.6648081  75.1352700 110.8110078  54.2650152
  75.7297191 110.5705814  53.5543460  75.2079284 110.0917209  54.8923688
  69.3206629 115.5890474  49.7072162  69.2641830 116.0459026  48.8679795
  69.8734971 114.8281159  49.5295005  73.1311435 111.3780206  50.5322282
  72.8748369 110.9776842  51.3630489  72.5064303 112.0924000  50.4072421
  77.4423773 114.1176279  53.0393573  76.8823331 114.1869469  53.8125135
  76.8367276 113.9417264  52.3193069  63.3637534 106.2803364  46.5810010
  63.3516203 107.2245204  46.7378281  64.2560955 106.0973510  46.2869471
  67.1789653 102.8746141  50.8355947  66.4122049 102.3204628  50.9812629
  67.5900358 102.9468010  51.6970098  59.1831414 109.1630937  64.9261128
  60.0462876 108.8067742  65.1364452  58.6096825 108.8244832  65.6136532
  13.9917265  15.8243410  42.4568835  14.6295675  15.7050157  41.7532175
  13.8738108  16.7724254  42.5156788  10.8006972  15.7770838  42.3930360
  10.4625483  15.6611903  41.5050895  11.6696740  15.3762003  42.3731366
   6.6593787  17.6306314  38.3827251   6.0958653  17.5396251  37.6143539
   6.5446182  16.8106219  38.8629744  11.2826755  16.9305690  48.3516566
  11.2715395  16.5358488  47.4797069  11.4447394  16.1971762  48.9450337
   4.2058219  19.1257506  41.2211472   4.9979511  18.7848330  40.8057771
   4.4454869  19.2352481  42.1413625  12.2393346  21.2977282  33.6941716
  11.5881326  21.8831362  33.3075730  13.0337709  21.8283477  33.7536753
   6.1648973  18.3866419  34.0928850   6.9379849  17.8395406  33.9541726
   6.5174372  19.2510668  34.3043312   8.0034016  19.7142801  47.2995750
   7.7123882  20.6188432  47.1842416   8.6391000  19.7559329  48.0139819
   8.9290223  17.0919650  43.8897109   9.5253795  16.8675672  43.1754072
   8.9865194  16.3504395  44.4922557   8.5015251  14.5459085  31.7247300
   8.7540772  14.0240606  30.9630763   7.5639810  14.3825231  31.8273984
  13.5458534  13.5494864  39.5322043  14.3321623  13.1314287  39.1812460
  13.8097238  14.4540956  39.7003692  13.7168611  18.9867714  34.2310700
  13.0814444  19.0602340  34.9431605  13.3866018  19.5761313  33.5529780
  18.9466961  13.4870097  40.4355022  19.6792133  12.9169314  40.6692851
  18.1906317  13.0991697  40.8761528   8.2211540  16.4487191  33.9271675
   8.1047798  15.7732095  34.5952760   8.3313800  15.9619565  33.1103828
  10.5643081  15.9097338  37.6318364  10.2001288  15.3827959  38.3431286
  11.4210197  15.5195807  37.4584850  16.4692381   7.1991671  44.8949631
  16.1375706   8.0687082  44.6710846  15.8737995   6.8827955  45.5743661
  10.2048568  10.9387238  32.6279713  10.3722970  11.8067474  32.9950184
  10.0145737  11.1014520  31.7041002  12.9623901  19.4004217  44.2945543
  12.6624624  20.3029256  44.1861351  12.6174960  19.1336400  45.1466696
   6.4136382  15.8518014  40.3282248   5.4886879  15.7194228  40.5359940
   6.6620796  16.6312233  40.8252190  16.3621045  11.9186757  41.9742981
  15.4537922  11.8502166  41.6801742  16.3108640  12.3958702  42.8024806
  10.1837789  13.3944895  33.6126380  10.0637414  13.8401946  34.4511860
   9.4890377  13.7430213  33.0539918   3.7745193  15.4951287  41.1626037
   3.9037575  15.7485766  42.0765449   3.0942645  16.0878995  40.8430692
   7.9444681  26.1648537  37.2616511   7.8668710  27.1156362  37.3404992
   7.3406324  25.8194410  37.9191437  10.4361910  13.3376403  49.9177878
   9.6595245  13.8970323  49.9080743  11.0752474  13.8233186  50.4392748
  18.2282691  10.1203195  43.7520855  17.5857071  10.4135729  43.1060649
  17.7237620  10.0056116  44.5574051  15.8822855  13.8666369  34.4406714
  16.7940711  14.0993755  34.2654411  15.3732502  14.4503413  33.8781792
   8.6908283  16.1461856  49.4795845   9.4322967  16.6846900  49.2030669
   7.9845268  16.7728145  49.6367397  14.1663622  18.2890996  48.0768006
  14.5746978  17.8473407  47.3322639  13.4440884  17.7143624  48.3302199
  10.5194692  13.2263603  45.4501563  11.3655888  13.6503017  45.5936212
  10.4593330  12.5697228  46.1440126  14.4892437  18.8492187  41.8320295
  13.8601299  19.0137901  41.1296363  14.1018099  19.2633797  42.6031259
  18.3681669  19.7846625  39.1864659  17.6832707  20.1645526  38.6361692
  18.4525518  20.3941952  39.9196607  13.6694138  10.8867972  47.1082737
  13.4255070  11.6410032  46.5717013  13.9454068  11.2653319  47.9429984
  15.6232601  17.4306584  45.7860003  15.8349496  18.0738344  45.1094384
  15.5762349  16.5968901  45.3181933  13.2258830  10.0424405  42.6896575
  12.3643309  10.3405658  42.9813312  13.2521264  10.2594804  41.7577607
  10.0420399  18.5866595  39.0970380  10.5058744  18.8654298  38.3075003
   9.7777197  17.6850040  38.9143471   6.9344480  18.1338077  42.0350144
   7.5045837  18.5625345  41.3967628   7.5252592  17.8520661  42.7334329
   8.9789285  14.7089748  35.9059946   9.6813328  15.1610791  36.3733872
   8.6469913  14.0673566  36.5339839   7.4269647  13.3001504  50.2811155
   6.7968307  13.9817785  50.5146552   7.3205734  13.1884586  49.3364293
  16.7378429  20.3078539  43.9582360  17.5595872  19.9058727  43.6765042
  16.7340831  20.2046774  44.9098476  10.5035032  19.8562583  46.1143070
  10.5679464  20.3182990  46.9501242   9.7945956  19.2259948  46.2425380
  24.8284422  16.6517288  40.3067331  24.0748130  16.0824686  40.1511336
  24.9631963  16.6179952  41.2537966  10.2183050  21.5230690  35.9822051
  10.0828724  22.3682226  36.4106899  10.7592862  21.7249968  35.2187985
   3.6712447  19.0406128  36.5549976   4.1836968  19.8349378  36.7055541
   4.3235160  18.3432419  36.4883577   5.4807332  22.1571885  38.6372729
   5.6573960  23.0789849  38.4493713   6.2764165  21.8430304  39.0667109
   4.7659688  14.2036516  48.5134892   4.6513203  13.3021774  48.8141991
   3.9104206  14.4500213  48.1619709  11.8451526  22.1454257  50.1122393
  11.4015380  21.3590635  49.7943297  12.5068740  22.3333407  49.4466284
   6.6038647  23.6750058  44.6383071   7.1546072  23.5467122  43.8660065
   5.7650123  23.9744947  44.2877964  13.9432764  22.4257057  48.1403794
  13.9251239  23.2465938  47.6484063  14.8652684  22.3011132  48.3653935
  10.4005818  19.9401186  48.9827302  10.9334155  19.1789474  48.7526610
   9.8719899  19.6474838  49.7251457   1.6361364  17.3694783  37.3309546
   2.4736586  17.7791791  37.1143254   1.8139631  16.4294225  37.3009740
  13.5325796  15.0369863  33.0193379  13.0172419  15.8074468  33.2581767
  13.2603104  14.3634999  33.6426441  11.1172907   9.8819564  38.0778618
  10.2614503   9.4926414  37.8984256  11.5299859   9.9611525  37.2178403
  18.5060070  17.7902218  34.9546553  17.7289513  17.4513377  34.5101715
  19.1851551  17.7954841  34.2801518  13.3212099  12.9096955  34.8453160
  13.0162235  13.2243104  35.6963304  14.2742541  12.9878375  34.8880493
  11.7658531  19.0687179  36.4946114  11.2379892  18.3339938  36.1819352
  11.2646034  19.8461855  36.2486083  16.7451377  17.2636199  41.6113161
  16.0875051  17.9535460  41.6993289  17.5491776  17.6532631  41.9547147
  15.5556836  15.6180572  39.6617103  16.0688717  16.2510564  40.1638812
  16.2058060  15.0181767  39.2960463   9.9111131  16.8867389  29.4981087
   9.0038193  16.6556642  29.6972236  10.4082163  16.0905008  29.6855069
  12.8179210  25.5964896  32.4177774  12.1440909  25.8996593  33.0262731
  13.2045032  26.3993976  32.0683231  12.0337667  13.0930027  41.9075443
  11.1160228  13.3144974  41.7497131  12.4497810  13.1676338  41.0487150
  12.8172714  14.4921443  37.0378123  13.5644533  15.0042840  36.7285245
  13.0864304  14.1705496  37.8982517  11.0899365  16.9879984  34.0205078
  10.1810584  16.7039017  34.1177547  11.1194448  17.4079062  33.1608384
  16.3218632  20.5986573  37.7896245  15.8680959  19.7577483  37.8461436
  15.6912599  21.2347972  38.1271025  15.2651552  11.5278559  39.0196913
  14.5274308  11.0155945  39.3507155  15.5178325  11.0878941  38.2080189
  14.7651571  22.4363070  38.7246063  15.0574546  22.9968127  38.0058429
  15.2750192  22.7291631  39.4799222   9.6384259  14.6008604  40.1214873
   9.6932868  13.6482441  40.0457350   8.8275461  14.7568043  40.6056171
  10.7875452  18.5288727  31.3593156  10.3494882  17.8124586  30.8998794
  11.5285893  18.7564842  30.7978248   7.5776618  13.2185664  37.8805252
   6.7644484  13.5179835  38.2870444   8.0735613  12.8241353  38.5979734
   9.7285196  23.2143421  39.8139516   9.6861375  23.4404267  38.8848049
  10.6447895  22.9806796  39.9625318  13.1750830  13.6827489  46.7120146
  13.5300218  13.9098962  47.5714611  13.8222961  14.0145865  46.0897401
  18.9048567  16.8045924  37.4169475  18.7666466  16.9947520  36.4890664
  18.5484786  17.5665307  37.8737526  18.9317947  18.8722451  42.4280746
  19.3654453  18.7797741  43.2763800  19.6449527  18.8479952  41.7900762
   7.8450997  20.0906450  39.6101479   8.6391596  19.5956770  39.4084054
   7.1342690  19.5624313  39.2469185  12.6645842  22.4724546  43.9613847
  12.7182864  23.0415482  44.7291563  11.7960623  22.6426431  43.5967884
  19.7933496  18.9146152  44.9613632  19.9869386  19.8191963  45.2072907
  19.6934114  18.4553571  45.7952217  11.4469807   8.8004043  47.4603959
  10.7997722   9.4993992  47.3668435  12.2170822   9.2340187  47.8280207
  14.8548605  19.0652895  50.5354512  14.7034111  18.8363447  49.6184596
  14.8453284  20.0223496  50.5485857  11.6233941  16.6384808  45.5200779
  12.5526001  16.7895967  45.3469746  11.2024971  16.7268828  44.6649425
  10.4222273  20.6635472  43.2899316  10.2833359  20.2954256  44.1625254
   9.6336869  21.1783111  43.1183274  11.0170425  25.7644568  34.6324853
  11.1922181  25.2932612  35.4470476  10.3303213  26.3910335  34.8606114
  11.9727488  20.0417075  40.6788154  11.6377321  20.0017845  41.5745804
  11.4731434  19.3761791  40.2058564   5.9471732  15.4484705  46.2040735
   5.8091530  14.7164944  46.8052274   6.8576656  15.3593605  45.9224923
  14.9086680  17.3873109  30.9525214  14.2915851  16.6619937  30.8558266
  14.4403168  18.1482469  30.6092288   8.5754033  15.1604664  45.6924415
   9.2853651  14.5197856  45.6511033   8.5323341  15.4117559  46.6150596
  16.5640812  22.0972017  48.6130994  16.5053358  21.4131238  47.9461577
  16.9660330  22.8391007  48.1611620   7.2882967  12.1469882  47.5120054
   6.7520324  11.6960620  48.1641651   6.6999675  12.2815791  46.7690519
   5.5831510  28.9133931  41.4064713   5.8228109  29.5452455  42.0843732
   4.7400707  28.5621971  41.6930072  16.5658219  20.0611601  46.8444974
  15.6784998  19.7237523  46.9671373  17.1356770  19.3294633  47.0813739
  10.0959372  24.7213054  43.8106217  10.0229544  25.5268025  44.3225522
   9.6536765  24.9205019  42.9854238   9.8849152  23.9584824  37.3209039
   9.1016674  24.5006504  37.4147263  10.5841897  24.4758803  37.7203280
  13.1945802   9.7679453  39.9643244  13.6914502   9.0149415  39.6444314
  12.4232784   9.8043770  39.3986453  21.0475559  15.4719819  41.6061535
  21.0365436  16.3544534  41.2355469  20.1792939  15.1191370  41.4116072
  12.5558056  24.6199888  45.9664376  13.2686028  25.2547353  45.8940277
  12.0648084  24.7163754  45.1504377  14.2775583  18.5251140  37.5381667
  13.3431861  18.6452603  37.3686372  14.4552251  17.6223607  37.2741677
   9.7780771  11.9096836  39.6914929   9.4078558  11.3567877  40.3795834
  10.2739863  11.3054970  39.1389929  17.6648134  14.3668460  38.0731701
  18.1308586  15.1996451  37.9992004  18.1155635  13.9013441  38.7776960
   7.6069969  22.3694331  46.7869946   8.3079429  23.0030814  46.9399341
   7.1365084  22.7109063  46.0265586  15.7324365  20.7112281  35.0717853
  16.0084209  20.5968876  35.9811728  14.8628864  20.3129766  35.0330027
  15.6364797   6.7349047  42.1122603  14.7227877   6.9653273  42.2804810
  16.0657898   6.8187491  42.9636635  15.4071255  14.9238939  44.6122497
  14.7542706  15.1714846  43.9574950  15.7851635  14.1103077  44.2784974
  12.3678429  24.9598632  38.7150667  12.5500824  24.1420288  39.1778419
  13.1911415  25.1766324  38.2775557  12.7020595  23.8866817  35.9765716
  13.2308361  23.3759272  35.3635878  12.9648814  23.5709347  36.8411249
  11.4558828  15.6658750  51.0988534  10.7799465  15.5652879  51.7690909
  12.2786462  15.5097963  51.5624531   3.2037687  21.9030686  43.7201049
   3.7891124  21.1574374  43.8528953   3.0062526  22.2134643  44.6037713
   6.0576343  24.9381934  38.7363492   5.3886718  25.4228061  38.2527532
   5.9189212  25.1851154  39.6506870  10.1981611  26.9725677  45.3346150
  10.7499919  27.1357299  46.0995235  10.5387805  27.5630115  44.6626175
  15.0492486  21.7986935  51.1894804  15.5932389  22.4116893  50.6949759
  14.4679330  22.3566513  51.7061817  13.3349998  24.9207653  42.3209832
  13.2101138  24.1197392  41.8120778  13.9929090  25.4153846  41.8323802
  15.3984907  22.7216673  43.9489382  14.4515242  22.6022024  43.8767709
  15.7467680  21.8339171  44.0315644  12.4031340  22.5169389  40.1493734
  12.2556303  21.5886096  40.3301304  13.2284834  22.5389480  39.6650810
  16.0065462  23.3397948  41.2358607  16.9312009  23.1340809  41.0983058
  15.8380765  23.0914349  42.1447949  12.3992854  10.3707227  35.1425852
  12.6156469  11.2531864  34.8414680  11.9186922   9.9793440  34.4131494
   7.1392076  13.3292940  41.7196596   6.9936657  13.6433243  42.6120878
   6.6617279  13.9477840  41.1667495  10.8514589  10.7532828  43.8130613
  10.5932367  11.6749899  43.8114944  10.3199630  10.3563263  44.5031077
  15.7960778  23.8583615  36.5920699  15.9697656  23.2930038  35.8394551
  16.2889669  24.6584510  36.4100189   1.6137738  15.8698284  44.6584257
   1.0691206  16.6458092  44.7904532   2.4917088  16.2169089  44.5003379
  21.6500169  16.6220038  38.2110998  22.0931315  15.8727363  37.8130122
  20.7726680  16.6130174  37.8284730  16.7835951  23.1750380  33.6917597
  17.4786855  23.7957072  33.9104912  17.1259101  22.3245731  33.9669975
  18.6827374  20.6250085  35.2204928  19.2078698  20.9637358  34.4954248
  18.5949726  19.6897100  35.0368062  10.3447423  24.5384159  47.3494804
  10.6534549  24.2933305  48.2217504  11.1422905  24.7430797  46.8613674
  10.3668035  26.6922068  39.5800181   9.9273025  26.1998447  40.2733038
  11.1176152  26.1495036  39.3392256   2.8460374  22.8833609  39.5824809
   3.6718393  22.5837381  39.2023452   2.4954426  22.1141232  40.0314598
   7.8141907  22.2360077  41.6522482   7.1921916  21.5730782  41.3524710
   8.4846774  22.2621209  40.9696130  18.3721280  21.2582989  50.5256126
  17.5816824  21.2407128  49.9860625  18.1354634  21.7971282  51.2805162
  18.4919155  18.1075455  47.8388854  18.5417160  17.9425463  48.7804377
  18.3833078  17.2402714  47.4486735   7.3755414  20.7864001  35.1280943
   7.5243534  21.4699465  34.4747616   8.1821857  20.7669091  35.6430399
  15.7822917  14.0906383  49.1548161  16.6832780  13.9512848  48.8632159
  15.8570892  14.2560838  50.0946338  10.1165723  11.4673238  48.0001347
   9.2469032  11.7606804  47.7283936  10.3525203  12.0513683  48.7208611
  19.9937352  20.5272397  48.0830876  19.7022160  20.8902377  48.9194337
  19.3809483  19.8139405  47.9044208  21.1933034  18.0925276  40.6033446
  22.0279925  18.5315080  40.7671006  21.3292163  17.6163930  39.7841692
  18.2424540  15.6505011  46.5510934  18.7178662  15.8432658  45.7429785
  17.3190105  15.7064197  46.3054317   5.1308047  16.8129178  36.1342012
   4.8854089  15.9091508  36.3322222   5.3003961  16.8146329  35.1921490
  12.8204756   7.6852855  45.5166768  13.3386700   8.4213882  45.1913256
  12.4659889   7.9916848  46.3513527  10.8750819  23.2812131  32.5992690
  10.3024786  23.9002318  32.1463162  11.4483613  23.8311493  33.1332612
  16.9426209  12.5270771  44.7839239  17.8943632  12.6268869  44.8051463
  16.7729659  11.7349040  45.2937324  14.9640588   9.6126355  44.9698640
  14.3690521   9.8931367  44.2745129  14.6790285  10.1020255  45.7415381
  14.0948079  23.5649281  33.7301273  15.0278752  23.4994843  33.9334148
  14.0071292  24.4005548  33.2715805  16.7236096  22.8815152  30.6905220
  16.6449727  22.5475015  31.5840978  17.5445762  23.3736920  30.6896693
  19.4214287  15.7476891  43.8981539  19.3890607  14.8092892  44.0841223
  20.0314910  15.8260928  43.1647364  11.2597618  14.6172944  29.9408743
  12.2056722  14.4879152  30.0097161  10.8811863  13.8787606  30.4178171
  19.5708775  12.5387934  43.9439822  19.0547824  11.7546391  43.7569751
  20.4548724  12.2106651  44.1086342  17.2319502   6.2828950  39.9035635
  17.0344323   5.9744038  40.7878967  17.8419208   7.0090589  40.0333565
  25.2390837  16.8092898  43.0387576  25.9694225  16.5478186  43.5995279
  24.6297782  16.0721620  43.0789644  23.3206134  14.9500760  43.6362027
  22.5939297  14.8156725  43.0278519  22.9053421  15.2577589  44.4418745
  11.1436310  18.6690690  51.4009400  12.0639320  18.8469289  51.5949446
  11.1085893  17.7246735  51.2489099   4.1398383  16.5791725  44.0432181
   4.3584393  17.5108833  44.0620215   4.5524157  16.2199699  44.8286985
   9.0126248  12.1524931  53.4334930   8.9122975  13.1019287  53.3647021
   8.7947790  11.8243169  52.5611000  16.3671956   8.2738382  37.1610830
  15.7870625   8.9323186  36.7788883  16.1007889   7.4515727  36.7498248
  14.8175522   7.6743440  39.3632151  15.3175301   7.7859974  38.5546470
  15.4611130   7.3704493  40.0032959   8.8757518  15.5822069  52.2499992
   8.3924600  16.3822429  52.4563881   8.9618457  15.5930014  51.2967436
   2.1443478  17.4150449  40.1721811   2.1214166  17.5138136  39.2203694
   2.4544114  18.2615600  40.4938977   4.8030856  19.4726604  44.2868425
   5.7574109  19.4410546  44.2198357   4.6043379  19.0117228  45.1018651
   5.3930238  18.0427720  46.8539223   6.2123127  18.5371799  46.8774060
   5.6667045  17.1259688  46.8256791  15.1496834  10.4338472  36.2167179
  14.2622689  10.7188123  35.9987373  15.5650823  10.2732236  35.3694456
  18.5011370  10.4584993  39.9321518  19.2771760  10.9481446  40.2046135
  17.7759504  10.8843048  40.3893387  20.9383929  11.1712613  40.9895459
  21.5328419  10.9308349  40.2788767  21.0110512  10.4519743  41.6168995
   3.1581084  25.0146224  41.3038623   3.0235552  24.2546624  40.7376621
   2.7413147  25.7387123  40.8367412  14.2940047  20.1983147  30.3115199
  14.9975898  20.4033150  30.9272854  13.5702696  20.7659909  30.5764282
  15.1237858  15.9493008  36.4317469  15.0673059  16.4061560  35.5925101
  15.6766200  15.1883693  36.2540312  18.9342664  11.7382740  37.2567588
  18.6779598  11.3379376  38.0875796  18.3095532  12.4526534  37.1317727
  23.2455001  14.4778813  39.7638880  22.6854559  14.5472003  40.5370442
  22.6398505  14.3019798  39.0438376   6.3150210  25.9115541  41.5157066
   6.1982594  26.8560973  41.4135756   5.4942657  25.6089102  41.9042865
  16.2026745  20.6365676  32.3613659  17.0372349  20.2046875  32.1791133
  16.0411088  20.4647690  33.2890553  15.8572637  17.1397790  33.7269998
  15.8021441  16.9742061  32.7858442  15.2318692  17.8473823  33.8832188
  13.1718544  19.4446701  53.0523561  14.0409704  19.6187354  52.6910196
  12.6925296  20.2641118  52.9299290   7.3404724  26.5643802  44.7312994
   8.2431971  26.5967413  45.0479489   7.1142094  25.6344253  44.7459330
   9.0958326  25.3174789  41.3923073   8.1453957  25.3176651  41.2787445
   9.3990813  24.5707524  40.8759108  24.8311020  31.1535327  42.4568835
  25.4689430  31.0342075  41.7532175  24.7131863  32.1016171  42.5156788
  21.6400726  31.1062756  42.3930360  21.3019238  30.9903820  41.5050895
  22.5090494  30.7053921  42.3731366  17.4987542  32.9598232  38.3827251
  16.9352407  32.8688169  37.6143539  17.3839937  32.1398136  38.8629744
  22.1220509  32.2597607  48.3516566  22.1109150  31.8650406  47.4797069
  22.2841149  31.5263680  48.9450337  15.0451974  34.4549424  41.2211472
  15.8373266  34.1140248  40.8057771  15.2848624  34.5644399  42.1413625
  23.0787101  36.6269200  33.6941716  22.4275080  37.2123280  33.3075730
  23.8731463  37.1575395  33.7536753  17.0042728  33.7158337  34.0928850
  17.7773604  33.1687324  33.9541726  17.3568127  34.5802586  34.3043312
  18.8427770  35.0434719  47.2995750  18.5517636  35.9480350  47.1842416
  19.4784755  35.0851247  48.0139819  19.7683977  32.4211568  43.8897109
  20.3647549  32.1967590  43.1754072  19.8258949  31.6796313  44.4922557
  19.3409006  29.8751003  31.7247300  19.5934526  29.3532524  30.9630763
  18.4033565  29.7117148  31.8273984  24.3852288  28.8786781  39.5322043
  25.1715378  28.4606204  39.1812460  24.6490993  29.7832873  39.7003692
  24.5562366  34.3159632  34.2310700  23.9208199  34.3894258  34.9431605
  24.2259772  34.9053230  33.5529780  29.7860716  28.8162014  40.4355022
  30.5185887  28.2461231  40.6692851  29.0300071  28.4283615  40.8761528
  19.0605294  31.7779109  33.9271675  18.9441552  31.1024012  34.5952760
  19.1707554  31.2911483  33.1103828  21.4036835  31.2389256  37.6318364
  21.0395042  30.7119877  38.3431286  22.2603951  30.8487725  37.4584850
  27.3086136  22.5283589  44.8949631  26.9769461  23.3979000  44.6710846
  26.7131749  22.2119873  45.5743661  21.0442322  26.2679156  32.6279713
  21.2116725  27.1359392  32.9950184  20.8539491  26.4306437  31.7041002
  23.8017655  34.7296135  44.2945543  23.5018378  35.6321173  44.1861351
  23.4568715  34.4628318  45.1466696  17.2530137  31.1809931  40.3282248
  16.3280633  31.0486146  40.5359940  17.5014550  31.9604151  40.8252190
  27.2014799  27.2478675  41.9742981  26.2931677  27.1794083  41.6801742
  27.1502395  27.7250620  42.8024806  21.0231543  28.7236813  33.6126380
  20.9031168  29.1693864  34.4511860  20.3284131  29.0722131  33.0539918
  14.6138948  30.8243205  41.1626037  14.7431329  31.0777684  42.0765449
  13.9336399  31.4170913  40.8430692  18.7838435  41.4940455  37.2616511
  18.7062465  42.4448280  37.3404992  18.1800079  41.1486327  37.9191437
  21.2755665  28.6668320  49.9177878  20.4988999  29.2262240  49.9080743
  21.9146228  29.1525103  50.4392748  29.0676446  25.4495113  43.7520855
  28.4250826  25.7427646  43.1060649  28.5631374  25.3348033  44.5574051
  26.7216609  29.1958286  34.4406714  27.6334465  29.4285673  34.2654411
  26.2126256  29.7795331  33.8781792  19.5302037  31.4753774  49.4795845
  20.2716722  32.0138818  49.2030669  18.8239023  32.1020062  49.6367397
  25.0057377  33.6182914  48.0768006  25.4140733  33.1765325  47.3322639
  24.2834638  33.0435542  48.3302199  21.3588447  28.5555521  45.4501563
  22.2049642  28.9794934  45.5936212  21.2987085  27.8989145  46.1440126
  25.3286192  34.1784105  41.8320295  24.6995054  34.3429819  41.1296363
  24.9411854  34.5925714  42.6031259  29.2075423  35.1138543  39.1864659
  28.5226462  35.4937444  38.6361692  29.2919273  35.7233869  39.9196607
  24.5087892  26.2159889  47.1082737  24.2648824  26.9701950  46.5717013
  24.7847823  26.5945237  47.9429984  26.4626355  32.7598502  45.7860003
  26.6743250  33.4030262  45.1094384  26.4156103  31.9260818  45.3181933
  24.0652584  25.3716322  42.6896575  23.2037063  25.6697576  42.9813312
  24.0915019  25.5886721  41.7577607  20.8814153  33.9158513  39.0970380
  21.3452499  34.1946216  38.3075003  20.6170952  33.0141957  38.9143471
  17.7738234  33.4629994  42.0350144  18.3439592  33.8917263  41.3967628
  18.3646346  33.1812579  42.7334329  19.8183039  30.0381665  35.9059946
  20.5207083  30.4902709  36.3733872  19.4863668  29.3965484  36.5339839
  18.2663401  28.6293422  50.2811155  17.6362062  29.3109703  50.5146552
  18.1599489  28.5176503  49.3364293  13.5608373  28.2965218  41.2077079
  12.7707427  28.5522746  40.7317190  14.0519621  29.1113556  41.3129120
  27.5772183  35.6370457  43.9582360  28.3989627  35.2350644  43.6765042
  27.5734586  35.5338691  44.9098476  15.5123119  28.6609797  38.1660556
  14.7154282  28.7728491  38.6844051  15.2848711  28.9996449  37.3001446
  21.3428786  35.1854500  46.1143070  21.4073219  35.6474908  46.9501242
  20.6339710  34.5551865  46.2425380  11.8446076  28.5495708  43.6392070
  12.0954115  29.4342718  43.9049646  12.3805625  28.3700310  42.8667162
  35.6678176  31.9809206  40.3067331  34.9141884  31.4116604  40.1511336
  35.8025717  31.9471870  41.2537966  21.0576804  36.8522608  35.9822051
  20.9222479  37.6974144  36.4106899  21.5986617  37.0541886  35.2187985
  17.5444144  22.9314188  52.6436406  17.1511089  22.3780386  53.3184050
  18.3610284  23.2424766  53.0342923  14.5106201  34.3698046  36.5549976
  15.0230722  35.1641296  36.7055541  15.1628914  33.6724336  36.4883577
  16.3201086  37.4863802  38.6372729  16.4967715  38.4081767  38.4493713
  17.1157920  37.1722221  39.0667109  20.4612105  24.3472067  50.2356663
  21.2021818  24.9479220  50.1561125  20.6930028  23.6049705  49.6774705
  15.6053443  29.5328434  48.5134892  15.4906958  28.6313691  48.8141991
  14.7497960  29.7792131  48.1619709  22.6845280  37.4746174  50.1122393
  22.2409135  36.6882553  49.7943297  23.3462494  37.6625325  49.4466284
  17.4432402  39.0041976  44.6383071  17.9939827  38.8759039  43.8660065
  16.6043878  39.3036865  44.2877964  24.7826519  37.7548974  48.1403794
  24.7644994  38.5757855  47.6484063  25.7046439  37.6303050  48.3653935
  21.2399573  35.2693104  48.9827302  21.7727909  34.5081392  48.7526610
  20.7113654  34.9766756  49.7251457  24.4069268  20.3753170  44.5120944
  24.0633537  21.2654811  44.4360055  24.7748230  20.1854827  43.6490529
  12.4755118  32.6986700  37.3309546  13.3130340  33.1083709  37.1143254
  12.6533386  31.7586142  37.3009740  24.3719550  30.3661781  33.0193379
  23.8566174  31.1366385  33.2581767  24.0996859  29.6926917  33.6426441
  21.9566661  25.2111482  38.0778618  21.1008258  24.8218332  37.8984256
  22.3693613  25.2903442  37.2178403  23.4865808  22.7457825  42.4770177
  22.9830604  22.7087960  41.6637983  23.7796415  23.6550568  42.5366834
  19.7308694  22.8296555  41.4836359  20.5961691  22.6339363  41.1242249
  19.7986203  22.6006906  42.4105716  29.3453825  33.1194136  34.9546553
  28.5683267  32.7805295  34.5101715  30.0245305  33.1246759  34.2801518
  24.1605854  28.2388873  34.8453160  23.8555989  28.5535022  35.6963304
  25.1136296  28.3170293  34.8880493  22.6052285  34.3979096  36.4946114
  22.0773647  33.6631856  36.1819352  22.1039788  35.1753773  36.2486083
  27.5845131  32.5928117  41.6113161  26.9268806  33.2827378  41.6993289
  28.3885531  32.9824549  41.9547147  17.3371013  25.0598763  38.8552726
  17.9114765  24.8373944  38.1225919  17.9241995  25.1287457  39.6081327
  26.3950590  30.9472489  39.6617103  26.9082472  31.5802481  40.1638812
  27.0451814  30.3473685  39.2960463  17.6640600  27.0903224  32.8748611
  16.8277912  27.4277910  33.1957886  17.5245370  26.9552203  31.9375748
  19.6393681  21.9340011  37.5827795  18.9858093  21.6189029  36.9584410
  19.5974155  21.3115752  38.3087618  20.7504886  32.2159307  29.4981087
  19.8431947  31.9848560  29.6972236  21.2475918  31.4196926  29.6855069
  23.6572964  40.9256814  32.4177774  22.9834663  41.2288510  33.0262731
  24.0438786  41.7285894  32.0683231  22.8731421  28.4221945  41.9075443
  21.9553982  28.6436892  41.7497131  23.2891565  28.4968255  41.0487150
  23.6566469  29.8213361  37.0378123  24.4038288  30.3334758  36.7285245
  23.9258058  29.4997413  37.8982517  21.9293119  32.3171901  34.0205078
  21.0204338  32.0330934  34.1177547  21.9588203  32.7370980  33.1608384
  27.1612386  35.9278491  37.7896245  26.7074714  35.0869401  37.8461436
  26.5306353  36.5639889  38.1271025  26.1045306  26.8570477  39.0196913
  25.3668063  26.3447863  39.3507155  26.3572080  26.4170859  38.2080189
  25.6045326  37.7654988  38.7246063  25.8968300  38.3260045  38.0058429
  26.1143946  38.0583549  39.4799222  26.2056933  19.6346729  39.6138682
  26.5115810  18.7744092  39.3264597  26.9309538  20.2264349  39.4137676
  12.4981289  30.0377416  38.0020280  12.3005689  29.4446776  37.2771346
  11.9427953  29.7329626  38.7196219  20.4778013  29.9300522  40.1214873
  20.5326623  28.9774358  40.0457350  19.6669215  30.0859961  40.6056171
  21.6269207  33.8580645  31.3593156  21.1888637  33.1416504  30.8998794
  22.3679648  34.0856760  30.7978248  18.4170373  28.5477582  37.8805252
  17.6038239  28.8471752  38.2870444  18.9129367  28.1533271  38.5979734
  20.5678951  38.5435339  39.8139516  20.5255130  38.7696185  38.8848049
  21.4841650  38.3098713  39.9625318  24.0144585  29.0119406  46.7120146
  24.3693972  29.2390879  47.5714611  24.6616716  29.3437783  46.0897401
  29.7442322  32.1337842  37.4169475  29.6060220  32.3239438  36.4890664
  29.3878540  32.8957225  37.8737526  17.9084448  26.1195937  43.4966487
  18.5483827  25.9784696  42.7989450  17.0761978  25.8330451  43.1205089
  29.7711701  34.2014369  42.4280746  30.2048208  34.1089658  43.2763800
  30.4843282  34.1771870  41.7900762  18.6844752  35.4198368  39.6101479
  19.4785350  34.9248688  39.4084054  17.9736444  34.8916231  39.2469185
  23.5039596  37.8016463  43.9613847  23.5576618  38.3707400  44.7291563
  22.6354377  37.9718348  43.5967884  14.9927515  29.5641449  35.6861232
  14.0625103  29.5025905  35.9031194  15.0884987  29.0417402  34.8897873
  14.9113064  26.0896262  38.2739474  15.1719881  27.0041596  38.1648634
  15.7330236  25.6220705  38.4236086  16.3837989  27.5034019  45.4438298
  17.0561043  27.2951382  44.7950947  15.5567776  27.3056105  45.0043530
  30.6327251  34.2438070  44.9613632  30.8263141  35.1483880  45.2072907
  30.5327869  33.7845489  45.7952217  22.2863562  24.1295960  47.4603959
  21.6391477  24.8285910  47.3668435  23.0564577  24.5632104  47.8280207
  25.6942359  34.3944813  50.5354512  25.5427866  34.1655364  49.6184596
  25.6847039  35.3515414  50.5485857  22.4627696  31.9676725  45.5200779
  23.3919756  32.1187885  45.3469746  22.0418726  32.0560746  44.6649425
  21.2616028  35.9927390  43.2899316  21.1227113  35.6246174  44.1625254
  20.4730624  36.5075029  43.1183274  21.8564180  41.0936486  34.6324853
  22.0315935  40.6224529  35.4470476  21.1696968  41.7202252  34.8606114
  22.8121243  35.3708992  40.6788154  22.4771075  35.3309762  41.5745804
  22.3125188  34.7053708  40.2058564  16.7865487  30.7776622  46.2040735
  16.6485285  30.0456861  46.8052274  17.6970410  30.6885523  45.9224923
  25.7480434  32.7165027  30.9525214  25.1309605  31.9911855  30.8558266
  25.2796923  33.4774387  30.6092288  19.4147787  30.4896582  45.6924415
  20.1247406  29.8489774  45.6511033  19.3717096  30.7409477  46.6150596
  27.4034566  37.4263935  48.6130994  27.3447112  36.7423155  47.9461577
  27.8054084  38.1682925  48.1611620  18.1276721  27.4761800  47.5120054
  17.5914078  27.0252538  48.1641651  17.5393430  27.6107708  46.7690519
  16.4225265  44.2425849  41.4064713  16.6621863  44.8744373  42.0843732
  15.5794461  43.8913889  41.6930072  17.5378980  26.9350451  30.0746518
  16.6608447  26.8139252  29.7108765  18.0136733  26.1436529  29.8225407
  27.4051973  35.3903519  46.8444974  26.5178752  35.0529441  46.9671373
  27.9750524  34.6586550  47.0813739   9.0581120  31.7227611  40.1688025
   9.7452160  31.4089341  39.5809040   8.9029249  32.6268975  39.8955277
  13.8615843  26.6117807  44.5973049  13.7774031  26.0043477  43.8623459
  13.0398549  27.1026826  44.5982545  20.9353127  40.0504971  43.8106217
  20.8623298  40.8559943  44.3225522  20.4930520  40.2496937  42.9854238
  20.7242906  39.2876741  37.3209039  19.9410428  39.8298422  37.4147263
  21.4235652  39.8050721  37.7203280  24.0339556  25.0971371  39.9643244
  24.5308256  24.3441333  39.6444314  23.2626538  25.1335687  39.3986453
  31.8869314  30.8011736  41.6061535  31.8759190  31.6836452  41.2355469
  31.0186693  30.4483287  41.4116072  23.3951810  39.9491805  45.9664376
  24.1079782  40.5839270  45.8940277  22.9041839  40.0455671  45.1504377
  25.1169337  33.8543058  37.5381667  24.1825616  33.9744521  37.3686372
  25.2946006  32.9515525  37.2741677  20.6174525  27.2388754  39.6914929
  20.2472313  26.6859794  40.3795834  21.1133618  26.6346887  39.1389929
  28.5041889  29.6960377  38.0731701  28.9702341  30.5288369  37.9992004
  28.9549389  29.2305359  38.7776960  18.4463724  37.6986249  46.7869946
  19.1473183  38.3322732  46.9399341  17.9758839  38.0400980  46.0265586
  26.5718120  36.0404199  35.0717853  26.8477964  35.9260793  35.9811728
  25.7022618  35.6421683  35.0330027  26.4758551  22.0640964  42.1122603
  25.5621631  22.2945191  42.2804810  26.9051653  22.1479408  42.9636635
  26.2465010  30.2530856  44.6122497  25.5936460  30.5006764  43.9574950
  26.6245390  29.4394994  44.2784974  23.2072184  40.2890549  38.7150667
  23.3894578  39.4712205  39.1778419  24.0305170  40.5058242  38.2775557
  23.5414349  39.2158735  35.9765716  24.0702116  38.7051189  35.3635878
  23.8042569  38.9001265  36.8411249  22.2952583  30.9950667  51.0988534
  21.6193220  30.8944797  51.7690909  23.1180217  30.8389881  51.5624531
  14.0431442  37.2322604  43.7201049  14.6284879  36.4866292  43.8528953
  13.8456280  37.5426561  44.6037713  16.8970097  40.2673851  38.7363492
  16.2280472  40.7519979  38.2527532  16.7582967  40.5143072  39.6506870
   8.6349097  29.8028204  42.4405492   8.6733196  29.2691795  43.2342610
   8.1289389  29.2763410  41.8216469  21.0375366  42.3017595  45.3346150
  21.5893674  42.4649216  46.0995235  21.3781559  42.8922033  44.6626175
  16.0139859  24.6492745  45.9368035  16.0781185  25.5107576  45.5245432
  15.9506979  24.0366746  45.2040393  15.4892131  26.7215877  49.5841069
  16.1164170  26.3392954  50.1978593  14.6320050  26.5030079  49.9496761
  25.8886240  37.1278852  51.1894804  26.4326144  37.7408811  50.6949759
  25.3073085  37.6858431  51.7061817  12.2657674  28.5292306  35.5159424
  12.5611115  27.6202985  35.4626477  11.3645710  28.5080046  35.1940426
  24.1743753  40.2499570  42.3209832  24.0494892  39.4489310  41.8120778
  24.8322844  40.7445764  41.8323802  15.7951921  26.6048303  41.4986972
  15.0738507  27.2184271  41.3594446  16.5845177  27.1406068  41.4203618
  26.2378661  38.0508590  43.9489382  25.2908997  37.9313942  43.8767709
  26.5861434  37.1631088  44.0315644  18.5978235  23.9402729  47.7727624
  19.1212637  24.1865026  48.5353933  18.3790568  24.7722764  47.3530761
  13.9945516  26.2106404  35.6398749  13.6658222  25.3303783  35.4573855
  14.3484886  26.1554073  36.5275138  23.2425095  37.8461307  40.1493734
  23.0950057  36.9178014  40.3301304  24.0678588  37.8681397  39.6650810
  17.1087339  26.4979374  36.0074227  17.4483411  27.0265295  35.2852835
  17.5559459  26.8359780  36.7832793  26.8459216  38.6689865  41.2358607
  27.7705764  38.4632727  41.0983058  26.6774520  38.4206267  42.1447949
  19.8030780  24.8816424  45.4577295  19.4627600  24.0824238  45.8597974
  19.0969786  25.1818135  44.8854128  20.4547252  21.9665737  43.9104618
  21.2773321  21.4926215  43.7883508  20.6985315  22.7456221  44.4103304
  19.0955486  24.9953995  34.2067519  19.8163849  25.3735248  33.7031236
  18.4720790  25.7142872  34.3102497  23.2386609  25.6999144  35.1425852
  23.4550223  26.5823782  34.8414680  22.7580676  25.3085358  34.4131494
  17.9785830  28.6584858  41.7196596  17.8330411  28.9725161  42.6120878
  17.5011034  29.2769758  41.1667495  19.8382213  25.6487405  41.7677486
  19.8243782  24.7528499  41.4309784  20.5554641  25.6558069  42.4015772
  21.6908344  26.0824746  43.8130613  21.4326122  27.0041816  43.8114944
  21.1593384  25.6855180  44.5031077  26.6354533  39.1875533  36.5920699
  26.8091410  38.6221955  35.8394551  27.1283424  39.9876428  36.4100189
  12.4531492  31.1990202  44.6584257  11.9084961  31.9750010  44.7904532
  13.3310842  31.5461006  44.5003379  19.2419109  24.5301786  37.0365056
  19.3635020  23.6018432  37.2355943  18.9521152  24.5440472  36.1243371
  22.1110300  22.2156696  40.1731776  22.1331996  22.2796029  39.2183755
  22.5278359  21.3761205  40.3672282  32.4893924  31.9511956  38.2110998
  32.9325070  31.2019281  37.8130122  31.6120434  31.9422092  37.8284730
  27.6229705  38.5042297  33.6917597  28.3180610  39.1248990  33.9104912
  27.9652855  37.6537648  33.9669975  13.2397514  30.3260098  47.5514414
  12.4979250  30.4742734  48.1379045  12.9190259  30.5868364  46.6881164
  29.5221128  35.9542003  35.2204928  30.0472452  36.2929276  34.4954248
  29.4343481  35.0189018  35.0368062  21.1841177  39.8676076  47.3494804
  21.4928303  39.6225223  48.2217504  21.9816659  40.0722715  46.8613674
  21.2061789  42.0213986  39.5800181  20.7666779  41.5290365  40.2733038
  21.9569906  41.4786954  39.3392256  13.6854128  38.2125527  39.5824809
  14.5112148  37.9129299  39.2023452  13.3348180  37.4433149  40.0314598
  18.6535661  37.5651995  41.6522482  18.0315670  36.9022700  41.3524710
  19.3240528  37.5913127  40.9696130  11.8862733  36.1311853  40.5413742
  11.0494641  35.7034028  40.3597744  11.8586379  36.3244297  41.4784534
  18.7260189  26.0433783  51.2454989  18.7748344  26.9195906  50.8632758
  19.2682703  25.5011176  50.6726632  29.2115034  36.5874906  50.5256126
  28.4210578  36.5699045  49.9860625  28.9748389  37.1263200  51.2805162
  29.3312909  33.4367373  47.8388854  29.3810914  33.2717380  48.7804377
  29.2226833  32.5694632  47.4486735  18.2149168  36.1155918  35.1280943
  18.3637288  36.7991383  34.4747616  19.0215612  36.0961009  35.6430399
  26.6216672  29.4198301  49.1548161  27.5226535  29.2804766  48.8632159
  26.6964646  29.5852756  50.0946338  20.9559477  26.7965156  48.0001347
  20.0862787  27.0898722  47.7283936  21.1918957  27.3805601  48.7208611
  30.8331106  35.8564314  48.0830876  30.5415915  36.2194295  48.9194337
  30.2203238  35.1431323  47.9044208  32.0326789  33.4217194  40.6033446
  32.8673680  33.8606998  40.7671006  32.1685917  32.9455847  39.7841692
  29.0818294  30.9796929  46.5510934  29.5572416  31.1724575  45.7429785
  28.1583860  31.0356115  46.3054317  15.9701801  32.1421096  36.1342012
  15.7247843  31.2383426  36.3322222  16.1397716  32.1438247  35.1921490
  23.6598511  23.0144772  45.5166768  24.1780455  23.7505799  45.1913256
  23.3053644  23.3208766  46.3513527  15.2397449  27.8749454  33.6328173
  14.5466694  27.9493809  32.9768209  14.9949201  27.1109797  34.1549690
  23.9111105  19.4345055  41.0367664  24.1912859  18.7668244  41.6628091
  24.6961712  19.6274151  40.5242328  21.7144574  38.6104049  32.5992690
  21.1418541  39.2294236  32.1463162  22.2877367  39.1603411  33.1332612
  27.7819963  27.8562689  44.7839239  28.7337386  27.9560787  44.8051463
  27.6123414  27.0640958  45.2937324  25.8034343  24.9418272  44.9698640
  25.2084275  25.2223285  44.2745129  25.5184040  25.4312173  45.7415381
  24.9341833  38.8941199  33.7301273  25.8672507  38.8286761  33.9334148
  24.8465046  39.7297466  33.2715805  27.5629850  38.2107069  30.6905220
  27.4843482  37.8766933  31.5840978  28.3839517  38.7028837  30.6896693
  30.2608041  31.0768809  43.8981539  30.2284361  30.1384809  44.0841223
  30.8708665  31.1552845  43.1647364  22.0991372  29.9464862  29.9408743
  23.0450477  29.8171070  30.0097161  21.7205617  29.2079524  30.4178171
  30.4102530  27.8679852  43.9439822  29.8941578  27.0838309  43.7569751
  31.2942478  27.5398569  44.1086342  28.0713257  21.6120868  39.9035635
  27.8738078  21.3035956  40.7878967  28.6812962  22.3382507  40.0333565
  36.0784591  32.1384816  43.0387576  36.8087980  31.8770104  43.5995279
  35.4691537  31.4013537  43.0789644  34.1599888  30.2792678  43.6362027
  33.4333052  30.1448643  43.0278519  33.7447175  30.5869507  44.4418745
  21.9830065  33.9982608  51.4009400  22.9033074  34.1761207  51.5949446
  21.9479648  33.0538653  51.2489099  20.2834289  27.8714838  29.8763628
  19.3765745  27.5747951  29.9526342  20.5610270  27.5744656  29.0097914
  11.2012230  29.1921201  40.3262675  10.8815014  28.3386510  40.0337049
  10.6545658  29.4069780  41.0820642  14.9792137  31.9083642  44.0432181
  15.1978147  32.8400750  44.0620215  15.3917911  31.5491617  44.8286985
  21.8996355  22.4151728  36.0307869  21.0897083  22.0698813  36.4063116
  22.5880772  22.1059271  36.6195481  23.8286903  21.4929775  37.6532166
  24.3817942  21.9125228  38.3122189  24.0656990  20.5665523  37.6955122
  19.8520003  27.4816848  53.4334930  19.7516729  28.4311205  53.3647021
  19.6341545  27.1535087  52.5611000  19.0533074  24.7301773  30.0175607
  19.9152238  25.0556672  30.2771425  19.2383418  23.9433269  29.5048673
  11.0700490  32.8124113  42.2955796  10.3763961  32.3978066  41.7825751
  11.8173481  32.8544649  41.6989215  27.2065710  23.6030300  37.1610830
  26.6264379  24.2615104  36.7788883  26.9401643  22.7807644  36.7498248
  25.6569277  23.0035357  39.3632151  26.1569055  23.1151892  38.5546470
  26.3004885  22.6996410  40.0032959  19.7151273  30.9113987  52.2499992
  19.2318354  31.7114347  52.4563881  19.8012212  30.9221932  51.2967436
  12.9837232  32.7442367  40.1721811  12.9607920  32.8430054  39.2203694
  13.2937869  33.5907518  40.4938977  15.6424610  34.8018522  44.2868425
  16.5967864  34.7702464  44.2198357  15.4437134  34.3409145  45.1018651
  16.2323992  33.3719638  46.8539223  17.0516881  33.8663716  46.8774060
  16.5060800  32.4551606  46.8256791  25.9890588  25.7630390  36.2167179
  25.1016443  26.0480041  35.9987373  26.4044577  25.6024153  35.3694456
  29.3405125  25.7876911  39.9321518  30.1165515  26.2773364  40.2046135
  28.6153259  26.2134965  40.3893387  31.7777683  26.5004530  40.9895459
  32.3722174  26.2600266  40.2788767  31.8504267  25.7811661  41.6168995
  13.9974839  40.3438141  41.3038623  13.8629307  39.5838542  40.7376621
  13.5806901  41.0679041  40.8367412  25.1333802  35.5275065  30.3115199
  25.8369652  35.7325067  30.9272854  24.4096451  36.0951827  30.5764282
  25.9631612  31.2784926  36.4317469  25.9066814  31.7353477  35.5925101
  26.5159955  30.5175611  36.2540312  29.7736418  27.0674658  37.2567588
  29.5173352  26.6671294  38.0875796  29.1489286  27.7818452  37.1317727
  34.0848756  29.8070731  39.7638880  33.5248314  29.8763920  40.5370442
  33.4792259  29.6311716  39.0438376  17.1543965  41.2407458  41.5157066
  17.0376349  42.1852891  41.4135756  16.3336411  40.9381020  41.9042865
  27.0420499  35.9657594  32.3613659  27.8766103  35.5338792  32.1791133
  26.8804842  35.7939608  33.2890553  26.6966391  32.4689707  33.7269998
  26.6415195  32.3033979  32.7858442  26.0712447  33.1765740  33.8832188
  11.4858906  27.7057772  47.5531420  12.1317770  27.1956726  48.0418645
  11.2776058  28.4426453  48.1274845  24.0112299  34.7738619  53.0523561
  24.8803458  34.9479271  52.6910196  23.5319050  35.5933036  52.9299290
  20.0062517  21.9697816  33.3055316  19.9941187  22.9139656  33.4623587
  20.8985939  21.7867962  33.0114778  18.1798479  41.8935720  44.7312994
  19.0825726  41.9259330  45.0479489  17.9535849  40.9636171  44.7459330
  19.9352081  40.6466707  41.3923073  18.9847712  40.6468568  41.2787445
  20.2384567  39.8999441  40.8759108  23.8214636  18.5640593  37.5601253
  23.0547032  18.0099080  37.7057936  24.2325341  18.6362462  38.4215405
  15.8256397  24.8525389  51.6506434  16.6887859  24.4962194  51.8609759
  15.2521808  24.5139284  52.3381839  32.4794481  46.4354673  42.3930360
  32.1412992  46.3195738  41.5050895  33.3484249  46.0345838  42.3731366
  28.3381296  48.2890150  38.3827251  27.7746161  48.1980087  37.6143539
  28.2233691  47.4690054  38.8629744  25.8845728  49.7841341  41.2211472
  26.6767020  49.4432166  40.8057771  26.1242378  49.8936316  42.1413625
  33.9180855  51.9561117  33.6941716  33.2668835  52.5415198  33.3075730
  34.7125218  52.4867312  33.7536753  27.8436482  49.0450254  34.0928850
  28.6167358  48.4979242  33.9541726  28.1961881  49.9094504  34.3043312
  29.6821525  50.3726637  47.2995750  29.3911391  51.2772268  47.1842416
  30.3178509  50.4143164  48.0139819  30.6077732  47.7503485  43.8897109
  31.2041304  47.5259508  43.1754072  30.6652703  47.0088231  44.4922557
  30.1802760  45.2042921  31.7247300  30.4328281  44.6824442  30.9630763
  29.2427319  45.0409066  31.8273984  35.2246043  44.2078699  39.5322043
  36.0109132  43.7898122  39.1812460  35.4884747  45.1124791  39.7003692
  35.3956120  49.6451549  34.2310700  34.7601953  49.7186176  34.9431605
  35.0653527  50.2345148  33.5529780  29.8999049  47.1071027  33.9271675
  29.7835307  46.4315930  34.5952760  30.0101309  46.6203400  33.1103828
  32.2430590  46.5681174  37.6318364  31.8788797  46.0411795  38.3431286
  33.0997706  46.1779643  37.4584850  31.8836077  41.5971073  32.6279713
  32.0510479  42.4651310  32.9950184  31.6933246  41.7598355  31.7041002
  28.0923891  46.5101849  40.3282248  27.1674388  46.3778063  40.5359940
  28.3408305  47.2896068  40.8252190  31.8625298  44.0528731  33.6126380
  31.7424923  44.4985782  34.4511860  31.1677886  44.4014049  33.0539918
  25.4532702  46.1535123  41.1626037  25.5825084  46.4069602  42.0765449
  24.7730154  46.7462831  40.8430692  29.6232190  56.8232373  37.2616511
  29.5456219  57.7740198  37.3404992  29.0193833  56.4778245  37.9191437
  36.1679946  49.5076022  41.8320295  35.5388808  49.6721737  41.1296363
  35.7805608  49.9217632  42.6031259  34.9046338  40.7008240  42.6896575
  34.0430818  40.9989494  42.9813312  34.9308773  40.9178639  41.7577607
  31.7207908  49.2450431  39.0970380  32.1846253  49.5238134  38.3075003
  31.4564706  48.3433875  38.9143471  28.6131989  48.7921912  42.0350144
  29.1833346  49.2209180  41.3967628  29.2040101  48.5104497  42.7334329
  30.6576794  45.3673583  35.9059946  31.3600837  45.8194627  36.3733872
  30.3257422  44.7257402  36.5339839  29.1057155  43.9585340  50.2811155
  28.4755816  44.6401620  50.5146552  28.9993243  43.8468421  49.3364293
  24.4002128  43.6257136  41.2077079  23.6101182  43.8814664  40.7317190
  24.8913375  44.4405473  41.3129120  26.3516873  43.9901715  38.1660556
  25.5548037  44.1020409  38.6844051  26.1242466  44.3288367  37.3001446
  32.1822541  50.5146418  46.1143070  32.2466973  50.9766825  46.9501242
  31.4733465  49.8843783  46.2425380  22.6839831  43.8787626  43.6392070
  22.9347869  44.7634636  43.9049646  23.2199379  43.6992228  42.8667162
  31.8970559  52.1814526  35.9822051  31.7616233  53.0266061  36.4106899
  32.4380371  52.3833803  35.2187985  28.3837898  38.2606105  52.6436406
  27.9904844  37.7072304  53.3184050  29.2004039  38.5716684  53.0342923
  25.3499956  49.6989964  36.5549976  25.8624477  50.4933214  36.7055541
  26.0022669  49.0016254  36.4883577  27.1594841  52.8155720  38.6372729
  27.3361469  53.7373685  38.4493713  27.9551674  52.5014139  39.0667109
  31.3005859  39.6763984  50.2356663  32.0415573  40.2771138  50.1561125
  31.5323782  38.9341622  49.6774705  26.4447197  44.8620352  48.5134892
  26.3300712  43.9605609  48.8141991  25.5891715  45.1084049  48.1619709
  28.2826156  54.3333894  44.6383071  28.8333581  54.2050957  43.8660065
  27.4437632  54.6328783  44.2877964  23.3148873  48.0278618  37.3309546
  24.1524095  48.4375626  37.1143254  23.4927140  47.0878060  37.3009740
  35.2113305  45.6953699  33.0193379  34.6959928  46.4658303  33.2581767
  34.9390613  45.0218835  33.6426441  32.7960416  40.5403399  38.0778618
  31.9402012  40.1510250  37.8984256  33.2087368  40.6195360  37.2178403
  34.3259563  38.0749743  42.4770177  33.8224358  38.0379878  41.6637983
  34.6190169  38.9842485  42.5366834  30.5702448  38.1588472  41.4836359
  31.4355445  37.9631281  41.1242249  30.6379957  37.9298824  42.4105716
  34.9999608  43.5680791  34.8453160  34.6949744  43.8826940  35.6963304
  35.9530050  43.6462211  34.8880493  33.4446040  49.7271014  36.4946114
  32.9167401  48.9923774  36.1819352  32.9433543  50.5045690  36.2486083
  28.1764768  40.3890680  38.8552726  28.7508519  40.1665862  38.1225919
  28.7635750  40.4579375  39.6081327  37.2344345  46.2764407  39.6617103
  37.7476226  46.9094399  40.1638812  37.8845569  45.6765603  39.2960463
  28.5034355  42.4195141  32.8748611  27.6671667  42.7569828  33.1957886
  28.3639124  42.2844121  31.9375748  30.4787435  37.2631929  37.5827795
  29.8251848  36.9480946  36.9584410  30.4367909  36.6407670  38.3087618
  31.5898640  47.5451224  29.4981087  30.6825702  47.3140478  29.6972236
  32.0869672  46.7488843  29.6855069  34.4966719  56.2548731  32.4177774
  33.8228418  56.5580428  33.0262731  34.8832541  57.0577812  32.0683231
  33.7125176  43.7513863  41.9075443  32.7947737  43.9728810  41.7497131
  34.1285319  43.8260173  41.0487150  34.4960223  45.1505278  37.0378123
  35.2432042  45.6626676  36.7285245  34.7651813  44.8289331  37.8982517
  32.7686874  47.6463819  34.0205078  31.8598093  47.3622852  34.1177547
  32.7981957  48.0662898  33.1608384  38.0006141  51.2570409  37.7896245
  37.5468468  50.4161318  37.8461436  37.3700108  51.8931807  38.1271025
  36.9439060  42.1862395  39.0196913  36.2061817  41.6739781  39.3507155
  37.1965834  41.7462776  38.2080189  36.4439080  53.0946905  38.7246063
  36.7362055  53.6551962  38.0058429  36.9537701  53.3875466  39.4799222
  37.0450688  34.9638647  39.6138682  37.3509565  34.1036010  39.3264597
  37.7703293  35.5556267  39.4137676  23.3375044  45.3669333  38.0020280
  23.1399444  44.7738694  37.2771346  22.7821708  45.0621543  38.7196219
  31.3171768  45.2592440  40.1214873  31.3720377  44.3066276  40.0457350
  30.5062970  45.4151879  40.6056171  32.4662961  49.1872563  31.3593156
  32.0282391  48.4708422  30.8998794  33.2073402  49.4148678  30.7978248
  29.2564127  43.8769499  37.8805252  28.4431993  44.1763670  38.2870444
  29.7523122  43.4825188  38.5979734  31.4072705  53.8727256  39.8139516
  31.3648884  54.0988103  38.8848049  32.3235404  53.6390631  39.9625318
  28.7478202  41.4487855  43.4966487  29.3877582  41.3076614  42.7989450
  27.9155733  41.1622368  43.1205089  29.5238506  50.7490285  39.6101479
  30.3179105  50.2540606  39.4084054  28.8130199  50.2208148  39.2469185
  34.3433351  53.1308381  43.9613847  34.3970373  53.6999317  44.7291563
  33.4748132  53.3010266  43.5967884  25.8321270  44.8933367  35.6861232
  24.9018858  44.8317823  35.9031194  25.9278742  44.3709320  34.8897873
  25.7506819  41.4188180  38.2739474  26.0113636  42.3333513  38.1648634
  26.5723991  40.9512623  38.4236086  27.2231744  42.8325937  45.4438298
  27.8954797  42.6243299  44.7950947  26.3961531  42.6348023  45.0043530
  32.1009782  51.3219307  43.2899316  31.9620868  50.9538092  44.1625254
  31.3124378  51.8366947  43.1183274  32.6957934  56.4228404  34.6324853
  32.8709690  55.9516447  35.4470476  32.0090722  57.0494170  34.8606114
  33.6514997  50.7000910  40.6788154  33.3164830  50.6601680  41.5745804
  33.1518943  50.0345626  40.2058564  27.6259241  46.1068540  46.2040735
  27.4879039  45.3748779  46.8052274  28.5364165  46.0177440  45.9224923
  36.5874189  48.0456944  30.9525214  35.9703360  47.3203773  30.8558266
  36.1190677  48.8066305  30.6092288  30.2541542  45.8188499  45.6924415
  30.9641160  45.1781692  45.6511033  30.2110850  46.0701394  46.6150596
  28.9670476  42.8053717  47.5120054  28.4307833  42.3544456  48.1641651
  28.3787184  42.9399626  46.7690519  27.2619019  59.5717767  41.4064713
  27.5015618  60.2036291  42.0843732  26.4188216  59.2205807  41.6930072
  28.3772735  42.2642369  30.0746518  27.5002201  42.1431169  29.7108765
  28.8530488  41.4728447  29.8225407  19.8974875  47.0519528  40.1688025
  20.5845915  46.7381258  39.5809040  19.7423004  47.9560893  39.8955277
  24.7009597  41.9409725  44.5973049  24.6167786  41.3335395  43.8623459
  23.8792304  42.4318743  44.5982545  31.7746881  55.3796889  43.8106217
  31.7017053  56.1851861  44.3225522  31.3324274  55.5788855  42.9854238
  31.5636661  54.6168659  37.3209039  30.7804183  55.1590339  37.4147263
  32.2629406  55.1342639  37.7203280  34.8733311  40.4263289  39.9643244
  35.3702011  39.6733251  39.6444314  34.1020292  40.4627605  39.3986453
  35.9563092  49.1834976  37.5381667  35.0219370  49.3036438  37.3686372
  36.1339760  48.2807443  37.2741677  31.4568280  42.5680672  39.6914929
  31.0866067  42.0151712  40.3795834  31.9527372  41.9638805  39.1389929
  29.2857478  53.0278167  46.7869946  29.9866938  53.6614649  46.9399341
  28.8152593  53.3692898  46.0265586  37.4111874  51.3696116  35.0717853
  37.6871718  51.2552711  35.9811728  36.5416373  50.9713601  35.0330027
  34.0465938  55.6182467  38.7150667  34.2288333  54.8004123  39.1778419
  34.8698924  55.8350159  38.2775557  34.3808104  54.5450652  35.9765716
  34.9095870  54.0343107  35.3635878  34.6436323  54.2293182  36.8411249
  24.8825196  52.5614522  43.7201049  25.4678633  51.8158209  43.8528953
  24.6850035  52.8718478  44.6037713  27.7363852  55.5965769  38.7363492
  27.0674227  56.0811897  38.2527532  27.5976721  55.8434989  39.6506870
  19.4742851  45.1320122  42.4405492  19.5126951  44.5983712  43.2342610
  18.9683144  44.6055327  41.8216469  31.8769120  57.6309512  45.3346150
  32.4287428  57.7941134  46.0995235  32.2175314  58.2213950  44.6626175
  26.8533613  39.9784662  45.9368035  26.9174940  40.8399493  45.5245432
  26.7900734  39.3658664  45.2040393  26.3285886  42.0507795  49.5841069
  26.9557925  41.6684872  50.1978593  25.4713805  41.8321997  49.9496761
  23.1051429  43.8584224  35.5159424  23.4004870  42.9494902  35.4626477
  22.2039464  43.8371963  35.1940426  35.0137507  55.5791488  42.3209832
  34.8888647  54.7781228  41.8120778  35.6716599  56.0737681  41.8323802
  26.6345676  41.9340221  41.4986972  25.9132261  42.5476188  41.3594446
  27.4238931  42.4697985  41.4203618  29.4371989  39.2694647  47.7727624
  29.9606391  39.5156944  48.5353933  29.2184322  40.1014682  47.3530761
  24.8339270  41.5398322  35.6398749  24.5051976  40.6595701  35.4573855
  25.1878641  41.4845990  36.5275138  34.0818849  53.1753224  40.1493734
  33.9343812  52.2469932  40.3301304  34.9072343  53.1973315  39.6650810
  27.9481093  41.8271291  36.0074227  28.2877166  42.3557213  35.2852835
  28.3953214  42.1651698  36.7832793  37.6852971  53.9981783  41.2358607
  38.6099518  53.7924644  41.0983058  37.5168274  53.7498184  42.1447949
  30.6424534  40.2108342  45.4577295  30.3021355  39.4116155  45.8597974
  29.9363541  40.5110053  44.8854128  31.2941006  37.2957655  43.9104618
  32.1167075  36.8218133  43.7883508  31.5379070  38.0748138  44.4103304
  29.9349241  40.3245913  34.2067519  30.6557603  40.7027166  33.7031236
  29.3114545  41.0434790  34.3102497  34.0780363  41.0291062  35.1425852
  34.2943978  41.9115700  34.8414680  33.5974431  40.6377275  34.4131494
  28.8179585  43.9876775  41.7196596  28.6724166  44.3017078  42.6120878
  28.3404788  44.6061676  41.1667495  30.6775968  40.9779323  41.7677486
  30.6637536  40.0820416  41.4309784  31.3948396  40.9849987  42.4015772
  32.5302098  41.4116663  43.8130613  32.2719876  42.3333734  43.8114944
  31.9987139  41.0147098  44.5031077  37.4748287  54.5167450  36.5920699
  37.6485165  53.9513873  35.8394551  37.9677178  55.3168345  36.4100189
  23.2925247  46.5282120  44.6584257  22.7478715  47.3041928  44.7904532
  24.1704597  46.8752924  44.5003379  30.0812864  39.8593703  37.0365056
  30.2028775  38.9310350  37.2355943  29.7914906  39.8732389  36.1243371
  32.9504054  37.5448614  40.1731776  32.9725751  37.6087947  39.2183755
  33.3672113  36.7053123  40.3672282  38.4623460  53.8334215  33.6917597
  39.1574364  54.4540908  33.9104912  38.8046610  52.9829566  33.9669975
  24.0791269  45.6552016  47.5514414  23.3373005  45.8034651  48.1379045
  23.7584013  45.9160281  46.6881164  40.3614883  51.2833920  35.2204928
  40.8866207  51.6221193  34.4954248  40.2737235  50.3480936  35.0368062
  32.0234931  55.1967994  47.3494804  32.3322058  54.9517141  48.2217504
  32.8210414  55.4014633  46.8613674  32.0455544  57.3505904  39.5800181
  31.6060534  56.8582282  40.2733038  32.7963660  56.8078871  39.3392256
  24.5247883  53.5417445  39.5824809  25.3505902  53.2421216  39.2023452
  24.1741935  52.7725067  40.0314598  29.4929416  52.8943913  41.6522482
  28.8709425  52.2314618  41.3524710  30.1634283  52.9205045  40.9696130
  22.7256488  51.4603771  40.5413742  21.8888396  51.0325945  40.3597744
  22.6980133  51.6536214  41.4784534  29.5653943  41.3725701  51.2454989
  29.6142099  42.2487824  50.8632758  30.1076457  40.8303094  50.6726632
  29.0542923  51.4447836  35.1280943  29.2031043  52.1283301  34.4747616
  29.8609366  51.4252926  35.6430399  26.8095556  47.4713014  36.1342012
  26.5641598  46.5675344  36.3322222  26.9791470  47.4730164  35.1921490
  26.0791203  43.2041371  33.6328173  25.3860448  43.2785726  32.9768209
  25.8342955  42.4401715  34.1549690  34.7504860  34.7636973  41.0367664
  35.0306613  34.0960162  41.6628091  35.5355467  34.9566068  40.5242328
  32.5538328  53.9395967  32.5992690  31.9812295  54.5586154  32.1463162
  33.1271122  54.4895328  33.1332612  35.7735588  54.2233117  33.7301273
  36.7066261  54.1578678  33.9334148  35.6858801  55.0589384  33.2715805
  38.4023605  53.5398987  30.6905220  38.3237236  53.2058851  31.5840978
  39.2233271  54.0320755  30.6896693  32.9385127  45.2756779  29.9408743
  33.8844231  45.1462987  30.0097161  32.5599372  44.5371441  30.4178171
  31.1228044  43.2006756  29.8763628  30.2159499  42.9039868  29.9526342
  31.4004025  42.9036574  29.0097914  22.0405984  44.5213119  40.3262675
  21.7208769  43.6678427  40.0337049  21.4939412  44.7361697  41.0820642
  25.8185892  47.2375560  44.0432181  26.0371901  48.1692668  44.0620215
  26.2311666  46.8783535  44.8286985  32.7390110  37.7443645  36.0307869
  31.9290838  37.3990730  36.4063116  33.4274526  37.4351189  36.6195481
  34.6680658  36.8221692  37.6532166  35.2211696  37.2417146  38.3122189
  34.9050744  35.8957440  37.6955122  29.8926828  40.0593691  30.0175607
  30.7545992  40.3848589  30.2771425  30.0777173  39.2725187  29.5048673
  21.9094244  48.1416031  42.2955796  21.2157716  47.7269983  41.7825751
  22.6567235  48.1836567  41.6989215  38.0459465  38.9322217  37.1610830
  37.4658134  39.5907021  36.7788883  37.7795398  38.1099562  36.7498248
  23.8230987  48.0734284  40.1721811  23.8001675  48.1721972  39.2203694
  24.1331623  48.9199435  40.4938977  26.4818365  50.1310439  44.2868425
  27.4361618  50.0994382  44.2198357  26.2830888  49.6701063  45.1018651
  27.0717747  48.7011555  46.8539223  27.8910636  49.1955634  46.8774060
  27.3454554  47.7843524  46.8256791  36.8284343  41.0922308  36.2167179
  35.9410198  41.3771958  35.9987373  37.2438332  40.9316071  35.3694456
  24.8368593  55.6730059  41.3038623  24.7023061  54.9130460  40.7376621
  24.4200656  56.3970959  40.8367412  35.9727556  50.8566982  30.3115199
  36.6763406  51.0616985  30.9272854  35.2490205  51.4243744  30.5764282
  36.8025367  46.6076844  36.4317469  36.7460568  47.0645395  35.5925101
  37.3553709  45.8467528  36.2540312  27.9937719  56.5699376  41.5157066
  27.8770103  57.5144808  41.4135756  27.1730165  56.2672937  41.9042865
  37.8814254  51.2949512  32.3613659  38.7159858  50.8630710  32.1791133
  37.7198597  51.1231525  33.2890553  37.5360146  47.7981625  33.7269998
  37.4808950  47.6325896  32.7858442  36.9106201  48.5057658  33.8832188
  22.3252661  43.0349689  47.5531420  22.9711525  42.5248643  48.0418645
  22.1169812  43.7718371  48.1274845  30.8456271  37.2989734  33.3055316
  30.8334941  38.2431574  33.4623587  31.7379693  37.1159879  33.0114778
  29.0192233  57.2227638  44.7312994  29.9219480  57.2551248  45.0479489
  28.7929603  56.2928089  44.7459330  30.7745835  55.9758624  41.3923073
  29.8241466  55.9760486  41.2787445  31.0778322  55.2291359  40.8759108
  34.6608391  33.8932511  37.5601253  33.8940787  33.3390997  37.7057936
  35.0719096  33.9654379  38.4215405  26.6650152  40.1817306  51.6506434
  27.5281613  39.8254111  51.8609759  26.0915563  39.8431201  52.3381839
  43.3188235  61.7646591  42.3930360  42.9806747  61.6487656  41.5050895
  44.1878003  61.3637756  42.3731366  39.1775051  63.6182067  38.3827251
  38.6139916  63.5272004  37.6143539  39.0627446  62.7981972  38.8629744
  36.7239483  65.1133259  41.2211472  37.5160775  64.7724084  40.8057771
  36.9636133  65.2228234  42.1413625  44.7574610  67.2853035  33.6941716
  44.1062589  67.8707115  33.3075730  45.5518972  67.8159230  33.7536753
  38.6830237  64.3742172  34.0928850  39.4561113  63.8271159  33.9541726
  39.0355636  65.2386421  34.3043312  41.0196515  60.5334838  31.7247300
  41.2722035  60.0116360  30.9630763  40.0821074  60.3700984  31.8273984
  46.0639797  59.5370617  39.5322043  46.8502887  59.1190040  39.1812460
  46.3278502  60.4416709  39.7003692  46.2349875  64.9743467  34.2310700
  45.5995708  65.0478093  34.9431605  45.9047281  65.5637066  33.5529780
  40.7392803  62.4362944  33.9271675  40.6229061  61.7607848  34.5952760
  40.8495063  61.9495318  33.1103828  43.0824344  61.8973091  37.6318364
  42.7182551  61.3703712  38.3431286  43.9391460  61.5071560  37.4584850
  42.7229831  56.9262991  32.6279713  42.8904234  57.7943227  32.9950184
  42.5327000  57.0890273  31.7041002  38.9317646  61.8393767  40.3282248
  38.0068142  61.7069981  40.5359940  39.1802059  62.6187986  40.8252190
  42.7019052  59.3820649  33.6126380  42.5818677  59.8277699  34.4511860
  42.0071640  59.7305966  33.0539918  36.2926457  61.4827040  41.1626037
  36.4218838  61.7361519  42.0765449  35.6123908  62.0754748  40.8430692
  40.4625944  72.1524290  37.2616511  40.3849974  73.1032115  37.3404992
  39.8587588  71.8070163  37.9191437  48.4004118  59.8542122  34.4406714
  49.3121974  60.0869508  34.2654411  47.8913765  60.4379166  33.8781792
  42.5601662  64.5742348  39.0970380  43.0240008  64.8530051  38.3075003
  42.2958461  63.6725793  38.9143471  39.4525743  64.1213830  42.0350144
  40.0227101  64.5501098  41.3967628  40.0433855  63.8396414  42.7334329
  41.4970548  60.6965501  35.9059946  42.1994592  61.1486544  36.3733872
  41.1651177  60.0549319  36.5339839  35.2395882  58.9549053  41.2077079
  34.4494936  59.2106582  40.7317190  35.7307130  59.7697391  41.3129120
  37.1910628  59.3193633  38.1660556  36.3941791  59.4312327  38.6844051
  36.9636220  59.6580285  37.3001446  33.5233585  59.2079544  43.6392070
  33.7741624  60.0926554  43.9049646  34.0593134  59.0284145  42.8667162
  42.7364313  67.5106443  35.9822051  42.6009988  68.3557979  36.4106899
  43.2774126  67.7125721  35.2187985  36.1893710  65.0281881  36.5549976
  36.7018231  65.8225132  36.7055541  36.8416423  64.3308172  36.4883577
  37.9988595  68.1447638  38.6372729  38.1755224  69.0665602  38.4493713
  38.7945429  67.8306057  39.0667109  39.1219911  69.6625811  44.6383071
  39.6727336  69.5342875  43.8660065  38.2831387  69.9620700  44.2877964
  34.1542627  63.3570536  37.3309546  34.9917849  63.7667544  37.1143254
  34.3320895  62.4169978  37.3009740  46.0507059  61.0245616  33.0193379
  45.5353683  61.7950221  33.2581767  45.7784368  60.3510752  33.6426441
  43.6354170  55.8695317  38.0778618  42.7795767  55.4802167  37.8984256
  44.0481122  55.9487278  37.2178403  51.0241333  63.7777971  34.9546553
  50.2470776  63.4389130  34.5101715  51.7032814  63.7830594  34.2801518
  45.8393363  58.8972708  34.8453160  45.5343498  59.2118857  35.6963304
  46.7923805  58.9754128  34.8880493  44.2839794  65.0562932  36.4946114
  43.7561156  64.3215691  36.1819352  43.7827297  65.8337608  36.2486083
  39.0158522  55.7182598  38.8552726  39.5902274  55.4957779  38.1225919
  39.6029504  55.7871292  39.6081327  48.0738099  61.6056325  39.6617103
  48.5869981  62.2386317  40.1638812  48.7239323  61.0057520  39.2960463
  39.3428109  57.7487059  32.8748611  38.5065421  58.0861745  33.1957886
  39.2032879  57.6136039  31.9375748  41.3181190  52.5923847  37.5827795
  40.6645602  52.2772864  36.9584410  41.2761664  51.9699587  38.3087618
  42.4292395  62.8743142  29.4981087  41.5219456  62.6432395  29.6972236
  42.9263427  62.0780761  29.6855069  45.3360473  71.5840649  32.4177774
  44.6622172  71.8872346  33.0262731  45.7226295  72.3869729  32.0683231
  45.3353978  60.4797196  37.0378123  46.0825797  60.9918593  36.7285245
  45.6045567  60.1581249  37.8982517  43.6080628  62.9755737  34.0205078
  42.6991847  62.6914770  34.1177547  43.6375712  63.3954815  33.1608384
  48.8399895  66.5862326  37.7896245  48.3862223  65.7453236  37.8461436
  48.2093862  67.2223725  38.1271025  47.2832835  68.4238823  38.7246063
  47.5755809  68.9843880  38.0058429  47.7931455  68.7167384  39.4799222
  34.1768798  60.6961251  38.0020280  33.9793198  60.1030612  37.2771346
  33.6215462  60.3913461  38.7196219  42.1565522  60.5884357  40.1214873
  42.2114132  59.6358194  40.0457350  41.3456724  60.7443796  40.6056171
  43.3056716  64.5164480  31.3593156  42.8676146  63.8000339  30.8998794
  44.0467157  64.7440595  30.7978248  40.0957882  59.2061417  37.8805252
  39.2825747  59.5055588  38.2870444  40.5916876  58.8117106  38.5979734
  42.2466460  69.2019174  39.8139516  42.2042639  69.4280020  38.8848049
  43.1629159  68.9682549  39.9625318  51.4229831  62.7921677  37.4169475
  51.2847729  62.9823273  36.4890664  51.0666049  63.5541060  37.8737526
  40.3632261  66.0782203  39.6101479  41.1572859  65.5832523  39.4084054
  39.6523953  65.5500066  39.2469185  36.6715024  60.2225285  35.6861232
  35.7412612  60.1609740  35.9031194  36.7672496  59.7001238  34.8897873
  36.5900573  56.7480098  38.2739474  36.8507390  57.6625431  38.1648634
  37.4117745  56.2804540  38.4236086  43.5351689  71.7520321  34.6324853
  43.7103444  71.2808365  35.4470476  42.8484477  72.3786088  34.8606114
  47.4267943  63.3748862  30.9525214  46.8097114  62.6495690  30.8558266
  46.9584432  64.1358222  30.6092288  39.2166489  57.5934286  30.0746518
  38.3395956  57.4723087  29.7108765  39.6924242  56.8020365  29.8225407
  30.7368629  62.3811446  40.1688025  31.4239669  62.0673176  39.5809040
  30.5816758  63.2852811  39.8955277  42.4030415  69.9460577  37.3209039
  41.6197937  70.4882257  37.4147263  43.1023161  70.4634556  37.7203280
  46.7956846  64.5126893  37.5381667  45.8613125  64.6328356  37.3686372
  46.9733515  63.6099360  37.2741677  42.2962034  57.8972589  39.6914929
  41.9259822  57.3443630  40.3795834  42.7921127  57.2930723  39.1389929
  50.1829398  60.3544213  38.0731701  50.6489850  61.1872204  37.9992004
  50.6336898  59.8889194  38.7776960  48.2505629  66.6988034  35.0717853
  48.5265473  66.5844629  35.9811728  47.3810127  66.3005519  35.0330027
  44.8859693  70.9474385  38.7150667  45.0682087  70.1296041  39.1778419
  45.7092679  71.1642077  38.2775557  45.2201858  69.8742570  35.9765716
  45.7489625  69.3635025  35.3635878  45.4830078  69.5585100  36.8411249
  35.7218951  67.8906439  43.7201049  36.3072388  67.1450127  43.8528953
  35.5243789  68.2010396  44.6037713  38.5757606  70.9257687  38.7363492
  37.9067981  71.4103814  38.2527532  38.4370476  71.1726907  39.6506870
  30.3136606  60.4612039  42.4405492  30.3520705  59.9275630  43.2342610
  29.8076898  59.9347245  41.8216469  33.9445183  59.1876142  35.5159424
  34.2398624  58.2786820  35.4626477  33.0433219  59.1663881  35.1940426
  37.4739430  57.2632138  41.4986972  36.7526016  57.8768106  41.3594446
  38.2632686  57.7989903  41.4203618  35.6733025  56.8690239  35.6398749
  35.3445731  55.9887618  35.4573855  36.0272395  56.8137908  36.5275138
  44.9212604  68.5045142  40.1493734  44.7737566  67.5761849  40.3301304
  45.7466097  68.5265233  39.6650810  38.7874848  57.1563209  36.0074227
  39.1270920  57.6849130  35.2852835  39.2346968  57.4943615  36.7832793
  48.5246725  69.3273701  41.2358607  49.4493273  69.1216562  41.0983058
  48.3562029  69.0790102  42.1447949  40.7742995  55.6537831  34.2067519
  41.4951358  56.0319083  33.7031236  40.1508299  56.3726707  34.3102497
  44.9174118  56.3582980  35.1425852  45.1337732  57.2407618  34.8414680
  44.4368185  55.9669193  34.4131494  39.6573339  59.3168693  41.7196596
  39.5117920  59.6308996  42.6120878  39.1798543  59.9353593  41.1667495
  48.3142042  69.8459368  36.5920699  48.4878919  69.2805791  35.8394551
  48.8070933  70.6460263  36.4100189  34.1319001  61.8574037  44.6584257
  33.5872470  62.6333845  44.7904532  35.0098351  62.2044842  44.5003379
  40.9206618  55.1885621  37.0365056  41.0422529  54.2602267  37.2355943
  40.6308661  55.2024307  36.1243371  49.3017214  69.1626133  33.6917597
  49.9968119  69.7832825  33.9104912  49.6440364  68.3121484  33.9669975
  51.2008637  66.6125838  35.2204928  51.7259961  66.9513111  34.4954248
  51.1130990  65.6772853  35.0368062  35.3641637  68.8709362  39.5824809
  36.1899657  68.5713134  39.2023452  35.0135689  68.1016985  40.0314598
  40.3323170  68.2235830  41.6522482  39.7103179  67.5606535  41.3524710
  41.0028037  68.2496962  40.9696130  33.5650242  66.7895689  40.5413742
  32.7282150  66.3617863  40.3597744  33.5373887  66.9828132  41.4784534
  39.8936677  66.7739754  35.1280943  40.0424797  67.4575218  34.4747616
  40.7003121  66.7544844  35.6430399  37.6489310  62.8004931  36.1342012
  37.4035352  61.8967261  36.3322222  37.8185225  62.8022082  35.1921490
  36.9184958  58.5333289  33.6328173  36.2254203  58.6077644  32.9768209
  36.6736710  57.7693633  34.1549690  43.3932083  69.2687884  32.5992690
  42.8206050  69.8878071  32.1463162  43.9664876  69.8187246  33.1332612
  46.6129342  69.5525034  33.7301273  47.5460016  69.4870596  33.9334148
  46.5252555  70.3881301  33.2715805  49.2417359  68.8690905  30.6905220
  49.1630991  68.5350768  31.5840978  50.0627026  69.3612673  30.6896693
  43.7778881  60.6048697  29.9408743  44.7237986  60.4754905  30.0097161
  43.3993126  59.8663359  30.4178171  41.9621798  58.5298673  29.8763628
  41.0553254  58.2331786  29.9526342  42.2397779  58.2328491  29.0097914
  32.8799739  59.8505037  40.3262675  32.5602523  58.9970345  40.0337049
  32.3333167  60.0653615  41.0820642  36.6579646  62.5667478  44.0432181
  36.8765656  63.4984586  44.0620215  37.0705420  62.2075452  44.8286985
  40.7320583  55.3885609  30.0175607  41.5939747  55.7140507  30.2771425
  40.9170927  54.6017105  29.5048673  32.7487999  63.4707948  42.2955796
  32.0551470  63.0561901  41.7825751  33.4960990  63.5128485  41.6989215
  34.6624741  63.4026202  40.1721811  34.6395429  63.5013889  39.2203694
  34.9725378  64.2491353  40.4938977  37.3212119  65.4602357  44.2868425
  38.2755373  65.4286299  44.2198357  37.1224643  64.9992981  45.1018651
  47.6678097  56.4214225  36.2167179  46.7803952  56.7063876  35.9987373
  48.0832086  56.2607989  35.3694456  35.6762348  71.0021977  41.3038623
  35.5416816  70.2422377  40.7376621  35.2594410  71.7262876  40.8367412
  46.8121311  66.1858900  30.3115199  47.5157161  66.3908903  30.9272854
  46.0883960  66.7535662  30.5764282  47.6419121  61.9368761  36.4317469
  47.5854323  62.3937313  35.5925101  48.1947464  61.1759446  36.2540312
  51.4523927  57.7258493  37.2567588  51.1960861  57.3255129  38.0875796
  50.8276795  58.4402287  37.1317727  48.7208008  66.6241429  32.3613659
  49.5553612  66.1922628  32.1791133  48.5592351  66.4523443  33.2890553
  48.3753900  63.1273543  33.7269998  48.3202704  62.9617814  32.7858442
  47.7499956  63.8349576  33.8832188  41.6850026  52.6281652  33.3055316
  41.6728696  53.5723492  33.4623587  42.5773448  52.4451797  33.0114778
  57.3492283  77.1411080  42.4568835  57.9870693  77.0217828  41.7532175
  57.2313126  78.0891924  42.5156788  54.1581990  77.0938509  42.3930360
  53.8200501  76.9779573  41.5050895  55.0271758  76.6929674  42.3731366
  50.0168805  78.9473985  38.3827251  49.4533670  78.8563922  37.6143539
  49.9021200  78.1273889  38.8629744  55.5968364  82.6144953  33.6941716
  54.9456344  83.1999033  33.3075730  56.3912727  83.1451148  33.7536753
  49.5223991  79.7034090  34.0928850  50.2954867  79.1563077  33.9541726
  49.8749390  80.5678339  34.3043312  51.8590269  75.8626756  31.7247300
  52.1115790  75.3408277  30.9630763  50.9214828  75.6992901  31.8273984
  56.9033552  74.8662534  39.5322043  57.6896641  74.4481957  39.1812460
  57.1672256  75.7708626  39.7003692  57.0743629  80.3035385  34.2310700
  56.4389462  80.3770011  34.9431605  56.7441036  80.8928983  33.5529780
  62.3041979  74.8037767  40.4355022  63.0367151  74.2336984  40.6692851
  61.5481335  74.4159368  40.8761528  51.5786558  77.7654862  33.9271675
  51.4622816  77.0899765  34.5952760  51.6888818  77.2787236  33.1103828
  53.9218099  77.2265009  37.6318364  53.5576306  76.6995630  38.3431286
  54.7785215  76.8363478  37.4584850  53.5623586  72.2554909  32.6279713
  53.7297988  73.1235145  32.9950184  53.3720755  72.4182190  31.7041002
  59.7196063  73.2354428  41.9742981  58.8112940  73.1669836  41.6801742
  59.6683658  73.7126373  42.8024806  53.5412807  74.7112566  33.6126380
  53.4212432  75.1569617  34.4511860  52.8465395  75.0597884  33.0539918
  51.3019699  87.4816208  37.2616511  51.2243728  88.4324033  37.3404992
  50.6981342  87.1362080  37.9191437  59.2397873  75.1834039  34.4406714
  60.1515729  75.4161426  34.2654411  58.7307520  75.7671084  33.8781792
  57.8467455  80.1659858  41.8320295  57.2176317  80.3305572  41.1296363
  57.4593117  80.5801467  42.6031259  61.7256687  81.1014296  39.1864659
  61.0407725  81.4813197  38.6361692  61.8100536  81.7109622  39.9196607
  53.3995417  79.9034266  39.0970380  53.8633762  80.1821969  38.3075003
  53.1352215  79.0017710  38.9143471  52.3364303  76.0257418  35.9059946
  53.0388346  76.4778462  36.3733872  52.0044931  75.3841237  36.5339839
  60.0953446  81.6246210  43.9582360  60.9170890  81.2226397  43.6765042
  60.0915849  81.5214444  44.9098476  48.0304382  74.6485550  38.1660556
  47.2335546  74.7604244  38.6844051  47.8029974  74.9872202  37.3001446
  68.1859440  77.9684959  40.3067331  67.4323148  77.3992357  40.1511336
  68.3206981  77.9347623  41.2537966  53.5758068  82.8398361  35.9822051
  53.4403742  83.6849897  36.4106899  54.1167880  83.0417639  35.2187985
  47.0287465  80.3573799  36.5549976  47.5411986  81.1517049  36.7055541
  47.6810178  79.6600089  36.4883577  48.8382350  83.4739555  38.6372729
  49.0148978  84.3957520  38.4493713  49.6339183  83.1597974  39.0667109
  44.9936382  78.6862453  37.3309546  45.8311604  79.0959462  37.1143254
  45.1714649  77.7461895  37.3009740  56.8900814  76.3537534  33.0193379
  56.3747437  77.1242139  33.2581767  56.6178122  75.6802670  33.6426441
  61.8635088  79.1069889  34.9546553  61.0864531  78.7681048  34.5101715
  62.5426569  79.1122512  34.2801518  56.6787117  74.2264626  34.8453160
  56.3737253  74.5410775  35.6963304  57.6317559  74.3046046  34.8880493
  55.1233549  80.3854849  36.4946114  54.5954910  79.6507609  36.1819352
  54.6221052  81.1629526  36.2486083  60.1026395  78.5803870  41.6113161
  59.4450069  79.2703131  41.6993289  60.9066794  78.9700302  41.9547147
  49.8552276  71.0474516  38.8552726  50.4296028  70.8249697  38.1225919
  50.4423259  71.1163210  39.6081327  58.9131854  76.9348242  39.6617103
  59.4263735  77.5678234  40.1638812  59.5633078  76.3349438  39.2960463
  50.1821864  73.0778977  32.8748611  49.3459176  73.4153663  33.1957886
  50.0426633  72.9427956  31.9375748  53.2686149  78.2035060  29.4981087
  52.3613211  77.9724313  29.6972236  53.7657181  77.4072679  29.6855069
  56.1754228  86.9132567  32.4177774  55.5015927  87.2164264  33.0262731
  56.5620050  87.7161647  32.0683231  55.3912685  74.4097698  41.9075443
  54.4735246  74.6312645  41.7497131  55.8072828  74.4844008  41.0487150
  56.1747732  75.8089114  37.0378123  56.9219551  76.3210511  36.7285245
  56.4439322  75.4873166  37.8982517  54.4474382  78.3047654  34.0205078
  53.5385602  78.0206687  34.1177547  54.4769466  78.7246733  33.1608384
  59.6793650  81.9154244  37.7896245  59.2255977  81.0745154  37.8461436
  59.0487617  82.5515642  38.1271025  58.6226569  72.8446230  39.0196913
  57.8849326  72.3323616  39.3507155  58.8753343  72.4046612  38.2080189
  58.1226589  83.7530741  38.7246063  58.4149564  84.3135798  38.0058429
  58.6325210  84.0459302  39.4799222  52.9959277  75.9176275  40.1214873
  53.0507886  74.9650111  40.0457350  52.1850479  76.0735714  40.6056171
  54.1450470  79.8456398  31.3593156  53.7069900  79.1292257  30.8998794
  54.8860911  80.0732513  30.7978248  50.9351636  74.5353335  37.8805252
  50.1219502  74.8347505  38.2870444  51.4310631  74.1409024  38.5979734
  53.0860214  84.5311092  39.8139516  53.0436393  84.7571938  38.8848049
  54.0022913  84.2974466  39.9625318  62.2623585  78.1213595  37.4169475
  62.1241484  78.3115191  36.4890664  61.9059804  78.8832978  37.8737526
  62.2892965  80.1890122  42.4280746  62.7229471  80.0965411  43.2763800
  63.0024545  80.1647623  41.7900762  47.5108779  75.5517202  35.6861232
  46.5806367  75.4901658  35.9031194  47.6066251  75.0293155  34.8897873
  47.4294328  72.0772015  38.2739474  47.6901145  72.9917349  38.1648634
  48.2511500  71.6096458  38.4236086  63.1508514  80.2313823  44.9613632
  63.3444404  81.1359633  45.2072907  63.0509132  79.7721242  45.7952217
  54.3745443  87.0812239  34.6324853  54.5497199  86.6100282  35.4470476
  53.6878231  87.7078005  34.8606114  55.3302506  81.3584745  40.6788154
  54.9952339  81.3185515  41.5745804  54.8306452  80.6929461  40.2058564
  58.2661698  78.7040780  30.9525214  57.6490869  77.9787608  30.8558266
  57.7978186  79.4650140  30.6092288  59.9215830  83.4139688  48.6130994
  59.8628376  82.7298908  47.9461577  60.3235348  84.1558678  48.1611620
  48.9406528  90.2301602  41.4064713  49.1803127  90.8620126  42.0843732
  48.0975725  89.8789642  41.6930072  50.0560244  72.9226204  30.0746518
  49.1789710  72.8015005  29.7108765  50.5317997  72.1312282  29.8225407
  53.4534390  86.0380724  43.8106217  53.3804562  86.8435696  44.3225522
  53.0111783  86.2372690  42.9854238  53.2424170  85.2752494  37.3209039
  52.4591692  85.8174175  37.4147263  53.9416915  85.7926474  37.7203280
  64.4050577  76.7887489  41.6061535  64.3940454  77.6712205  41.2355469
  63.5367957  76.4359040  41.4116072  57.6350601  79.8418811  37.5381667
  56.7006879  79.9620274  37.3686372  57.8127269  78.9391278  37.2741677
  61.0223152  75.6836130  38.0731701  61.4883604  76.5164122  37.9992004
  61.4730653  75.2181112  38.7776960  59.0899383  82.0279952  35.0717853
  59.3659227  81.9136546  35.9811728  58.2203882  81.6297437  35.0330027
  55.7253447  86.2766303  38.7150667  55.9075842  85.4587958  39.1778419
  56.5486433  86.4933995  38.2775557  56.0595613  85.2034488  35.9765716
  56.5883379  84.6926942  35.3635878  56.3223832  84.8877018  36.8411249
  49.4151361  86.2549604  38.7363492  48.7461736  86.7395732  38.2527532
  49.2764230  86.5018825  39.6506870  53.5556629  88.2893348  45.3346150
  54.1074937  88.4524969  46.0995235  53.8962823  88.8797786  44.6626175
  44.7838938  74.5168059  35.5159424  45.0792379  73.6078738  35.4626477
  43.8826973  74.4955799  35.1940426  56.6925016  86.2375323  42.3209832
  56.5676156  85.4365063  41.8120778  57.3504108  86.7321517  41.8323802
  46.5126779  72.1982157  35.6398749  46.1839485  71.3179536  35.4573855
  46.8666150  72.1429826  36.5275138  55.7606358  83.8337060  40.1493734
  55.6131321  82.9053767  40.3301304  56.5859852  83.8557150  39.6650810
  49.6268602  72.4855127  36.0074227  49.9664675  73.0141048  35.2852835
  50.0740723  72.8235533  36.7832793  59.3640480  84.6565618  41.2358607
  60.2887027  84.4508480  41.0983058  59.1955783  84.4082020  42.1447949
  51.6136750  70.9829748  34.2067519  52.3345112  71.3611001  33.7031236
  50.9902054  71.7018625  34.3102497  55.7567872  71.6874897  35.1425852
  55.9731487  72.5699535  34.8414680  55.2761940  71.2961111  34.4131494
  59.1535796  85.1751286  36.5920699  59.3272674  84.6097708  35.8394551
  59.6464687  85.9752181  36.4100189  51.7600373  70.5177539  37.0365056
  51.8816284  69.5894185  37.2355943  51.4702415  70.5316225  36.1243371
  65.0075187  77.9387709  38.2110998  65.4506333  77.1895034  37.8130122
  64.1301698  77.9297845  37.8284730  60.1410969  84.4918050  33.6917597
  60.8361873  85.1124743  33.9104912  60.4834119  83.6413401  33.9669975
  62.0402392  81.9417756  35.2204928  62.5653716  82.2805029  34.4954248
  61.9524744  81.0064771  35.0368062  53.7243053  88.0089739  39.5800181
  53.2848043  87.5166118  40.2733038  54.4751169  87.4662707  39.3392256
  46.2035392  84.2001280  39.5824809  47.0293411  83.9005052  39.2023452
  45.8529443  83.4308902  40.0314598  44.4043997  82.1187606  40.5413742
  43.5675905  81.6909781  40.3597744  44.3767642  82.3120050  41.4784534
  61.7296298  82.5750659  50.5256126  60.9391842  82.5574798  49.9860625
  61.4929652  83.1138953  51.2805162  50.7330432  82.1031671  35.1280943
  50.8818552  82.7867136  34.4747616  51.5396875  82.0836762  35.6430399
  63.3512370  81.8440067  48.0830876  63.0597178  82.2070048  48.9194337
  62.7384501  81.1307076  47.9044208  64.5508052  79.4092947  40.6033446
  65.3854943  79.8482751  40.7671006  64.6867181  78.9331600  39.7841692
  48.4883065  78.1296849  36.1342012  48.2429107  77.2259179  36.3322222
  48.6578979  78.1314000  35.1921490  47.7578712  73.8625207  33.6328173
  47.0647957  73.9369562  32.9768209  47.5130464  73.0985550  34.1549690
  54.2325837  84.5979802  32.5992690  53.6599804  85.2169989  32.1463162
  54.8058631  85.1479164  33.1332612  60.3001227  73.8438442  44.7839239
  61.2518650  73.9436540  44.8051463  60.1304677  73.0516711  45.2937324
  57.4523097  84.8816952  33.7301273  58.3853770  84.8162514  33.9334148
  57.3646310  85.7173219  33.2715805  60.0811114  84.1982822  30.6905220
  60.0024745  83.8642686  31.5840978  60.9020780  84.6904590  30.6896693
  62.7789305  77.0644562  43.8981539  62.7465625  76.1260562  44.0841223
  63.3889928  77.1428598  43.1647364  54.6172636  75.9340615  29.9408743
  55.5631740  75.8046823  30.0097161  54.2386881  75.1955277  30.4178171
  62.9283793  73.8555605  43.9439822  62.4122842  73.0714062  43.7569751
  63.8123742  73.5274322  44.1086342  68.5965855  78.1260569  43.0387576
  69.3269243  77.8645857  43.5995279  67.9872800  77.3889290  43.0789644
  66.6781152  76.2668431  43.6362027  65.9514315  76.1324396  43.0278519
  66.2628439  76.5745260  44.4418745  52.8015553  73.8590591  29.8763628
  51.8947008  73.5623704  29.9526342  53.0791534  73.5620409  29.0097914
  51.5714337  70.7177526  30.0175607  52.4333501  71.0432425  30.2771425
  51.7564682  69.9309022  29.5048673  59.7246974  69.5906053  37.1610830
  59.1445643  70.2490857  36.7788883  59.4582907  68.7683397  36.7498248
  58.5071852  71.7506143  36.2167179  57.6197707  72.0355794  35.9987373
  58.9225841  71.5899907  35.3694456  61.8586388  71.7752664  39.9321518
  62.6346778  72.2649117  40.2046135  61.1334522  72.2010718  40.3893387
  64.2958947  72.4880283  40.9895459  64.8903437  72.2476019  40.2788767
  64.3685530  71.7687414  41.6168995  46.5156102  86.3313894  41.3038623
  46.3810570  85.5714295  40.7376621  46.0988165  87.0554794  40.8367412
  57.6515065  81.5150818  30.3115199  58.3550915  81.7200820  30.9272854
  56.9277714  82.0827580  30.5764282  58.4812876  77.2660679  36.4317469
  58.4248077  77.7229230  35.5925101  59.0341218  76.5051364  36.2540312
  62.2917682  73.0550411  37.2567588  62.0354616  72.6547047  38.0875796
  61.6670550  73.7694205  37.1317727  66.6030019  75.7946484  39.7638880
  66.0429577  75.8639673  40.5370442  65.9973523  75.6187469  39.0438376
  49.6725228  87.2283211  41.5157066  49.5557612  88.1728644  41.4135756
  48.8517674  86.9256773  41.9042865  59.5601763  81.9533347  32.3613659
  60.3947367  81.5214545  32.1791133  59.3986106  81.7815361  33.2890553
  59.2147655  78.4565460  33.7269998  59.1596459  78.2909732  32.7858442
  58.5893710  79.1641493  33.8832188  52.5243780  67.9573569  33.3055316
  52.5122450  68.9015409  33.4623587  53.4167202  67.7743715  33.0114778
  50.6979742  87.8811473  44.7312994  51.6006989  87.9135083  45.0479489
  50.4717112  86.9511924  44.7459330  52.4533344  86.6342460  41.3923073
  51.5028975  86.6344321  41.2787445  52.7565830  85.8875194  40.8759108
  68.1886038  92.4702998  42.4568835  68.8264448  92.3509745  41.7532175
  68.0706881  93.4183842  42.5156788  64.9975744  92.4230426  42.3930360
  64.6594256  92.3071491  41.5050895  65.8665512  92.0221591  42.3731366
  60.8562560  94.2765903  38.3827251  60.2927425  94.1855840  37.6143539
  60.7414955  93.4565807  38.8629744  65.4795527  93.5765278  48.3516566
  65.4684168  93.1818076  47.4797069  65.6416167  92.8431351  48.9450337
  58.4026992  95.7717094  41.2211472  59.1948284  95.4307919  40.8057771
  58.6423642  95.8812069  42.1413625  66.4362119  97.9436870  33.6941716
  65.7850098  98.5290951  33.3075730  67.2306481  98.4743065  33.7536753
  60.3617746  95.0326007  34.0928850  61.1348622  94.4854995  33.9541726
  60.7143145  95.8970257  34.3043312  62.2002788  96.3602390  47.2995750
  61.9092654  97.2648021  47.1842416  62.8359773  96.4018917  48.0139819
  63.1258995  93.7379238  43.8897109  63.7222567  93.5135261  43.1754072
  63.1833967  92.9963984  44.4922557  62.6984024  91.1918674  31.7247300
  62.9509544  90.6700195  30.9630763  61.7608583  91.0284819  31.8273984
  67.7427306  90.1954452  39.5322043  68.5290396  89.7773875  39.1812460
  68.0066011  91.1000544  39.7003692  67.9137384  95.6327302  34.2310700
  67.2783217  95.7061929  34.9431605  67.5834790  96.2220901  33.5529780
  73.1435733  90.1329685  40.4355022  73.8760905  89.5628902  40.6692851
  72.3875089  89.7451286  40.8761528  62.4180312  93.0946780  33.9271675
  62.3016570  92.4191683  34.5952760  62.5282572  92.6079153  33.1103828
  64.7611853  92.5556927  37.6318364  64.3970060  92.0287548  38.3431286
  65.6178969  92.1655396  37.4584850  70.6661154  83.8451259  44.8949631
  70.3344479  84.7146670  44.6710846  70.0706767  83.5287543  45.5743661
  64.4017340  87.5846826  32.6279713  64.5691743  88.4527063  32.9950184
  64.2114509  87.7474108  31.7041002  67.1592673  96.0463805  44.2945543
  66.8593396  96.9488844  44.1861351  66.8143733  95.7795988  45.1466696
  60.6105155  92.4977602  40.3282248  59.6855651  92.3653816  40.5359940
  60.8589568  93.2771821  40.8252190  70.5589817  88.5646345  41.9742981
  69.6506694  88.4961754  41.6801742  70.5077413  89.0418290  42.8024806
  64.3806561  90.0404484  33.6126380  64.2606186  90.4861535  34.4511860
  63.6859149  90.3889802  33.0539918  57.9713966  92.1410876  41.1626037
  58.1006347  92.3945355  42.0765449  57.2911417  92.7338584  40.8430692
  62.1413453 102.8108126  37.2616511  62.0637483 103.7615951  37.3404992
  61.5375097 102.4653998  37.9191437  64.6330683  89.9835991  49.9177878
  63.8564017  90.5429911  49.9080743  65.2721246  90.4692774  50.4392748
  72.4251464  86.7662784  43.7520855  71.7825844  87.0595317  43.1060649
  71.9206392  86.6515704  44.5574051  70.0791627  90.5125957  34.4406714
  70.9909483  90.7453344  34.2654411  69.5701274  91.0963001  33.8781792
  62.8877055  92.7921444  49.4795845  63.6291740  93.3306488  49.2030669
  62.1814041  93.4187733  49.6367397  68.3632395  94.9350585  48.0768006
  68.7715751  94.4932995  47.3322639  67.6409656  94.3603212  48.3302199
  64.7163465  89.8723192  45.4501563  65.5624660  90.2962605  45.5936212
  64.6562103  89.2156816  46.1440126  68.6861210  95.4951775  41.8320295
  68.0570072  95.6597490  41.1296363  68.2986872  95.9093385  42.6031259
  72.5650441  96.4306213  39.1864659  71.8801480  96.8105115  38.6361692
  72.6494291  97.0401540  39.9196607  67.8662910  87.5327560  47.1082737
  67.6223842  88.2869621  46.5717013  68.1422841  87.9112908  47.9429984
  69.8201373  94.0766172  45.7860003  70.0318268  94.7197932  45.1094384
  69.7731121  93.2428489  45.3181933  67.4227602  86.6883993  42.6896575
  66.5612081  86.9865247  42.9813312  67.4490037  86.9054392  41.7577607
  64.2389171  95.2326184  39.0970380  64.7027517  95.5113887  38.3075003
  63.9745969  94.3309628  38.9143471  61.1313252  94.7797665  42.0350144
  61.7014610  95.2084933  41.3967628  61.7221364  94.4980250  42.7334329
  63.1758057  91.3549336  35.9059946  63.8782101  91.8070380  36.3733872
  62.8438686  90.7133155  36.5339839  61.6238419  89.9461093  50.2811155
  60.9937080  90.6277373  50.5146552  61.5174507  89.8344174  49.3364293
  56.9183391  89.6132889  41.2077079  56.1282445  89.8690417  40.7317190
  57.4094639  90.4281226  41.3129120  70.9347201  96.9538128  43.9582360
  71.7564645  96.5518315  43.6765042  70.9309604  96.8506362  44.9098476
  58.8698137  89.9777468  38.1660556  58.0729300  90.0896162  38.6844051
  58.6423729  90.3164120  37.3001446  64.7003804  96.5022171  46.1143070
  64.7648237  96.9642578  46.9501242  63.9914728  95.8719536  46.2425380
  55.2021094  89.8663379  43.6392070  55.4529133  90.7510389  43.9049646
  55.7380643  89.6867981  42.8667162  79.0253194  93.2976876  40.3067331
  78.2716902  92.7284274  40.1511336  79.1600735  93.2639541  41.2537966
  64.4151822  98.1690279  35.9822051  64.2797497  99.0141814  36.4106899
  64.9561635  98.3709556  35.2187985  57.8681219  95.6865717  36.5549976
  58.3805740  96.4808967  36.7055541  58.5203932  94.9892007  36.4883577
  59.6776104  98.8031473  38.6372729  59.8542732  99.7249438  38.4493713
  60.4732938  98.4889892  39.0667109  63.8187123  85.6639738  50.2356663
  64.5596836  86.2646891  50.1561125  64.0505046  84.9217375  49.6774705
  58.9628461  90.8496105  48.5134892  58.8481976  89.9481362  48.8141991
  58.1072978  91.0959802  48.1619709  66.0420298  98.7913845  50.1122393
  65.5984153  98.0050224  49.7943297  66.7037512  98.9792996  49.4466284
  60.8007420 100.3209647  44.6383071  61.3514845 100.1926710  43.8660065
  59.9618896 100.6204536  44.2877964  68.1401536  99.0716645  48.1403794
  68.1220012  99.8925526  47.6484063  69.0621457  98.9470720  48.3653935
  64.5974591  96.5860774  48.9827302  65.1302927  95.8249063  48.7526610
  64.0688672  96.2934426  49.7251457  67.7644286  81.6920840  44.5120944
  67.4208555  82.5822482  44.4360055  68.1323248  81.5022498  43.6490529
  55.8330136  94.0154371  37.3309546  56.6705358  94.4251379  37.1143254
  56.0108404  93.0753813  37.3009740  67.7294568  91.6829452  33.0193379
  67.2141192  92.4534056  33.2581767  67.4571877  91.0094588  33.6426441
  65.3141679  86.5279152  38.0778618  64.4583276  86.1386003  37.8984256
  65.7268631  86.6071113  37.2178403  66.8440826  84.0625496  42.4770177
  66.3405622  84.0255631  41.6637983  67.1371433  84.9718238  42.5366834
  63.0883712  84.1464225  41.4836359  63.9536709  83.9507034  41.1242249
  63.1561221  83.9174577  42.4105716  72.7028842  94.4361806  34.9546553
  71.9258285  94.0972966  34.5101715  73.3820323  94.4414429  34.2801518
  67.5180872  89.5556544  34.8453160  67.2131007  89.8702693  35.6963304
  68.4711314  89.6337964  34.8880493  65.9627303  95.7146767  36.4946114
  65.4348665  94.9799527  36.1819352  65.4614806  96.4921443  36.2486083
  70.9420149  93.9095787  41.6113161  70.2843824  94.5995049  41.6993289
  71.7460549  94.2992219  41.9547147  60.6946031  86.3766433  38.8552726
  61.2689783  86.1541615  38.1225919  61.2817013  86.4455128  39.6081327
  69.7525608  92.2640160  39.6617103  70.2657490  92.8970152  40.1638812
  70.4026832  91.6641356  39.2960463  61.0215618  88.4070894  32.8748611
  60.1852930  88.7445581  33.1957886  60.8820388  88.2719874  31.9375748
  62.9968699  83.2507682  37.5827795  62.3433111  82.9356699  36.9584410
  62.9549173  82.6283423  38.3087618  64.1079904  93.5326977  29.4981087
  63.2006965  93.3016231  29.6972236  64.6050936  92.7364596  29.6855069
  67.0147982 102.2424484  32.4177774  66.3409681 102.5456181  33.0262731
  67.4013804 103.0453565  32.0683231  66.2306439  89.7389616  41.9075443
  65.3129000  89.9604563  41.7497131  66.6466583  89.8135926  41.0487150
  67.0141487  91.1381031  37.0378123  67.7613306  91.6502429  36.7285245
  67.2833076  90.8165084  37.8982517  65.2868137  93.6339572  34.0205078
  64.3779356  93.3498605  34.1177547  65.3163221  94.0538651  33.1608384
  70.5187404  97.2446162  37.7896245  70.0649731  96.4037071  37.8461436
  69.8881371  97.8807560  38.1271025  69.4620324  88.1738148  39.0196913
  68.7243081  87.6615534  39.3507155  69.7147097  87.7338529  38.2080189
  68.9620344  99.0822658  38.7246063  69.2543318  99.6427715  38.0058429
  69.4718964  99.3751219  39.4799222  69.5631951  80.9514400  39.6138682
  69.8690828  80.0911763  39.3264597  70.2884556  81.5432020  39.4137676
  55.8556307  91.3545086  38.0020280  55.6580707  90.7614447  37.2771346
  55.3002971  91.0497296  38.7196219  63.8353031  91.2468193  40.1214873
  63.8901641  90.2942029  40.0457350  63.0244233  91.4027632  40.6056171
  64.9844225  95.1748316  31.3593156  64.5463655  94.4584175  30.8998794
  65.7254666  95.4024431  30.7978248  61.7745391  89.8645252  37.8805252
  60.9613256  90.1639423  38.2870444  62.2704385  89.4700941  38.5979734
  63.9253969  99.8603009  39.8139516  63.8830148 100.0863856  38.8848049
  64.8416668  99.6266384  39.9625318  67.3719603  90.3287077  46.7120146
  67.7268990  90.5558550  47.5714611  68.0191734  90.6605454  46.0897401
  73.1017340  93.4505513  37.4169475  72.9635238  93.6407109  36.4890664
  72.7453558  94.2124896  37.8737526  61.2659466  87.4363608  43.4966487
  61.9058845  87.2952367  42.7989450  60.4336996  87.1498121  43.1205089
  73.1286719  95.5182040  42.4280746  73.5623226  95.4257329  43.2763800
  73.8418300  95.4939540  41.7900762  62.0419770  96.7366038  39.6101479
  62.8360368  96.2416359  39.4084054  61.3311462  96.2083902  39.2469185
  66.8614614  99.1184134  43.9613847  66.9151636  99.6875070  44.7291563
  65.9929395  99.2886019  43.5967884  58.3502533  90.8809120  35.6861232
  57.4200121  90.8193576  35.9031194  58.4460005  90.3585073  34.8897873
  58.2688082  87.4063933  38.2739474  58.5294899  88.3209266  38.1648634
  59.0905254  86.9388376  38.4236086  59.7413007  88.8201690  45.4438298
  60.4136061  88.6119052  44.7950947  58.9142794  88.6223776  45.0043530
  73.9902269  95.5605740  44.9613632  74.1838159  96.4651551  45.2072907
  73.8902887  95.1013160  45.7952217  65.6438579  85.4463631  47.4603959
  64.9966495  86.1453581  47.3668435  66.4139595  85.8799775  47.8280207
  69.0517377  95.7112483  50.5354512  68.9002884  95.4823035  49.6184596
  69.0422057  96.6683085  50.5485857  65.8202714  93.2844396  45.5200779
  66.7494774  93.4355556  45.3469746  65.3993744  93.3728417  44.6649425
  64.6191046  97.3095060  43.2899316  64.4802131  96.9413845  44.1625254
  63.8305642  97.8242700  43.1183274  65.2139198 102.4104157  34.6324853
  65.3890953 101.9392200  35.4470476  64.5271986 103.0369923  34.8606114
  66.1696261  96.6876663  40.6788154  65.8346093  96.6477433  41.5745804
  65.6700206  96.0221379  40.2058564  60.1440505  92.0944293  46.2040735
  60.0060303  91.3624532  46.8052274  61.0545428  92.0053193  45.9224923
  69.1055452  94.0332697  30.9525214  68.4884623  93.3079526  30.8558266
  68.6371941  94.7942058  30.6092288  62.7722805  91.8064252  45.6924415
  63.4822424  91.1657445  45.6511033  62.7292114  92.0577147  46.6150596
  70.7609584  98.7431606  48.6130994  70.7022130  98.0590826  47.9461577
  71.1629102  99.4850596  48.1611620  61.4851739  88.7929470  47.5120054
  60.9489096  88.3420209  48.1641651  60.8968448  88.9275379  46.7690519
  59.7800283 105.5593520  41.4064713  60.0196881 106.1912044  42.0843732
  58.9369479 105.2081560  41.6930072  60.8953998  88.2518122  30.0746518
  60.0183465  88.1306923  29.7108765  61.3711751  87.4604200  29.8225407
  70.7626991  96.7071190  46.8444974  69.8753770  96.3697111  46.9671373
  71.3325542  95.9754221  47.0813739  52.4156138  93.0395281  40.1688025
  53.1027178  92.7257011  39.5809040  52.2604267  93.9436646  39.8955277
  57.2190861  87.9285478  44.5973049  57.1349049  87.3211148  43.8623459
  56.3973567  88.4194496  44.5982545  64.2928145 101.3672642  43.8106217
  64.2198316 102.1727614  44.3225522  63.8505538 101.5664608  42.9854238
  64.0817924 100.6044412  37.3209039  63.2985446 101.1466092  37.4147263
  64.7810670 101.1218392  37.7203280  67.3914574  86.4139042  39.9643244
  67.8883274  85.6609004  39.6444314  66.6201556  86.4503358  39.3986453
  75.2444332  92.1179407  41.6061535  75.2334208  93.0004123  41.2355469
  74.3761711  91.7650958  41.4116072  66.7526828 101.2659476  45.9664376
  67.4654800 101.9006941  45.8940277  66.2616857 101.3623342  45.1504377
  68.4744355  95.1710729  37.5381667  67.5400634  95.2912191  37.3686372
  68.6521024  94.2683196  37.2741677  63.9749543  88.5556425  39.6914929
  63.6047331  88.0027465  40.3795834  64.4708636  87.9514558  39.1389929
  71.8616906  91.0128048  38.0731701  72.3277359  91.8456040  37.9992004
  72.3124407  90.5473030  38.7776960  61.8038742  99.0153920  46.7869946
  62.5048201  99.6490403  46.9399341  61.3333857  99.3568651  46.0265586
  69.9293138  97.3571869  35.0717853  70.2052982  97.2428464  35.9811728
  69.0597636  96.9589354  35.0330027  69.8333569  83.3808635  42.1122603
  68.9196649  83.6112862  42.2804810  70.2626671  83.4647079  42.9636635
  69.6040028  91.5698527  44.6122497  68.9511478  91.8174434  43.9574950
  69.9820408  90.7562665  44.2784974  66.5647202 101.6058220  38.7150667
  66.7469596 100.7879876  39.1778419  67.3880188 101.8225912  38.2775557
  66.8989367 100.5326405  35.9765716  67.4277134 100.0218860  35.3635878
  67.1617587 100.2168936  36.8411249  65.6527601  92.3118338  51.0988534
  64.9768238  92.2112467  51.7690909  66.4755235  92.1557552  51.5624531
  57.4006460  98.5490275  43.7201049  57.9859897  97.8033963  43.8528953
  57.2031298  98.8594231  44.6037713  60.2545115 101.5841522  38.7363492
  59.5855490 102.0687650  38.2527532  60.1157985 101.8310742  39.6506870
  51.9924115  91.1195875  42.4405492  52.0308214  90.5859465  43.2342610
  51.4864407  90.5931080  41.8216469  64.3950384 103.6185266  45.3346150
  64.9468692 103.7816887  46.0995235  64.7356577 104.2089703  44.6626175
  59.3714877  85.9660415  45.9368035  59.4356203  86.8275246  45.5245432
  59.3081997  85.3534417  45.2040393  58.8467149  88.0383548  49.5841069
  59.4739188  87.6560625  50.1978593  57.9895068  87.8197750  49.9496761
  69.2461258  98.4446523  51.1894804  69.7901162  99.0576481  50.6949759
  68.6648103  99.0026101  51.7061817  55.6232692  89.8459977  35.5159424
  55.9186133  88.9370655  35.4626477  54.7220728  89.8247716  35.1940426
  67.5318771 101.5667241  42.3209832  67.4069910 100.7656981  41.8120778
  68.1897862 102.0613434  41.8323802  59.1526939  87.9215974  41.4986972
  58.4313525  88.5351941  41.3594446  59.9420195  88.4573738  41.4203618
  69.5953679  99.3676261  43.9489382  68.6484015  99.2481612  43.8767709
  69.9436452  98.4798759  44.0315644  61.9553253  85.2570400  47.7727624
  62.4787654  85.5032697  48.5353933  61.7365586  86.0890435  47.3530761
  57.3520534  87.5274075  35.6398749  57.0233240  86.6471454  35.4573855
  57.7059904  87.4721743  36.5275138  66.6000113  99.1628977  40.1493734
  66.4525075  98.2345685  40.3301304  67.4253606  99.1849068  39.6650810
  60.4662357  87.8147044  36.0074227  60.8058429  88.3432966  35.2852835
  60.9134477  88.1527451  36.7832793  70.2034234  99.9857536  41.2358607
  71.1280782  99.7800397  41.0983058  70.0349538  99.7373937  42.1447949
  63.1605798  86.1984095  45.4577295  62.8202618  85.3991908  45.8597974
  62.4544804  86.4985806  44.8854128  63.8122270  83.2833408  43.9104618
  64.6348339  82.8093886  43.7883508  64.0560333  84.0623891  44.4103304
  62.4530504  86.3121666  34.2067519  63.1738867  86.6902919  33.7031236
  61.8295808  87.0310543  34.3102497  66.5961627  87.0166815  35.1425852
  66.8125241  87.8991453  34.8414680  66.1155694  86.6253028  34.4131494
  61.3360848  89.9752528  41.7196596  61.1905429  90.2892831  42.6120878
  60.8586052  90.5937429  41.1667495  63.1957231  86.9655076  41.7677486
  63.1818800  86.0696170  41.4309784  63.9129659  86.9725740  42.4015772
  65.0483362  87.3992416  43.8130613  64.7901140  88.3209487  43.8114944
  64.5168402  87.0022851  44.5031077  69.9929551 100.5043204  36.5920699
  70.1666428  99.9389626  35.8394551  70.4858442 101.3044098  36.4100189
  55.8106510  92.5157873  44.6584257  55.2659979  93.2917681  44.7904532
  56.6885860  92.8628677  44.5003379  62.5994127  85.8469456  37.0365056
  62.7210038  84.9186103  37.2355943  62.3096169  85.8608142  36.1243371
  65.4685317  83.5324367  40.1731776  65.4907014  83.5963700  39.2183755
  65.8853377  82.6928876  40.3672282  75.8468942  93.2679626  38.2110998
  76.2900088  92.5186952  37.8130122  74.9695452  93.2589763  37.8284730
  70.9804723  99.8209968  33.6917597  71.6755628 100.4416661  33.9104912
  71.3227873  98.9705319  33.9669975  56.5972532  91.6427769  47.5514414
  55.8554268  91.7910404  48.1379045  56.2765277  91.9036034  46.6881164
  72.8796146  97.2709673  35.2204928  73.4047470  97.6096946  34.4954248
  72.7918499  96.3356689  35.0368062  64.5416195 101.1843747  47.3494804
  64.8503321 100.9392894  48.2217504  65.3391677 101.3890386  46.8613674
  64.5636807 103.3381657  39.5800181  64.1241797 102.8458035  40.2733038
  65.3144924 102.7954624  39.3392256  57.0429146  99.5293198  39.5824809
  57.8687166  99.2296969  39.2023452  56.6923198  98.7600820  40.0314598
  62.0110679  98.8819666  41.6522482  61.3890688  98.2190371  41.3524710
  62.6815546  98.9080798  40.9696130  55.2437751  97.4479524  40.5413742
  54.4069659  97.0201698  40.3597744  55.2161396  97.6411967  41.4784534
  62.0835207  87.3601454  51.2454989  62.1323362  88.2363577  50.8632758
  62.6257721  86.8178847  50.6726632  72.5690052  97.9042577  50.5256126
  71.7785596  97.8866716  49.9860625  72.3323407  98.4430871  51.2805162
  72.6887927  94.7535043  47.8388854  72.7385932  94.5885051  48.7804377
  72.5801851  93.8862302  47.4486735  61.5724186  97.4323589  35.1280943
  61.7212306  98.1159054  34.4747616  62.3790630  97.4128679  35.6430399
  69.9791690  90.7365971  49.1548161  70.8801553  90.5972436  48.8632159
  70.0539664  90.9020426  50.0946338  64.3134495  88.1132826  48.0001347
  63.4437805  88.4066392  47.7283936  64.5493975  88.6973271  48.7208611
  74.1906124  97.1731985  48.0830876  73.8990933  97.5361966  48.9194337
  73.5778255  96.4598993  47.9044208  75.3901807  94.7384865  40.6033446
  76.2248698  95.1774669  40.7671006  75.5260935  94.2623518  39.7841692
  72.4393312  92.2964600  46.5510934  72.9147434  92.4892246  45.7429785
  71.5158878  92.3523785  46.3054317  59.3276819  93.4588767  36.1342012
  59.0822861  92.5551097  36.3322222  59.4972734  93.4605917  35.1921490
  67.0173529  84.3312443  45.5166768  67.5355473  85.0673470  45.1913256
  66.6628662  84.6376436  46.3513527  58.5972467  89.1917124  33.6328173
  57.9041712  89.2661479  32.9768209  58.3524218  88.4277468  34.1549690
  67.2686123  80.7512726  41.0367664  67.5487877  80.0835915  41.6628091
  68.0536730  80.9441821  40.5242328  65.0719592  99.9271720  32.5992690
  64.4993559 100.5461907  32.1463162  65.6452385 100.4771081  33.1332612
  71.1394981  89.1730360  44.7839239  72.0912404  89.2728457  44.8051463
  70.9698432  88.3808628  45.2937324  69.1609361  86.2585943  44.9698640
  68.5659293  86.5390956  44.2745129  68.8759058  86.7479844  45.7415381
  68.2916851 100.2108870  33.7301273  69.2247525 100.1454431  33.9334148
  68.2040064 101.0465137  33.2715805  70.9204868  99.5274740  30.6905220
  70.8418500  99.1934604  31.5840978  71.7414535 100.0196508  30.6896693
  73.6183059  92.3936479  43.8981539  73.5859379  91.4552480  44.0841223
  74.2283683  92.4720516  43.1647364  65.4566390  91.2632532  29.9408743
  66.4025495  91.1338740  30.0097161  65.0780635  90.5247194  30.4178171
  73.7677548  89.1847523  43.9439822  73.2516596  88.4005979  43.7569751
  74.6517496  88.8566239  44.1086342  71.4288275  82.9288538  39.9035635
  71.2313096  82.6203627  40.7878967  72.0387980  83.6550177  40.0333565
  79.4359609  93.4552486  43.0387576  80.1662998  93.1937774  43.5995279
  78.8266555  92.7181208  43.0789644  77.5174906  91.5960349  43.6362027
  76.7908070  91.4616314  43.0278519  77.1022193  91.9037177  44.4418745
  65.3405083  95.3150278  51.4009400  66.2608092  95.4928877  51.5949446
  65.3054666  94.3706324  51.2489099  63.6409307  89.1882509  29.8763628
  62.7340763  88.8915621  29.9526342  63.9185288  88.8912327  29.0097914
  54.5587248  90.5088872  40.3262675  54.2390032  89.6554180  40.0337049
  54.0120676  90.7237450  41.0820642  58.3367155  93.2251313  44.0432181
  58.5553165  94.1568421  44.0620215  58.7492929  92.8659288  44.8286985
  65.2571373  83.7319398  36.0307869  64.4472101  83.3866483  36.4063116
  65.9455790  83.4226942  36.6195481  67.1861921  82.8097445  37.6532166
  67.7392960  83.2292899  38.3122189  67.4232008  81.8833193  37.6955122
  63.2095020  88.7984519  53.4334930  63.1091747  89.7478876  53.3647021
  62.9916563  88.4702758  52.5611000  62.4108092  86.0469444  30.0175607
  63.2727256  86.3724342  30.2771425  62.5958436  85.2600940  29.5048673
  54.4275508  94.1291784  42.2955796  53.7338979  93.7145736  41.7825751
  55.1748499  94.1712320  41.6989215  70.5640728  84.9197970  37.1610830
  69.9839397  85.5782774  36.7788883  70.2976661  84.0975315  36.7498248
  69.0144295  84.3203028  39.3632151  69.5144073  84.4319563  38.5546470
  69.6579903  84.0164081  40.0032959  63.0726291  92.2281658  52.2499992
  62.5893372  93.0282018  52.4563881  63.1587230  92.2389603  51.2967436
  56.3412250  94.0610037  40.1721811  56.3182938  94.1597725  39.2203694
  56.6512887  94.9075188  40.4938977  58.9999628  96.1186192  44.2868425
  59.9542882  96.0870135  44.2198357  58.8012152  95.6576816  45.1018651
  59.5899010  94.6887308  46.8539223  60.4091899  95.1831387  46.8774060
  59.8635818  93.7719277  46.8256791  69.3465606  87.0798061  36.2167179
  68.4591461  87.3647711  35.9987373  69.7619595  86.9191824  35.3694456
  72.6980143  87.1044582  39.9321518  73.4740533  87.5941034  40.2046135
  71.9728277  87.5302636  40.3893387  75.1352701  87.8172201  40.9895459
  75.7297192  87.5767937  40.2788767  75.2079285  87.0979332  41.6168995
  57.3549857 101.6605812  41.3038623  57.2204325 100.9006213  40.7376621
  56.9381919 102.3846712  40.8367412  68.4908820  96.8442735  30.3115199
  69.1944670  97.0492738  30.9272854  67.7671469  97.4119497  30.5764282
  69.3206630  92.5952597  36.4317469  69.2641832  93.0521148  35.5925101
  69.8734973  91.8343281  36.2540312  73.1311436  88.3842329  37.2567588
  72.8748370  87.9838964  38.0875796  72.5064304  89.0986123  37.1317727
  77.4423774  91.1238402  39.7638880  76.8823332  91.1931591  40.5370442
  76.8367277  90.9479386  39.0438376  60.5118983 102.5575129  41.5157066
  60.3951367 103.5020561  41.4135756  59.6911429 102.2548691  41.9042865
  70.3995517  97.2825265  32.3613659  71.2341121  96.8506463  32.1791133
  70.2379860  97.1107278  33.2890553  70.0541409  93.7857378  33.7269998
  69.9990213  93.6201649  32.7858442  69.4287465  94.4933411  33.8832188
  54.8433924  89.0225442  47.5531420  55.4892788  88.5124396  48.0418645
  54.6351076  89.7594124  48.1274845  67.3687317  96.0906290  53.0523561
  68.2378476  96.2646942  52.6910196  66.8894068  96.9100707  52.9299290
  63.3637535  83.2865487  33.3055316  63.3516205  84.2307327  33.4623587
  64.2560957  83.1035632  33.0114778  61.5373497 103.2103391  44.7312994
  62.4400744 103.2427001  45.0479489  61.3110867 102.2803842  44.7459330
  63.2927099 101.9634377  41.3923073  62.3422730 101.9636239  41.2787445
  63.5959585 101.2167112  40.8759108  67.1789654  79.8808264  37.5601253
  66.4122050  79.3266750  37.7057936  67.5900359  79.9530132  38.4215405
  59.1831415  86.1693059  51.6506434  60.0462877  85.8129864  51.8609759
  58.6096826  85.8306954  52.3381839  79.0279792 107.7994916  42.4568835
  79.6658202 107.6801663  41.7532175  78.9100635 108.7475760  42.5156788
  75.8369499 107.7522344  42.3930360  75.4988010 107.6363409  41.5050895
  76.7059267 107.3513509  42.3731366  71.6956314 109.6057820  38.3827251
  71.1321179 109.5147757  37.6143539  71.5808709 108.7857725  38.8629744
  76.3189282 108.9057196  48.3516566  76.3077922 108.5109994  47.4797069
  76.4809921 108.1723268  48.9450337  69.2420746 111.1009012  41.2211472
  70.0342038 110.7599837  40.8057771  69.4817396 111.2103987  42.1413625
  77.2755873 113.2728788  33.6941716  76.6243853 113.8582868  33.3075730
  78.0700236 113.8034983  33.7536753  71.2011500 110.3617925  34.0928850
  71.9742376 109.8146912  33.9541726  71.5536899 111.2262174  34.3043312
  73.0396543 111.6894307  47.2995750  72.7486409 112.5939938  47.1842416
  73.6753527 111.7310835  48.0139819  73.9652750 109.0671156  43.8897109
  74.5616322 108.8427178  43.1754072  74.0227721 108.3255901  44.4922557
  73.5377778 106.5210591  31.7247300  73.7903299 105.9992113  30.9630763
  72.6002337 106.3576737  31.8273984  78.5821061 105.5246370  39.5322043
  79.3684150 105.1065793  39.1812460  78.8459765 106.4292462  39.7003692
  78.7531138 110.9619220  34.2310700  78.1176971 111.0353846  34.9431605
  78.4228545 111.5512819  33.5529780  83.9829488 105.4621603  40.4355022
  84.7154660 104.8920820  40.6692851  83.2268844 105.0743203  40.8761528
  73.2574067 108.4238697  33.9271675  73.1410325 107.7483601  34.5952760
  73.3676327 107.9371071  33.1103828  75.6005608 107.8848844  37.6318364
  75.2363815 107.3579465  38.3431286  76.4572724 107.4947313  37.4584850
  81.5054908  99.1743177  44.8949631  81.1738233 100.0438588  44.6710846
  80.9100522  98.8579461  45.5743661  75.2411095 102.9138744  32.6279713
  75.4085497 103.7818980  32.9950184  75.0508264 103.0766026  31.7041002
  77.9986428 111.3755723  44.2945543  77.6987151 112.2780762  44.1861351
  77.6537487 111.1087906  45.1466696  71.4498909 107.8269520  40.3282248
  70.5249406 107.6945734  40.5359940  71.6983323 108.6063739  40.8252190
  81.3983572 103.8938263  41.9742981  80.4900449 103.8253672  41.6801742
  81.3471167 104.3710208  42.8024806  75.2200316 105.3696402  33.6126380
  75.0999941 105.8153452  34.4511860  74.5252904 105.7181719  33.0539918
  68.8107720 107.4702793  41.1626037  68.9400102 107.7237272  42.0765449
  68.1305172 108.0630501  40.8430692  75.4724437 105.3127909  49.9177878
  74.6957771 105.8721829  49.9080743  76.1115000 105.7984692  50.4392748
  83.2645218 102.0954702  43.7520855  82.6219598 102.3887235  43.1060649
  82.7600147 101.9807622  44.5574051  80.9185382 105.8417875  34.4406714
  81.8303238 106.0745261  34.2654411  80.4095029 106.4254919  33.8781792
  73.7270810 108.1213362  49.4795845  74.4685494 108.6598406  49.2030669
  73.0207795 108.7479651  49.6367397  79.2026149 110.2642503  48.0768006
  79.6109505 109.8224913  47.3322639  78.4803411 109.6895130  48.3302199
  75.5557219 105.2015109  45.4501563  76.4018415 105.6254523  45.5936212
  75.4955857 104.5448734  46.1440126  79.5254964 110.8243693  41.8320295
  78.8963826 110.9889407  41.1296363  79.1380626 111.2385303  42.6031259
  78.7056665 102.8619478  47.1082737  78.4617597 103.6161538  46.5717013
  78.9816595 103.2404825  47.9429984  80.6595127 109.4058090  45.7860003
  80.8712023 110.0489850  45.1094384  80.6124876 108.5720407  45.3181933
  78.2621356 102.0175911  42.6896575  77.4005835 102.3157164  42.9813312
  78.2883791 102.2346310  41.7577607  75.0782926 110.5618101  39.0970380
  75.5421271 110.8405804  38.3075003  74.8139724 109.6601546  38.9143471
  71.9707007 110.1089583  42.0350144  72.5408364 110.5376851  41.3967628
  72.5615119 109.8272167  42.7334329  74.0151812 106.6841254  35.9059946
  74.7175855 107.1362297  36.3733872  73.6832440 106.0425072  36.5339839
  72.4632173 105.2753010  50.2811155  71.8330834 105.9569291  50.5146552
  72.3568261 105.1636092  49.3364293  67.7577146 104.9424806  41.2077079
  66.9676200 105.1982335  40.7317190  68.2488393 105.7573144  41.3129120
  69.7091891 105.3069386  38.1660556  68.9123055 105.4188080  38.6844051
  69.4817483 105.6456038  37.3001446  75.5397559 111.8314089  46.1143070
  75.6041991 112.2934496  46.9501242  74.8308483 111.2011454  46.2425380
  66.0414849 105.1955297  43.6392070  66.2922887 106.0802307  43.9049646
  66.5774397 105.0159898  42.8667162  75.2545577 113.4982196  35.9822051
  75.1191251 114.3433732  36.4106899  75.7955389 113.7001474  35.2187985
  71.7412916  99.5773776  52.6436406  71.3479862  99.0239975  53.3184050
  72.5579057  99.8884355  53.0342923  68.7074974 111.0157634  36.5549976
  69.2199494 111.8100885  36.7055541  69.3597687 110.3183925  36.4883577
  70.5169859 114.1323391  38.6372729  70.6936487 115.0541355  38.4493713
  71.3126692 113.8181810  39.0667109  74.6580877 100.9931655  50.2356663
  75.3990591 101.5938808  50.1561125  74.8898800 100.2509293  49.6774705
  69.8022215 106.1788022  48.5134892  69.6875730 105.2773280  48.8141991
  68.9466733 106.4251719  48.1619709  71.6401174 115.6501564  44.6383071
  72.1908599 115.5218628  43.8660065  70.8012650 115.9496453  44.2877964
  75.4368345 111.9152692  48.9827302  75.9696682 111.1540980  48.7526610
  74.9082426 111.6226344  49.7251457  78.6038040  97.0212758  44.5120944
  78.2602310  97.9114400  44.4360055  78.9717003  96.8314416  43.6490529
  66.6723891 109.3446289  37.3309546  67.5099113 109.7543297  37.1143254
  66.8502158 108.4045731  37.3009740  78.5688323 107.0121369  33.0193379
  78.0534946 107.7825974  33.2581767  78.2965631 106.3386505  33.6426441
  76.1535434 101.8571070  38.0778618  75.2977030 101.4677920  37.8984256
  76.5662386 101.9363031  37.2178403  77.6834580  99.3917413  42.4770177
  77.1799376  99.3547548  41.6637983  77.9765187 100.3010156  42.5366834
  73.9277466  99.4756143  41.4836359  74.7930463  99.2798952  41.1242249
  73.9954975  99.2466495  42.4105716  78.3574626 104.8848461  34.8453160
  78.0524762 105.1994611  35.6963304  79.3105068 104.9629881  34.8880493
  76.8021058 111.0438685  36.4946114  76.2742419 110.3091444  36.1819352
  76.3008561 111.8213361  36.2486083  81.7813904 109.2387705  41.6113161
  81.1237578 109.9286967  41.6993289  82.5854303 109.6284137  41.9547147
  71.5339785 101.7058351  38.8552726  72.1083537 101.4833532  38.1225919
  72.1210768 101.7747045  39.6081327  80.5919363 107.5932078  39.6617103
  81.1051244 108.2262070  40.1638812  81.2420587 106.9933273  39.2960463
  71.8609373 103.7362812  32.8748611  71.0246685 104.0737498  33.1957886
  71.7214142 103.6011792  31.9375748  73.8362453  98.5799600  37.5827795
  73.1826866  98.2648617  36.9584410  73.7942927  97.9575340  38.3087618
  74.9473658 108.8618895  29.4981087  74.0400720 108.6308148  29.6972236
  75.4444690 108.0656514  29.6855069  77.0700194 105.0681533  41.9075443
  76.1522755 105.2896480  41.7497131  77.4860337 105.1427844  41.0487150
  77.8535241 106.4672949  37.0378123  78.6007060 106.9794346  36.7285245
  78.1226831 106.1457002  37.8982517  76.1261891 108.9631490  34.0205078
  75.2173111 108.6790523  34.1177547  76.1556975 109.3830568  33.1608384
  80.3014078 103.5030065  39.0196913  79.5636835 102.9907452  39.3507155
  80.5540852 103.0630447  38.2080189  80.4025706  96.2806317  39.6138682
  80.7084583  95.4203681  39.3264597  81.1278311  96.8723938  39.4137676
  66.6950062 106.6837004  38.0020280  66.4974462 106.0906365  37.2771346
  66.1396726 106.3789214  38.7196219  74.6746786 106.5760110  40.1214873
  74.7295395 105.6233947  40.0457350  73.8637988 106.7319549  40.6056171
  75.8237979 110.5040233  31.3593156  75.3857409 109.7876092  30.8998794
  76.5648420 110.7316348  30.7978248  72.6139145 105.1937170  37.8805252
  71.8007011 105.4931341  38.2870444  73.1098140 104.7992859  38.5979734
  74.7647723 115.1894927  39.8139516  74.7223902 115.4155773  38.8848049
  75.6810422 114.9558302  39.9625318  78.2113357 105.6578995  46.7120146
  78.5662745 105.8850468  47.5714611  78.8585488 105.9897371  46.0897401
  83.9411094 108.7797430  37.4169475  83.8028993 108.9699026  36.4890664
  83.5847313 109.5416813  37.8737526  72.1053220 102.7655526  43.4966487
  72.7452600 102.6244285  42.7989450  71.2730751 102.4790039  43.1205089
  72.8813524 112.0657956  39.6101479  73.6754123 111.5708276  39.4084054
  72.1705216 111.5375819  39.2469185  69.1896288 106.2101038  35.6861232
  68.2593876 106.1485493  35.9031194  69.2853760 105.6876991  34.8897873
  69.1081837 102.7355851  38.2739474  69.3688654 103.6501184  38.1648634
  69.9299009 102.2680293  38.4236086  70.5806762 104.1493608  45.4438298
  71.2529815 103.9410970  44.7950947  69.7536548 103.9515694  45.0043530
  76.4832334 100.7755549  47.4603959  75.8360249 101.4745498  47.3668435
  77.2533349 101.2091693  47.8280207  79.8911132 111.0404401  50.5354512
  79.7396638 110.8114953  49.6184596  79.8815811 111.9975002  50.5485857
  76.6596468 108.6136314  45.5200779  77.5888528 108.7647473  45.3469746
  76.2387498 108.7020334  44.6649425  75.4584800 112.6386978  43.2899316
  75.3195886 112.2705762  44.1625254  74.6699396 113.1534617  43.1183274
  77.0090015 112.0168581  40.6788154  76.6739848 111.9769351  41.5745804
  76.5093961 111.3513297  40.2058564  70.9834259 107.4236211  46.2040735
  70.8454057 106.6916450  46.8052274  71.8939183 107.3345111  45.9224923
  73.6116560 107.1356170  45.6924415  74.3216178 106.4949362  45.6511033
  73.5685868 107.3869065  46.6150596  72.3245494 104.1221388  47.5120054
  71.7882851 103.6712126  48.1641651  71.7362202 104.2567297  46.7690519
  71.7347753 103.5810039  30.0746518  70.8577219 103.4598840  29.7108765
  72.2105506 102.7896118  29.8225407  63.2549893 108.3687199  40.1688025
  63.9420933 108.0548929  39.5809040  63.0998022 109.2728564  39.8955277
  68.0584615 103.2577396  44.5973049  67.9742804 102.6503065  43.8623459
  67.2367321 103.7486414  44.5982545  78.2308329 101.7430959  39.9643244
  78.7277028 100.9900922  39.6444314  77.4595310 101.7795276  39.3986453
  79.3138110 110.5002646  37.5381667  78.3794388 110.6204109  37.3686372
  79.4914778 109.5975113  37.2741677  74.8143298 103.8848342  39.6914929
  74.4441085 103.3319383  40.3795834  75.3102390 103.2806476  39.1389929
  82.7010661 106.3419966  38.0731701  83.1671113 107.1747957  37.9992004
  83.1518161 105.8764947  38.7776960  72.6432496 114.3445837  46.7869946
  73.3441956 114.9782320  46.9399341  72.1727611 114.6860569  46.0265586
  80.6727324  98.7100553  42.1122603  79.7590404  98.9404780  42.2804810
  81.1020425  98.7938997  42.9636635  80.4433782 106.8990445  44.6122497
  79.7905232 107.1466352  43.9574950  80.8214162 106.0854583  44.2784974
  76.4921355 107.6410256  51.0988534  75.8161992 107.5404385  51.7690909
  77.3148989 107.4849469  51.5624531  68.2400214 113.8782192  43.7201049
  68.8253651 113.1325880  43.8528953  68.0425053 114.1886149  44.6037713
  62.8317869 106.4487792  42.4405492  62.8701969 105.9151383  43.2342610
  62.3258162 105.9222998  41.8216469  70.2108631 101.2952333  45.9368035
  70.2749958 102.1567164  45.5245432  70.1475752 100.6826335  45.2040393
  69.6860904 103.3675466  49.5841069  70.3132943 102.9852543  50.1978593
  68.8288823 103.1489667  49.9496761  66.4626447 105.1751895  35.5159424
  66.7579888 104.2662573  35.4626477  65.5614482 105.1539634  35.1940426
  69.9920694 103.2507891  41.4986972  69.2707279 103.8643859  41.3594446
  70.7813949 103.7865656  41.4203618  72.7947007 100.5862318  47.7727624
  73.3181409 100.8324614  48.5353933  72.5759340 101.4182353  47.3530761
  68.1914288 102.8565992  35.6398749  67.8626994 101.9763371  35.4573855
  68.5453659 102.8013661  36.5275138  71.3056111 103.1438962  36.0074227
  71.6452184 103.6724883  35.2852835  71.7528232 103.4819368  36.7832793
  73.9999552 101.5276013  45.4577295  73.6596373 100.7283826  45.8597974
  73.2938558 101.8277724  44.8854128  74.6516024  98.6125325  43.9104618
  75.4742093  98.1385803  43.7883508  74.8954088  99.3915809  44.4103304
  73.2924259 101.6413584  34.2067519  74.0132621 102.0194836  33.7031236
  72.6689563 102.3602460  34.3102497  77.4355381 102.3458733  35.1425852
  77.6518996 103.2283371  34.8414680  76.9549449 101.9544946  34.4131494
  72.1754603 105.3044446  41.7196596  72.0299184 105.6184749  42.6120878
  71.6979806 105.9229346  41.1667495  74.0350986 102.2946994  41.7677486
  74.0212554 101.3988087  41.4309784  74.7523414 102.3017658  42.4015772
  75.8877116 102.7284334  43.8130613  75.6294894 103.6501405  43.8114944
  75.3562157 102.3314769  44.5031077  66.6500265 107.8449790  44.6584257
  66.1053733 108.6209598  44.7904532  67.5279615 108.1920595  44.5003379
  73.4387882 101.1761374  37.0365056  73.5603793 100.2478020  37.2355943
  73.1489924 101.1900060  36.1243371  76.3079072  98.8616285  40.1731776
  76.3300769  98.9255618  39.2183755  76.7247131  98.0220793  40.3672282
  67.4366287 106.9719687  47.5514414  66.6948023 107.1202322  48.1379045
  67.1159031 107.2327952  46.6881164  67.8822900 114.8585115  39.5824809
  68.7080920 114.5588887  39.2023452  67.5316952 114.0892738  40.0314598
  72.8504434 114.2111583  41.6522482  72.2284443 113.5482289  41.3524710
  73.5209301 114.2372715  40.9696130  66.0831506 112.7771442  40.5413742
  65.2463414 112.3493616  40.3597744  66.0555151 112.9703885  41.4784534
  72.9228961 102.6893372  51.2454989  72.9717117 103.5655494  50.8632758
  73.4651475 102.1470765  50.6726632  72.4117941 112.7615507  35.1280943
  72.5606061 113.4450971  34.4747616  73.2184384 112.7420597  35.6430399
  80.8185444 106.0657889  49.1548161  81.7195307 105.9264354  48.8632159
  80.8933419 106.2312344  50.0946338  75.1528250 103.4424744  48.0001347
  74.2831559 103.7358310  47.7283936  75.3887730 104.0265189  48.7208611
  83.2787067 107.6256517  46.5510934  83.7541189 107.8184164  45.7429785
  82.3552632 107.6815703  46.3054317  70.1670574 108.7880684  36.1342012
  69.9216615 107.8843014  36.3322222  70.3366488 108.7897835  35.1921490
  77.8567283  99.6604361  45.5166768  78.3749227 100.3965388  45.1913256
  77.5022416  99.9668354  46.3513527  69.4366221 104.5209042  33.6328173
  68.7435466 104.5953397  32.9768209  69.1917973 103.7569386  34.1549690
  78.1079878  96.0804643  41.0367664  78.3881631  95.4127832  41.6628091
  78.8930485  96.2733739  40.5242328  81.9788736 104.5022277  44.7839239
  82.9306159 104.6020375  44.8051463  81.8092186 103.7100546  45.2937324
  80.0003115 101.5877861  44.9698640  79.4053048 101.8682873  44.2745129
  79.7152812 102.0771762  45.7415381  84.4576814 107.7228397  43.8981539
  84.4253134 106.7844398  44.0841223  85.0677437 107.8012434  43.1647364
  76.2960145 106.5924450  29.9408743  77.2419249 106.4630658  30.0097161
  75.9174390 105.8539112  30.4178171  84.6071302 104.5139440  43.9439822
  84.0910351 103.7297897  43.7569751  85.4911251 104.1858157  44.1086342
  82.2682029  98.2580456  39.9035635  82.0706850  97.9495544  40.7878967
  82.8781735  98.9842095  40.0333565  76.1798837 110.6442196  51.4009400
  77.1001847 110.8220795  51.5949446  76.1448420 109.6998242  51.2489099
  74.4803062 104.5174426  29.8763628  73.5734517 104.2207539  29.9526342
  74.7579043 104.2204245  29.0097914  65.3981002 105.8380790  40.3262675
  65.0783786 104.9846098  40.0337049  64.8514430 106.0529368  41.0820642
  69.1760910 108.5543231  44.0432181  69.3946919 109.4860339  44.0620215
  69.5886683 108.1951205  44.8286985  76.0965127  99.0611316  36.0307869
  75.2865856  98.7158401  36.4063116  76.7849544  98.7518860  36.6195481
  78.0255676  98.1389363  37.6532166  78.5786714  98.5584816  38.3122189
  78.2625762  97.2125111  37.6955122  74.0488775 104.1276437  53.4334930
  73.9485502 105.0770794  53.3647021  73.8310317 103.7994675  52.5611000
  73.2501846 101.3761362  30.0175607  74.1121010 101.7016260  30.2771425
  73.4352191 100.5892858  29.5048673  65.2669262 109.4583701  42.2955796
  64.5732734 109.0437654  41.7825751  66.0142253 109.5004238  41.6989215
  81.4034483 100.2489888  37.1610830  80.8233152 100.9074692  36.7788883
  81.1370416  99.4267233  36.7498248  79.8538049  99.6494946  39.3632151
  80.3537828  99.7611480  38.5546470  80.4973657  99.3455999  40.0032959
  73.9120045 107.5573575  52.2499992  73.4287127 108.3573936  52.4563881
  73.9980984 107.5681520  51.2967436  67.1806005 109.3901955  40.1721811
  67.1576693 109.4889642  39.2203694  67.4906641 110.2367106  40.4938977
  69.8393383 111.4478110  44.2868425  70.7936636 111.4162052  44.2198357
  69.6405906 110.9868734  45.1018651  70.4292765 110.0179226  46.8539223
  71.2485654 110.5123305  46.8774060  70.7029572 109.1011194  46.8256791
  80.1859361 102.4089978  36.2167179  79.2985216 102.6939629  35.9987373
  80.6013350 102.2483742  35.3694456  83.5373897 102.4336499  39.9321518
  84.3134287 102.9232952  40.2046135  82.8122031 102.8594554  40.3893387
  85.9746456 103.1464119  40.9895459  86.5690946 102.9059855  40.2788767
  86.0473039 102.4271249  41.6168995  80.1600385 107.9244514  36.4317469
  80.1035586 108.3813066  35.5925101  80.7128727 107.1635199  36.2540312
  83.9705191 103.7134246  37.2567588  83.7142125 103.3130882  38.0875796
  83.3458059 104.4278040  37.1317727  88.2817528 106.4530320  39.7638880
  87.7217086 106.5223509  40.5370442  87.6761032 106.2771304  39.0438376
  80.8935164 109.1149296  33.7269998  80.8383968 108.9493567  32.7858442
  80.2681219 109.8225329  33.8832188  65.6827679 104.3517360  47.5531420
  66.3286543 103.8416314  48.0418645  65.4744830 105.0886042  48.1274845
  78.2081071 111.4198208  53.0523561  79.0772231 111.5938860  52.6910196
  77.7287823 112.2392624  52.9299290  74.2031289  98.6157405  33.3055316
  74.1909959  99.5599245  33.4623587  75.0954711  98.4327550  33.0114778
  78.0183409  95.2100181  37.5601253  77.2515805  94.6558668  37.7057936
  78.4294114  95.2822050  38.4215405  70.0225170 101.4984977  51.6506434
  70.8856631 101.1421782  51.8609759  69.4490581 101.1598872  52.3381839
  24.8311021   8.1597450  29.1814142  25.4689431   8.0404197  28.4777482
  24.7131864   9.1078294  29.2402094  22.1220510   9.2659730  35.0761872
  22.1109151   8.8712528  34.2042376  22.2841150   8.5325802  35.6695644
  18.8427772  12.0496842  34.0241056  18.5517638  12.9542472  33.9087723
  19.4784756  12.0913369  34.7385126  19.7683978   9.4273690  30.6142416
  20.3647551   9.2029713  29.8999379  19.8258950   8.6858436  31.2167864
  29.7860717   5.8224137  27.1600329  30.5185889   5.2523354  27.3938158
  29.0300072   5.4345738  27.6006834  27.3086137  -0.4654289  31.6194937
  26.9769462   0.4041122  31.3956152  26.7131750  -0.7818005  32.2988968
  23.8017657  11.7358257  31.0190850  23.5018380  12.6383296  30.9106657
  23.4568716  11.4690440  31.8712003  18.7838436  18.5002578  23.9861818
  18.7062466  19.4510403  24.0650298  18.1800080  18.1548450  24.6436744
  21.2755666   5.6730443  36.6423185  20.4989000   6.2324363  36.6326049
  21.9146229   6.1587226  37.1638055  29.0676447   2.4557236  30.4766161
  28.4250827   2.7489769  29.8305956  28.5631375   2.3410156  31.2819358
  19.5302039   8.4815896  36.2041152  20.2716723   9.0200940  35.9275975
  18.8239024   9.1082185  36.3612703  25.0057378  10.6245037  34.8013313
  25.4140734  10.1827447  34.0567945  24.2834640  10.0497664  35.0547506
  21.3588448   5.5617644  32.1746870  22.2049643   5.9857057  32.3181519
  21.2987086   4.9051268  32.8685433  25.3286193  11.1846227  28.5565602
  24.6995055  11.3491942  27.8541670  24.9411855  11.5987837  29.3276566
  29.2075425  12.1200665  25.9109966  28.5226463  12.4999567  25.3606999
  29.2919274  12.7295992  26.6441913  24.5087894   3.2222012  33.8328044
  24.2648825   3.9764072  33.2962319  24.7847824   3.6007359  34.6675291
  26.4626356   9.7660624  32.5105309  26.6743252  10.4092384  31.8339690
  26.4156105   8.9322941  32.0427239  17.7738236  10.4692117  28.7595450
  18.3439593  10.8979385  28.1212935  18.3646348  10.1874702  29.4579636
  18.2663402   5.6355544  37.0056462  17.6362063   6.3171825  37.2391858
  18.1599490   5.5238626  36.0609600  27.5772184  12.6432580  30.6827667
  28.3989628  12.2412767  30.4010348  27.5734587  12.5400814  31.6343782
  21.3428788  12.1916623  32.8388377  21.4073220  12.6537030  33.6746549
  20.6339712  11.5613988  32.9670687  35.6678177   8.9871328  27.0312638
  34.9141886   8.4178726  26.8756642  35.8025719   8.9533993  27.9783273
  15.6053444   6.5390557  35.2380199  15.4906959   5.6375814  35.5387298
  14.7497962   6.7854253  34.8865015  22.6845282  14.4808297  36.8367699
  22.2409136  13.6944676  36.5188604  23.3462495  14.6687447  36.1711590
  17.4432403  16.0104099  31.3628378  17.9939828  15.8821162  30.5905372
  16.6043879  16.3098988  31.0123271  24.7826520  14.7611097  34.8649101
  24.7644995  15.5819978  34.3729370  25.7046440  14.6365172  35.0899242
  21.2399574  12.2755226  35.7072609  21.7727911  11.5143515  35.4771917
  20.7113655  11.9828878  36.4496764  27.5845133   9.5990239  28.3358467
  26.9268807  10.2889501  28.4238596  28.3885532   9.9886671  28.6792454
  27.1612388  12.9340613  24.5141552  26.7074715  12.0931523  24.5706742
  26.5306354  13.5702012  24.8516332  25.6045327  14.7717110  25.4491370
  25.8968301  15.3322167  24.7303736  26.1143948  15.0645671  26.2044529
  20.5678952  15.5497461  26.5384823  20.5255131  15.7758308  25.6093355
  21.4841651  15.3160836  26.6870624  24.0144586   6.0181529  33.4365452
  24.3693974   6.2453002  34.2959918  24.6616717   6.3499906  32.8142708
  29.7711702  11.2076492  29.1526053  30.2048209  11.1151781  30.0009107
  30.4843283  11.1833992  28.5146069  23.5039597  14.8078586  30.6859153
  23.5576620  15.3769522  31.4536869  22.6354379  14.9780471  30.3213191
  30.6327252  11.2500192  31.6858938  30.8263142  12.1546003  31.9318213
  30.5327870  10.7907611  32.5197523  22.2863563   1.1358083  34.1849266
  21.6391478   1.8348033  34.0913742  23.0564578   1.5694227  34.5525514
  25.6942361  11.4006935  37.2599819  25.5427867  11.1717487  36.3429903
  25.6847040  12.3577537  37.2731164  22.4627697   8.9738848  32.2446085
  23.3919757   9.1250007  32.0715053  22.0418727   9.0622869  31.3894732
  21.2616029  12.9989512  30.0144623  21.1227115  12.6308297  30.8870561
  20.4730625  13.5137152  29.8428581  22.8121244  12.3771115  27.4033461
  22.4771077  12.3371885  28.2991111  22.3125190  11.7115831  26.9303871
  16.7865488   7.7838745  32.9286042  16.6485286   7.0518984  33.5297581
  17.6970411   7.6947645  32.6470230  19.4147789   7.4958704  32.4169722
  20.1247407   6.8551897  32.3756340  19.3717097   7.7471599  33.3395902
  27.4034567  14.4326058  35.3376301  27.3447114  13.7485278  34.6706884
  27.8054086  15.1745048  34.8856927  18.1276723   4.4823922  34.2365361
  17.5914080   4.0314661  34.8886957  17.5393431   4.6169831  33.4935825
  16.4225266  21.2487972  28.1310020  16.6621864  21.8806496  28.8089038
  15.5794463  20.8976012  28.4175379  27.4051975  12.3965642  33.5690280
  26.5178753  12.0591563  33.6916679  27.9750526  11.6648673  33.8059046
  20.9353128  17.0567094  30.5351524  20.8623299  17.8622065  31.0470828
  20.4930521  17.2559060  29.7099545  20.7242908  16.2938864  24.0454345
  19.9410430  16.8360544  24.1392570  21.4235653  16.8112844  24.4448586
  31.8869315   7.8073859  28.3306842  31.8759191   8.6898574  27.9600775
  31.0186695   7.4545410  28.1361379  23.3951812  16.9553928  32.6909682
  24.1079784  17.5901393  32.6185584  22.9041840  17.0517794  31.8749684
  18.4463725  14.7048371  33.5115253  19.1473185  15.3384854  33.6644647
  17.9758840  15.0463103  32.7510892  26.2465011   7.2592979  31.3367803
  25.5936461   7.5068886  30.6820256  26.6245391   6.4457117  31.0030281
  23.2072185  17.2952672  25.4395974  23.3894579  16.4774328  25.9023726
  24.0305171  17.5120364  25.0020864  22.2952584   8.0012790  37.8233841
  21.6193221   7.9006919  38.4936216  23.1180218   7.8452004  38.2869838
  14.0431443  14.2384726  30.4446356  14.6284880  13.4928414  30.5774260
  13.8456282  14.5488683  31.3283020  16.8970098  17.2735974  25.4608798
  16.2280474  17.7582102  24.9772838  16.7582968  17.5205194  26.3752177
  21.0375367  19.3079717  32.0591457  21.5893675  19.4711339  32.8240542
  21.3781560  19.8984155  31.3871481  25.8886241  14.1340975  37.9140111
  26.4326145  14.7470933  37.4195066  25.3073086  14.6920553  38.4307124
  24.1743754  17.2561693  29.0455139  24.0494894  16.4551433  28.5366084
  24.8322845  17.7507886  28.5569109  26.2378663  15.0570713  30.6734689
  25.2908998  14.9376064  30.6013016  26.5861436  14.1693211  30.7560950
  23.2425096  14.8523429  26.8739041  23.0950058  13.9240137  27.0546611
  24.0678589  14.8743520  26.3896116  26.8459218  15.6751988  27.9603914
  27.7705765  15.4694849  27.8228365  26.6774521  15.4268389  28.8693255
  26.6354534  16.1937655  23.3166005  26.8091411  15.6284078  22.5639858
  27.1283425  16.9938550  23.1345495  32.4893925   8.9574078  24.9356305
  32.9325071   8.2081404  24.5375428  31.6120435   8.9484215  24.5530037
  21.1841178  16.8738199  34.0740111  21.4928305  16.6287346  34.9462810
  21.9816660  17.0784837  33.5858981  21.2061790  19.0276109  26.3045487
  20.7666781  18.5352487  26.9978344  21.9569907  18.4849076  26.0637563
  18.6535662  14.5714118  28.3767789  18.0315672  13.9084823  28.0770017
  19.3240529  14.5975250  27.6941437  29.2115036  13.5937029  37.2501432
  28.4210579  13.5761168  36.7105932  28.9748390  14.1325323  38.0050469
  29.3312911  10.4429495  34.5634161  29.3810916  10.2779503  35.5049684
  29.2226834   9.5756754  34.1732042  26.6216673   6.4260423  35.8793467
  27.5226536   6.2866888  35.5877465  26.6964648   6.5914878  36.8191645
  20.9559478   3.8027278  34.7246654  20.0862788   4.0960844  34.4529242
  21.1918959   4.3867723  35.4453917  30.8331108  12.8626437  34.8076182
  30.5415916  13.2256417  35.6439643  30.2203239  12.1493445  34.6289514
  32.0326790  10.4279317  27.3278753  32.8673681  10.8669121  27.4916313
  32.1685919   9.9517970  26.5086998  29.0818296   7.9859051  33.2756240
  29.5572417   8.1786698  32.4675092  28.1583861   8.0418237  33.0299624
  23.6598512   0.0206895  32.2412074  24.1780456   0.7567922  31.9158563
  23.3053645   0.3270888  33.0758833  27.7819965   4.8624812  31.5084546
  28.7337388   4.9622909  31.5296770  27.6123415   4.0703080  32.0182630
  25.8034344   1.9480395  31.6943947  25.2084276   2.2285408  30.9990435
  25.5184041   2.4374296  32.4660688  30.2608043   8.0830931  30.6226846
  30.2284363   7.1446932  30.8086529  30.8708666   8.1614968  29.8892670
  30.4102531   4.8741975  30.6685129  29.8941580   4.0900431  30.4815058
  31.2942480   4.5460691  30.8331648  36.0784592   9.1446938  29.7632882
  36.8087981   8.8832226  30.3240586  35.4691538   8.4075660  29.8034950
  34.1599890   7.2854801  30.3607334  33.4333053   7.1510766  29.7523825
  33.7447176   7.5931629  31.1664052  21.9830066  11.0044730  38.1254707
  22.9033075  11.1823329  38.3194753  21.9479649  10.0600776  37.9734406
  14.9792138   8.9145765  30.7677488  15.1978148   9.8462873  30.7865522
  15.3917912   8.5553739  31.5532292  19.8520004   4.4878971  40.1580237
  19.7516731   5.4373328  40.0892328  19.6341546   4.1597210  39.2856307
  19.7151274   7.9176110  38.9745298  19.2318356   8.7176470  39.1809187
  19.8012213   7.9284055  38.0212742  15.6424611  11.8080644  31.0113732
  16.5967865  11.7764587  30.9443664  15.4437135  11.3471268  31.8263958
  16.2323993  10.3781760  33.5784530  17.0516882  10.8725839  33.6019367
  16.5060801   9.4613729  33.5502097  31.7777684   3.5066653  27.7140765
  32.3722175   3.2662389  27.0034073  31.8504268   2.7873783  28.3414301
  13.9974840  17.3500264  28.0283930  13.8629308  16.5900665  27.4621928
  13.5806902  18.0741164  27.5612719  34.0848757   6.8132854  26.4884186
  33.5248315   6.8826043  27.2615748  33.4792261   6.6373838  25.7683683
  17.1543966  18.2469581  28.2402373  17.0376350  19.1915013  28.1381063
  16.3336412  17.9443142  28.6288172  24.0112300  11.7800742  39.7768867
  24.8803460  11.9541394  39.4155502  23.5319051  12.5995159  39.6544597
  18.1798480  18.8997843  31.4558301  19.0825727  18.9321453  31.7724796
  17.9535850  17.9698294  31.4704637  19.9352082  17.6528829  28.1168380
  18.9847713  17.6530691  28.0032752  20.2384568  16.9061564  27.6004414
  35.6704776  23.4889368  29.1814142  36.3083186  23.3696115  28.4777482
  35.5525619  24.4370212  29.2402094  32.4794482  23.4416796  29.1175667
  32.1412993  23.3257860  28.2296202  33.3484250  23.0407961  29.0976673
  28.3381298  25.2952272  25.1072558  27.7746163  25.2042209  24.3388845
  28.2233693  24.4752177  25.5875050  32.9614265  24.5951648  35.0761872
  32.9502906  24.2004446  34.2042376  33.1234904  23.8617720  35.6695644
  25.8845730  26.7903464  27.9456778  26.6767021  26.4494288  27.5303077
  26.1242380  26.8998439  28.8658931  33.9180856  28.9623240  20.4187023
  33.2668836  29.5477320  20.0321036  34.7125219  29.4929435  20.4782060
  27.8436483  26.0512377  20.8174157  28.6167359  25.5041364  20.6787033
  28.1961882  26.9156626  21.0288618  29.6821526  27.3788759  34.0241056
  29.3911392  28.2834390  33.9087723  30.3178510  27.4205287  34.7385126
  30.6077733  24.7565608  30.6142416  31.2041305  24.5321630  29.8999379
  30.6652704  24.0150353  31.2167864  30.1802761  22.2105043  18.4492607
  30.4328282  21.6886564  17.6876070  29.2427320  22.0471189  18.5519290
  35.2246044  21.2140822  26.2567350  36.0109133  20.7960245  25.9057767
  35.4884748  22.1186914  26.4248998  35.3956121  26.6513672  20.9556007
  34.7601954  26.7248298  21.6676912  35.0653528  27.2407271  20.2775086
  40.6254471  21.1516055  27.1600329  41.3579643  20.5815272  27.3938158
  39.8693827  20.7637655  27.6006834  29.8999050  24.1133149  20.6516982
  29.7835308  23.4378053  21.3198066  30.0101310  23.6265523  19.8349135
  32.2430591  23.5743296  24.3563671  31.8788798  23.0473917  25.0676593
  33.0997707  23.1841765  24.1830156  38.1479892  14.8637629  31.6194937
  37.8163216  15.7333040  31.3956152  37.5525505  14.5473913  32.2988968
  31.8836078  18.6033196  19.3525020  32.0510480  19.4713432  19.7195491
  31.6933247  18.7660478  18.4286309  34.6411411  27.0650175  31.0190850
  34.3412134  27.9675214  30.9106657  34.2962471  26.7982358  31.8712003
  28.0923893  23.5163972  27.0527554  27.1674389  23.3840186  27.2605246
  28.3408306  24.2958191  27.5497497  38.0408555  19.5832715  28.6988287
  37.1325432  19.5148123  28.4047048  37.9896151  20.0604660  29.5270113
  31.8625299  21.0590853  20.3371686  31.7424924  21.5047904  21.1757167
  31.1677887  21.4076171  19.7785225  25.4532704  23.1597245  27.8871343
  25.5825085  23.4131724  28.8010755  24.7730155  23.7524953  27.5675999
  29.6232191  33.8294495  23.9861818  29.5456221  34.7802320  24.0650298
  29.0193835  33.4840368  24.6436744  32.1149421  21.0022361  36.6423185
  31.3382755  21.5616281  36.6326049  32.7539984  21.4879144  37.1638055
  39.9070201  17.7849153  30.4766161  39.2644582  18.0781687  29.8305956
  39.4025130  17.6702074  31.2819358  37.5610365  21.5312327  21.1652020
  38.4728221  21.7639713  20.9899718  37.0520012  22.1149371  20.6027099
  30.3695793  23.8107814  36.2041152  31.1110477  24.3492858  35.9275975
  29.6632778  24.4374103  36.3612703  35.8451133  25.9536954  34.8013313
  36.2534489  25.5119365  34.0567945  35.1228394  25.3789582  35.0547506
  32.1982203  20.8909561  32.1746870  33.0443398  21.3148975  32.3181519
  32.1380840  20.2343186  32.8685433  36.1679947  26.5138145  28.5565602
  35.5388810  26.6783859  27.8541670  35.7805609  26.9279755  29.3276566
  40.0469179  27.4492583  25.9109966  39.3620217  27.8291484  25.3606999
  40.1313028  28.0587910  26.6441913  35.3481648  18.5513930  33.8328044
  35.1042580  19.3055990  33.2962319  35.6241579  18.9299277  34.6675291
  37.3020111  25.0952542  32.5105309  37.5137006  25.7384302  31.8339690
  37.2549859  24.2614858  32.0427239  34.9046340  17.7070363  29.4141881
  34.0430819  18.0051616  29.7058619  34.9308774  17.9240761  28.4822914
  31.7207909  26.2512553  25.8215687  32.1846255  26.5300256  25.0320310
  31.4564707  25.3495998  25.6388778  28.6131990  25.7984035  28.7595450
  29.1833347  26.2271303  28.1212935  29.2040102  25.5166619  29.4579636
  30.6576795  22.3735706  22.6305252  31.3600839  22.8256749  23.0979179
  30.3257424  21.7319524  23.2585145  29.1057157  20.9647462  37.0056462
  28.4755817  21.6463743  37.2391858  28.9993245  20.8530544  36.0609600
  24.4002129  20.6319258  27.9322386  23.6101183  20.8876787  27.4562496
  24.8913377  21.4467596  28.0374426  38.4165939  27.9724497  30.6827667
  39.2383382  27.5704685  30.4010348  38.4128342  27.8692732  31.6343782
  26.3516875  20.9963837  24.8905862  25.5548038  21.1082532  25.4089358
  26.1242467  21.3350490  24.0246753  32.1822542  27.5208541  32.8388377
  32.2466975  27.9828948  33.6746549  31.4733466  26.8905906  32.9670687
  22.6839832  20.8849749  30.3637377  22.9347871  21.7696759  30.6294952
  23.2199381  20.7054350  29.5912468  46.5071932  24.3163246  27.0312638
  45.7535640  23.7470644  26.8756642  46.6419473  24.2825910  27.9783273
  31.8970560  29.1876648  22.7067357  31.7616235  30.0328184  23.1352205
  32.4380372  29.3895926  21.9433291  28.3837899  15.2668228  39.3681713
  27.9904845  14.7134427  40.0429357  29.2004040  15.5778806  39.7588230
  25.3499957  26.7052086  23.2795282  25.8624478  27.4995336  23.4300847
  26.0022670  26.0078377  23.2128884  27.1594842  29.8217842  25.3618036
  27.3361470  30.7435807  25.1739020  27.9551675  29.5076262  25.7912415
  31.3005860  16.6826107  36.9601969  32.0415574  17.2833260  36.8806432
  31.5323783  15.9403745  36.4020012  26.4447198  21.8682474  35.2380199
  26.3300714  20.9667732  35.5387298  25.5891716  22.1146171  34.8865015
  33.5239036  29.8100215  36.8367699  33.0802890  29.0236593  36.5188604
  34.1856250  29.9979365  36.1711590  28.2826157  31.3396016  31.3628378
  28.8333583  31.2113080  30.5905372  27.4437633  31.6390905  31.0123271
  35.6220274  30.0903015  34.8649101  35.6038750  30.9111896  34.3729370
  36.5440194  29.9657090  35.0899242  32.0793328  27.6047144  35.7072609
  32.6121665  26.8435432  35.4771917  31.5507410  27.3120796  36.4496764
  35.2463023  12.7107210  31.2366251  34.9027293  13.6008852  31.1605361
  35.6141986  12.5208868  30.3735836  23.3148874  25.0340740  24.0554853
  24.1524096  25.4437749  23.8388561  23.4927142  24.0940183  24.0255047
  35.2113306  22.7015821  19.7438686  34.6959930  23.4720426  19.9827073
  34.9390615  22.0280957  20.3671747  32.7960417  17.5465522  24.8023924
  31.9402014  17.1572372  24.6229563  33.2087369  17.6257483  23.9423710
  34.3259564  15.0811865  29.2015484  33.8224359  15.0442000  28.3883289
  34.6190171  15.9904608  29.2612141  30.5702450  15.1650595  28.2081666
  31.4355446  14.9693404  27.8487555  30.6379959  14.9360947  29.1351023
  40.1847580  25.4548176  21.6791859  39.4077023  25.1159335  21.2347022
  40.8639061  25.4600799  21.0046824  34.9999609  20.5742913  21.5698467
  34.6949745  20.8889062  22.4208610  35.9530051  20.6524333  21.6125800
  33.4446041  26.7333137  23.2191421  32.9167403  25.9985896  22.9064659
  32.9433544  27.5107813  22.9731389  38.4238887  24.9282157  28.3358467
  37.7662562  25.6181418  28.4238596  39.2279286  25.3178589  28.6792454
  28.1764769  17.3952803  25.5798033  28.7508521  17.1727984  24.8471226
  28.7635751  17.4641497  26.3326634  37.2344346  23.2826530  26.3862409
  37.7476228  23.9156522  26.8884119  37.8845570  22.6827725  26.0205769
  30.4787436  14.2694052  24.3073102  29.8251849  13.9543069  23.6829717
  30.4367911  13.6469792  25.0332925  31.5898641  24.5513347  16.2226394
  30.6825703  24.3202600  16.4217543  32.0869673  23.7550966  16.4100376
  34.4966720  33.2610854  19.1423080  33.8228419  33.5642551  19.7508038
  34.8832542  34.0639934  18.7928537  33.7125177  20.7575985  28.6320750
  32.7947738  20.9790932  28.4742438  34.1285320  20.8322296  27.7732457
  34.4960225  22.1567401  23.7623430  35.2432044  22.6688798  23.4530552
  34.7651814  21.8351454  24.6227824  32.7686875  24.6525942  20.7450384
  31.8598094  24.3684974  20.8422854  32.7981959  25.0725020  19.8853691
  38.0006142  28.2632531  24.5141552  37.5468469  27.4223441  24.5706742
  37.3700109  28.8993930  24.8516332  36.9439062  19.1924517  25.7442219
  36.2061819  18.6801903  26.0752462  37.1965835  18.7524899  24.9325496
  36.4439081  30.1009028  25.4491370  36.7362056  30.6614085  24.7303736
  36.9537702  30.3937589  26.2044529  37.0450689  11.9700769  26.3383989
  37.3509566  11.1098133  26.0509904  37.7703294  12.5618389  26.1382982
  23.3375045  22.3731456  24.7265586  23.1399445  21.7800817  24.0016653
  22.7821709  22.0683666  25.4441525  31.3171769  22.2654562  26.8460180
  31.3720379  21.3128399  26.7702656  30.5062971  22.4214001  27.3301478
  32.4662963  26.1934685  18.0838463  32.0282392  25.4770544  17.6244100
  33.2073403  26.4210800  17.5223554  29.2564129  20.8831622  24.6050558
  28.4431994  21.1825793  25.0115751  29.7523123  20.4887311  25.3225041
  31.4072707  30.8789379  26.5384823  31.3648885  31.1050225  25.6093355
  32.3235405  30.6452754  26.6870624  34.8538340  21.3473446  33.4365452
  35.2087728  21.5744920  34.2959918  35.5010472  21.6791823  32.8142708
  40.5836077  24.4691882  24.1414781  40.4453976  24.6593478  23.2135971
  40.2272296  25.2311265  24.5982833  28.7478203  18.4549978  30.2211793
  29.3877583  18.3138737  29.5234757  27.9155734  18.1684491  29.8450395
  40.6105457  26.5368409  29.1526053  41.0441964  26.4443698  30.0009107
  41.3237038  26.5125910  28.5146069  29.5238507  27.7552408  26.3346786
  30.3179106  27.2602728  26.1329361  28.8130200  27.2270271  25.9714491
  34.3433352  30.1370503  30.6859153  34.3970374  30.7061440  31.4536869
  33.4748133  30.3072389  30.3213191  25.8321271  21.8995490  22.4106539
  24.9018859  21.8379945  22.6276501  25.9278743  21.3771442  21.6143180
  25.7506820  18.4250303  24.9984780  26.0113637  19.3395636  24.8893941
  26.5723992  17.9574745  25.1481393  27.2231745  19.8388060  32.1683605
  27.8954799  19.6305422  31.5196254  26.3961532  19.6410146  31.7288837
  41.4721007  26.5792110  31.6858938  41.6656897  27.4837921  31.9318213
  41.3721625  26.1199529  32.5197523  33.1257317  16.4650001  34.1849266
  32.4785232  17.1639950  34.0913742  33.8958333  16.8986145  34.5525514
  36.5336115  26.7298853  37.2599819  36.3821622  26.5009404  36.3429903
  36.5240795  27.6869454  37.2731164  33.3021452  24.3030766  32.2446085
  34.2313512  24.4541925  32.0715053  32.8812482  24.3914786  31.3894732
  32.1009783  28.3281430  30.0144623  31.9620869  27.9600214  30.8870561
  31.3124380  28.8429069  29.8428581  32.6957935  33.4290526  21.3570159
  32.8709691  32.9578570  22.1715782  32.0090723  34.0556293  21.5851420
  33.6514999  27.7063033  27.4033461  33.3164831  27.6663803  28.2991111
  33.1518944  27.0407749  26.9303871  27.6259242  23.1130663  32.9286042
  27.4879040  22.3810902  33.5297581  28.5364166  23.0239563  32.6470230
  36.5874190  25.0519067  17.6770520  35.9703361  24.3265895  17.5803573
  36.1190679  25.8128427  17.3337595  30.2541543  22.8250622  32.4169722
  30.9641162  22.1843814  32.3756340  30.2110851  23.0763517  33.3395902
  38.2428322  29.7617975  35.3376301  38.1840868  29.0777195  34.6706884
  38.6447840  30.5036965  34.8856927  28.9670477  19.8115840  34.2365361
  28.4307834  19.3606578  34.8886957  28.3787186  19.9461749  33.4935825
  27.2619021  36.5779889  28.1310020  27.5015619  37.2098413  28.8089038
  26.4188217  36.2267929  28.4175379  38.2445729  27.7257559  33.5690280
  37.3572508  27.3883481  33.6916679  38.8144280  26.9940591  33.8059046
  19.8974876  24.0581651  26.8933332  20.5845916  23.7443381  26.3054347
  19.7423005  24.9623016  26.6200583  24.7009598  18.9471848  31.3218356
  24.6167787  18.3397517  30.5868765  23.8792305  19.4380866  31.3227852
  31.7746883  32.3859012  30.5351524  31.7017054  33.1913983  31.0470828
  31.3324276  32.5850977  29.7099545  31.5636662  31.6230782  24.0454345
  30.7804184  32.1652462  24.1392570  32.2629407  32.1404761  24.4448586
  34.8733312  17.4325411  26.6888551  35.3702012  16.6795373  26.3689621
  34.1020294  17.4689728  26.1231760  42.7263070  23.1365777  28.3306842
  42.7152946  24.0190492  27.9600775  41.8580449  22.7837327  28.1361379
  34.2345566  32.2845846  32.6909682  34.9473538  32.9193310  32.6185584
  33.7435595  32.3809712  31.8749684  35.9563093  26.1897098  24.2626974
  35.0219372  26.3098561  24.0931678  36.1339761  25.2869565  23.9986984
  31.4568281  19.5742794  26.4160235  31.0866069  19.0213834  27.1041141
  31.9527373  18.9700928  25.8635235  39.3435644  22.0314418  24.7977008
  39.8096096  22.8642409  24.7237311  39.7943145  21.5659399  25.5022267
  29.2857480  30.0340289  33.5115253  29.9866939  30.6676772  33.6644647
  28.8152595  30.3755021  32.7510892  37.4111875  28.3758239  21.7963160
  37.6871719  28.2614833  22.7057034  36.5416374  27.9775724  21.7575333
  37.3152307  14.3995005  28.8367909  36.4015387  14.6299231  29.0050116
  37.7445408  14.4833449  29.6881942  37.0858766  22.5884897  31.3367803
  36.4330216  22.8360804  30.6820256  37.4639145  21.7749035  31.0030281
  34.0465939  32.6244590  25.4395974  34.2288334  31.8066246  25.9023726
  34.8698925  32.8412282  25.0020864  34.3808105  31.5512775  22.7011022
  34.9095871  31.0405229  22.0881184  34.6436324  31.2355305  23.5656555
  33.1346339  23.3304708  37.8233841  32.4586976  23.2298837  38.4936216
  33.9573972  23.1743921  38.2869838  24.8825198  29.5676644  30.4446356
  25.4678634  28.8220332  30.5774260  24.6850036  29.8780601  31.3283020
  27.7363853  32.6027892  25.4608798  27.0674228  33.0874019  24.9772838
  27.5976723  32.8497112  26.3752177  19.4742852  22.1382244  29.1650799
  19.5126952  21.6045835  29.9587917  18.9683145  21.6117450  28.5461776
  31.8769121  34.6371635  32.0591457  32.4287429  34.8003257  32.8240542
  32.2175315  35.2276073  31.3871481  26.8533615  16.9846785  32.6613341
  26.9174941  17.8461616  32.2490739  26.7900735  16.3720787  31.9285700
  26.3285887  19.0569917  36.3086376  26.9557926  18.6746995  36.9223900
  25.4713806  18.8384119  36.6742068  36.7279996  29.4632893  37.9140111
  37.2719900  30.0762851  37.4195066  36.1466841  30.0212471  38.4307124
  23.1051430  20.8646347  22.2404730  23.4004871  19.9557025  22.1871784
  22.2039466  20.8434086  21.9185733  35.0137509  32.5853611  29.0455139
  34.8888648  31.7843350  28.5366084  35.6716600  33.0799804  28.5569109
  26.6345677  18.9402343  28.2232279  25.9132263  19.5538311  28.0839752
  27.4238933  19.4760108  28.1448925  37.0772417  30.3862631  30.6734689
  36.1302753  30.2667982  30.6013016  37.4255190  29.4985129  30.7560950
  29.4371990  16.2756770  34.4972931  29.9606392  16.5219066  35.2599240
  29.2184324  17.1076804  34.0776068  24.8339272  18.5460444  22.3644055
  24.5051978  17.6657823  22.1819161  25.1878642  18.4908113  23.2520445
  34.0818850  30.1815347  26.8739041  33.9343813  29.2532054  27.0546611
  34.9072344  30.2035438  26.3896116  27.9481095  18.8333414  22.7319533
  28.2877167  19.3619335  22.0098142  28.3953215  19.1713820  23.5078100
  37.6852972  31.0043906  27.9603914  38.6099520  30.7986767  27.8228365
  37.5168276  30.7560307  28.8693255  30.6424536  17.2170465  32.1822601
  30.3021356  16.4178278  32.5843281  29.9363542  17.5172176  31.6099434
  31.2941007  14.3019777  30.6349924  32.1167077  13.8280255  30.5128815
  31.5379071  15.0810261  31.1348611  29.9349242  17.3308036  20.9312826
  30.6557604  17.7089288  20.4276543  29.3114546  18.0496912  21.0347804
  34.0780365  18.0353185  21.8671158  34.2943979  18.9177822  21.5659986
  33.5974432  17.6439398  21.1376800  28.8179586  20.9938898  28.4441903
  28.6724167  21.3079201  29.3366184  28.3404790  21.6123798  27.8912801
  30.6775969  17.9841446  28.4922792  30.6637538  17.0882539  28.1555090
  31.3948397  17.9912110  29.1261078  32.5302100  18.4178786  30.5375920
  32.2719878  19.3395857  30.5360250  31.9987140  18.0209221  31.2276384
  37.4748288  31.5229573  23.3166005  37.6485166  30.9575996  22.5639858
  37.9677180  32.3230468  23.1345495  23.2925248  23.5344242  31.3829564
  22.7478716  24.3104050  31.5149838  24.1704598  23.8815047  31.2248685
  30.0812865  16.8655826  23.7610363  30.2028776  15.9372472  23.9601250
  29.7914907  16.8794512  22.8488678  32.9504055  14.5510736  26.8977082
  32.9725752  14.6150070  25.9429062  33.3672114  13.7115245  27.0917589
  43.3287680  24.2865996  24.9356305  43.7718826  23.5373321  24.5375428
  42.4514190  24.2776132  24.5530037  38.4623461  30.8396337  20.4162904
  39.1574366  31.4603030  20.6350218  38.8046611  29.9891689  20.6915281
  24.0791270  22.6614138  34.2759721  23.3373006  22.8096774  34.8624351
  23.7584014  22.9222404  33.4126470  40.3614884  28.2896043  21.9450234
  40.8866208  28.6283316  21.2199554  40.2737237  27.3543058  21.7613369
  32.0234933  32.2030117  34.0740111  32.3322059  31.9579263  34.9462810
  32.8210415  32.4076755  33.5858981  32.0455545  34.3568026  26.3045487
  31.6060535  33.8644405  26.9978344  32.7963662  33.8140994  26.0637563
  24.5247884  30.5479567  26.3070116  25.3505904  30.2483339  25.9268759
  24.1741936  29.7787190  26.7559904  29.4929417  29.9006035  28.3767789
  28.8709426  29.2376740  28.0770017  30.1634284  29.9267167  27.6941437
  22.7256489  28.4665894  27.2659049  21.8888397  28.0388068  27.0843050
  22.6980134  28.6598337  28.2029840  29.5653944  18.3787823  37.9700295
  29.6142100  19.2549946  37.5878065  30.1076459  17.8365216  37.3971938
  40.0508790  28.9228947  37.2501432  39.2604334  28.9053086  36.7105932
  39.8142145  29.4617240  38.0050469  40.1706665  25.7721413  34.5634161
  40.2204670  25.6071420  35.5049684  40.0620589  24.9048672  34.1732042
  29.0542924  28.4509959  21.8526250  29.2031044  29.1345423  21.1992922
  29.8609367  28.4315049  22.3675705  37.4610428  21.7552341  35.8793467
  38.3620290  21.6158806  35.5877465  37.5358402  21.9206796  36.8191645
  31.7953233  19.1319196  34.7246654  30.9256542  19.4252762  34.4529242
  32.0312713  19.7159641  35.4453917  41.6724862  28.1918355  34.8076182
  41.3809670  28.5548335  35.6439643  41.0596993  27.4785363  34.6289514
  42.8720544  25.7571234  27.3278753  43.7067436  26.1961038  27.4916313
  43.0079673  25.2809888  26.5086998  39.9212050  23.3150969  33.2756240
  40.3966172  23.5078615  32.4675092  38.9977616  23.3710155  33.0299624
  26.8095557  24.4775136  22.8587319  26.5641599  23.5737466  23.0567529
  26.9791471  24.4792287  21.9166797  34.4992267  15.3498813  32.2412074
  35.0174211  16.0859840  31.9158563  34.1447399  15.6562806  33.0758833
  34.7504861  11.7699095  27.7612971  35.0306615  11.1022284  28.3873397
  35.5355468  11.9628191  27.2487635  32.5538329  30.9458089  19.3237997
  31.9812296  31.5648276  18.8708469  33.1271123  31.4957451  19.8577919
  38.6213719  20.1916729  31.5084546  39.5731142  20.2914827  31.5296770
  38.4517170  19.3994998  32.0182630  36.6428099  17.2772312  31.6943947
  36.0478031  17.5577325  30.9990435  36.3577795  17.7666213  32.4660688
  35.7735589  31.2295239  20.4546579  36.7066262  31.1640801  20.6579455
  35.6858802  32.0651506  19.9961112  38.4023606  30.5461110  17.4150527
  38.3237237  30.2120973  18.3086285  39.2233273  31.0382878  17.4141999
  41.1001797  23.4122849  30.6226846  41.0678117  22.4738850  30.8086529
  41.7102421  23.4906886  29.8892670  32.9385128  22.2818902  16.6654050
  33.8844233  22.1525110  16.7342468  32.5599373  21.5433564  17.1423478
  41.2496286  20.2033892  30.6685129  40.7335334  19.4192349  30.4815058
  42.1336234  19.8752609  30.8331648  38.9107012  13.9474908  26.6280941
  38.7131834  13.6389996  27.5124273  39.5206718  14.6736547  26.7578871
  46.9178347  24.4738856  29.7632882  47.6481735  24.2124144  30.3240586
  46.3085292  23.7367578  29.8034950  44.9993644  22.6146718  30.3607334
  44.2726808  22.4802683  29.7523825  44.5840931  22.9223547  31.1664052
  32.8223820  26.3336648  38.1254707  33.7426830  26.5115247  38.3194753
  32.7873403  25.3892693  37.9734406  22.0405985  21.5275242  27.0507981
  21.7208770  20.6740550  26.7582355  21.4939414  21.7423820  27.8065949
  25.8185893  24.2437683  30.7677488  26.0371903  25.1754791  30.7865522
  26.2311667  23.8845657  31.5532292  32.7390111  14.7505768  22.7553176
  31.9290839  14.4052853  23.1308422  33.4274528  14.4413312  23.3440788
  34.6680659  13.8283815  24.3777473  35.2211698  14.2479268  25.0367496
  34.9050745  12.9019563  24.4200429  30.6913758  19.8170888  40.1580237
  30.5910485  20.7665245  40.0892328  30.4735300  19.4889127  39.2856307
  21.9094245  25.1478153  29.0201103  21.2157717  24.7332106  28.5071057
  22.6567236  25.1898690  28.4234522  38.0459466  15.9384340  23.8856137
  37.4658135  16.5969144  23.5034189  37.7795399  15.1161685  23.4743555
  36.4963033  15.3389398  26.0877457  36.9962811  15.4505932  25.2791776
  37.1398640  15.0350451  26.7278266  30.5545028  23.2468027  38.9745298
  30.0712110  24.0468387  39.1809187  30.6405967  23.2575972  38.0212742
  23.8230988  25.0796407  26.8967118  23.8001676  25.1784094  25.9449001
  24.1331624  25.9261558  27.2184284  26.4818366  27.1372562  31.0113732
  27.4361619  27.1056504  30.9443664  26.2830889  26.6763186  31.8263958
  27.0717748  25.7073678  33.5784530  27.8910637  26.2017757  33.6019367
  27.3454556  24.7905646  33.5502097  36.8284344  18.0984430  22.9412485
  35.9410199  18.3834081  22.7232680  37.2438333  17.9378194  22.0939762
  40.1798880  18.1230951  26.6566825  40.9559270  18.6127404  26.9291441
  39.4547014  18.5489006  27.1138694  42.6171439  18.8358571  27.7140765
  43.2115930  18.5954307  27.0034073  42.6898023  18.1165701  28.3414301
  24.8368595  32.6792182  28.0283930  24.7023063  31.9192582  27.4621928
  24.4200657  33.4033081  27.5612719  35.9727558  27.8629105  17.0360505
  36.6763408  28.0679108  17.6518161  35.2490206  28.4305867  17.3009589
  36.8025368  23.6138966  23.1562775  36.7460569  24.0707518  22.3170408
  37.3553710  22.8529651  22.9785618  40.6130174  19.4028698  23.9812895
  40.3567108  19.0025334  24.8121103  39.9883042  20.1172492  23.8563034
  44.9242512  22.1424771  26.4884186  44.3642070  22.2117961  27.2615748
  44.3186015  21.9665756  25.7683683  27.9937720  33.5761499  28.2402373
  27.8770105  34.5206931  28.1381063  27.1730167  33.2735060  28.6288172
  37.8814255  28.3011634  19.0858965  38.7159859  27.8692833  18.9036440
  37.7198598  28.1293648  20.0135860  37.5360147  24.8043748  20.4515305
  37.4808951  24.6388019  19.5103749  36.9106202  25.5119780  20.6077494
  22.3252662  20.0411812  34.2776727  22.9711526  19.5310766  34.7663952
  22.1169813  20.7780494  34.8520152  34.8506054  27.1092659  39.7768867
  35.7197214  27.2833312  39.4155502  34.3712806  27.9287076  39.6544597
  29.0192235  34.2289760  31.4558301  29.9219481  34.2613371  31.7724796
  28.7929605  33.2990211  31.4704637  30.7745837  32.9820747  28.1168380
  29.8241468  32.9822609  28.0032752  31.0778323  32.2353482  27.6004414
  34.6608392  10.8994633  24.2846560  33.8940788  10.3453120  24.4303242
  35.0719097  10.9716502  25.1460711  26.6650153  17.1879429  38.3751741
  27.5281615  16.8316234  38.5855066  26.0915564  16.8493324  39.0627145
  39.1775052  40.6244190  25.1072558  38.6139917  40.5334127  24.3388845
  39.0627447  39.8044094  25.5875050  36.7239484  42.1195381  27.9456778
  37.5160776  41.7786206  27.5303077  36.9636134  42.2290357  28.8658931
  44.7574611  44.2915158  20.4187023  44.1062591  44.8769238  20.0321036
  45.5518974  44.8221352  20.4782060  38.6830238  41.3804295  20.8174157
  39.4561114  40.8333282  20.6787033  39.0355637  42.2448544  21.0288618
  41.4471487  40.0857526  30.6142416  42.0435060  39.8613548  29.8999379
  41.5046459  39.3442271  31.2167864  41.0196516  37.5396961  18.4492607
  41.2722036  37.0178482  17.6876070  40.0821075  37.3763106  18.5519290
  46.0639799  36.5432739  26.2567350  46.8502888  36.1252162  25.9057767
  46.3278503  37.4478831  26.4248998  46.2349876  41.9805590  20.9556007
  45.5995709  42.0540216  21.6676912  45.9047282  42.5699188  20.2775086
  51.4648226  36.4807972  27.1600329  52.1973398  35.9107189  27.3938158
  50.7087581  36.0929573  27.6006834  40.7392805  39.4425067  20.6516982
  40.6229063  38.7669970  21.3198066  40.8495064  38.9557441  19.8349135
  43.0824345  38.9035214  24.3563671  42.7182553  38.3765835  25.0676593
  43.9391461  38.5133683  24.1830156  48.9873646  30.1929547  31.6194937
  48.6556971  31.0624957  31.3956152  48.3919259  29.8765831  32.2988968
  42.7229832  33.9325114  19.3525020  42.8904235  34.8005350  19.7195491
  42.5327002  34.0952395  18.4286309  38.9317647  38.8455889  27.0527554
  38.0068144  38.7132103  27.2605246  39.1802060  39.6250109  27.5497497
  48.8802309  34.9124633  28.6988287  47.9719187  34.8440041  28.4047048
  48.8289905  35.3896578  29.5270113  42.7019053  36.3882771  20.3371686
  42.5818679  36.8339822  21.1757167  42.0071642  36.7368089  19.7785225
  36.2926458  38.4889163  27.8871343  36.4218839  38.7423642  28.8010755
  35.6123909  39.0816871  27.5675999  40.4625945  49.1586413  23.9861818
  40.3849975  50.1094238  24.0650298  39.8587589  48.8132285  24.6436744
  50.7463956  33.1141071  30.4766161  50.1038336  33.4073604  29.8305956
  50.2418884  32.9993991  31.2819358  48.4004119  36.8604244  21.1652020
  49.3121976  37.0931631  20.9899718  47.8913767  37.4441288  20.6027099
  46.1875403  33.8805847  33.8328044  45.9436334  34.6347908  33.2962319
  46.4635333  34.2591195  34.6675291  45.7440094  33.0362280  29.4141881
  44.8824573  33.3343534  29.7058619  45.7702529  33.2532679  28.4822914
  42.5601664  41.5804471  25.8215687  43.0240009  41.8592174  25.0320310
  42.2958462  40.6787915  25.6388778  39.4525745  41.1275952  28.7595450
  40.0227102  41.5563221  28.1212935  40.0433857  40.8458537  29.4579636
  41.4970550  37.7027623  22.6305252  42.1994593  38.1548667  23.0979179
  41.1651178  37.0611442  23.2585145  39.9450911  36.2939380  37.0056462
  39.3149572  36.9755661  37.2391858  39.8386999  36.1822461  36.0609600
  35.2395884  35.9611176  27.9322386  34.4494938  36.2168704  27.4562496
  35.7307131  36.7759514  28.0374426  37.1910629  36.3255755  24.8905862
  36.3941792  36.4374449  25.4089358  36.9636221  36.6642407  24.0246753
  33.5233587  36.2141666  30.3637377  33.7741625  37.0988676  30.6294952
  34.0593135  36.0346268  29.5912468  42.7364314  44.5168566  22.7067357
  42.6009989  45.3620102  23.1352205  43.2774127  44.7187843  21.9433291
  39.2231654  30.5960146  39.3681713  38.8298600  30.0426344  40.0429357
  40.0397794  30.9070724  39.7588230  36.1893712  42.0344004  23.2795282
  36.7018232  42.8287254  23.4300847  36.8416425  41.3370294  23.2128884
  37.9988596  45.1509760  25.3618036  38.1755225  46.0727725  25.1739020
  38.7945430  44.8368179  25.7912415  42.1399615  32.0118025  36.9601969
  42.8809328  32.6125178  36.8806432  42.3717538  31.2695663  36.4020012
  37.2840953  37.1974392  35.2380199  37.1694468  36.2959649  35.5387298
  36.4285471  37.4438089  34.8865015  46.0856778  28.0399128  31.2366251
  45.7421047  28.9300769  31.1605361  46.4535741  27.8500785  30.3735836
  34.1542629  40.3632658  24.0554853  34.9917851  40.7729667  23.8388561
  34.3320896  39.4232100  24.0255047  46.0507061  38.0307739  19.7438686
  45.5353684  38.8012343  19.9827073  45.7784369  37.3572875  20.3671747
  43.6354172  32.8757440  24.8023924  42.7795768  32.4864290  24.6229563
  44.0481123  32.9549400  23.9423710  45.1653318  30.4103783  29.2015484
  44.6618114  30.3733918  28.3883289  45.4583925  31.3196526  29.2612141
  41.4096204  30.4942513  28.2081666  42.2749201  30.2985321  27.8487555
  41.4773713  30.2652864  29.1351023  45.8393364  35.9034831  21.5698467
  45.5343499  36.2180980  22.4208610  46.7923806  35.9816251  21.6125800
  44.2839796  42.0625054  23.2191421  43.7561157  41.3277814  22.9064659
  43.7827298  42.8399731  22.9731389  39.0158523  32.7244721  25.5798033
  39.5902275  32.5019902  24.8471226  39.6029506  32.7933415  26.3326634
  48.0738100  38.6118447  26.3862409  48.5869982  39.2448439  26.8884119
  48.7239324  38.0119643  26.0205769  39.3428110  34.7549182  19.5993918
  38.5065423  35.0923868  19.9203193  39.2032880  34.6198161  18.6621055
  41.3181191  29.5985969  24.3073102  40.6645603  29.2834987  23.6829717
  41.2761665  28.9761710  25.0332925  42.4292396  39.8805264  16.2226394
  41.5219458  39.6494518  16.4217543  42.9263428  39.0842884  16.4100376
  45.3360475  48.5902772  19.1423080  44.6622173  48.8934468  19.7508038
  45.7226297  49.3931852  18.7928537  45.3353979  37.4859319  23.7623430
  46.0825798  37.9980716  23.4530552  45.6045569  37.1643371  24.6227824
  43.6080629  39.9817859  20.7450384  42.6991849  39.6976892  20.8422854
  43.6375713  40.4016938  19.8853691  48.8399897  43.5924449  24.5141552
  48.3862224  42.7515359  24.5706742  48.2093863  44.2285847  24.8516332
  47.7832816  34.5216435  25.7442219  47.0455573  34.0093821  26.0752462
  48.0359590  34.0816816  24.9325496  47.2832836  45.4300946  25.4491370
  47.5755810  45.9906003  24.7303736  47.7931456  45.7229507  26.2044529
  47.8844444  27.2992687  26.3383989  48.1903320  26.4390050  26.0509904
  48.6097048  27.8910307  26.1382982  34.1768800  37.7023373  24.7265586
  33.9793199  37.1092734  24.0016653  33.6215464  37.3975584  25.4441525
  42.1565523  37.5946480  26.8460180  42.2114133  36.6420316  26.7702656
  41.3456725  37.7505919  27.3301478  43.3056717  41.5226603  18.0838463
  42.8676147  40.8062462  17.6244100  44.0467158  41.7502718  17.5223554
  40.0957883  36.2123540  24.6050558  39.2825749  36.5117710  25.0115751
  40.5916877  35.8179228  25.3225041  42.2466461  46.2081297  26.5384823
  42.2042640  46.4342143  25.6093355  43.1629160  45.9744671  26.6870624
  39.5871958  33.7841895  30.2211793  40.2271337  33.6430654  29.5234757
  38.7549489  33.4976409  29.8450395  40.3632262  43.0844326  26.3346786
  41.1572860  42.5894646  26.1329361  39.6523954  42.5562189  25.9714491
  36.6715025  37.2287407  22.4106539  35.7412613  37.1671863  22.6276501
  36.7672497  36.7063360  21.6143180  36.5900574  33.7542220  24.9984780
  36.8507392  34.6687553  24.8893941  37.4117747  33.2866663  25.1481393
  38.0625500  35.1679977  32.1683605  38.7348553  34.9597340  31.5196254
  37.2355286  34.9702063  31.7288837  43.9651072  31.7941918  34.1849266
  43.3178987  32.4931868  34.0913742  44.7352087  32.2278062  34.5525514
  43.5351690  48.7582444  21.3570159  43.7103446  48.2870487  22.1715782
  42.8484478  49.3848210  21.5851420  44.4908753  43.0354950  27.4033461
  44.1558586  42.9955720  28.2991111  43.9912699  42.3699666  26.9303871
  38.4652997  38.4422580  32.9286042  38.3272795  37.7102819  33.5297581
  39.3757920  38.3531480  32.6470230  47.4267945  40.3810985  17.6770520
  46.8097115  39.6557813  17.5803573  46.9584433  41.1420345  17.3337595
  39.8064232  35.1407758  34.2365361  39.2701589  34.6898496  34.8886957
  39.2180940  35.2753666  33.4935825  38.1012775  51.9071807  28.1310020
  38.3409373  52.5390331  28.8089038  37.2581972  51.5559847  28.4175379
  39.2166491  34.5996409  16.7991825  38.3395957  34.4785210  16.4354071
  39.6924244  33.8082487  16.5470713  30.7368631  39.3873569  26.8933332
  31.4239671  39.0735299  26.3054347  30.5816759  40.2914933  26.6200583
  35.5403353  34.2763765  31.3218356  35.4561542  33.6689435  30.5868765
  34.7186059  34.7672784  31.3227852  42.4030417  46.9522699  24.0454345
  41.6197939  47.4944380  24.1392570  43.1023162  47.4696679  24.4448586
  45.7127067  32.7617329  26.6888551  46.2095766  32.0087291  26.3689621
  44.9414048  32.7981645  26.1231760  46.7956847  41.5189016  24.2626974
  45.8613126  41.6390478  24.0931678  46.9733516  40.6161483  23.9986984
  42.2962035  34.9034712  26.4160235  41.9259823  34.3505752  27.1041141
  42.7921128  34.2992845  25.8635235  50.1829399  37.3606335  24.7977008
  50.6489851  38.1934327  24.7237311  50.6336899  36.8951317  25.5022267
  48.2505630  43.7050157  21.7963160  48.5265474  43.5906751  22.7057034
  47.3810129  43.3067641  21.7575333  48.1546062  29.7286922  28.8367909
  47.2409141  29.9591149  29.0050116  48.5839163  29.8125366  29.6881942
  44.8859694  47.9536507  25.4395974  45.0682088  47.1358163  25.9023726
  45.7092680  48.1704200  25.0020864  45.2201859  46.8804693  22.7011022
  45.7489626  46.3697147  22.0881184  45.4830079  46.5647223  23.5656555
  35.7218952  44.8968562  30.4446356  36.3072389  44.1512250  30.5774260
  35.5243791  45.2072519  31.3283020  38.5757607  47.9319809  25.4608798
  37.9067983  48.4165937  24.9772838  38.4370477  48.1789030  26.3752177
  30.3136607  37.4674162  29.1650799  30.3520706  36.9337753  29.9587917
  29.8076900  36.9409368  28.5461776  42.7162876  49.9663553  32.0591457
  43.2681184  50.1295174  32.8240542  43.0569069  50.5567991  31.3871481
  37.6927369  32.3138703  32.6613341  37.7568696  33.1753533  32.2490739
  37.6294489  31.7012704  31.9285700  37.1679642  34.3861835  36.3086376
  37.7951680  34.0038912  36.9223900  36.3107561  34.1676037  36.6742068
  33.9445184  36.1938264  22.2404730  34.2398626  35.2848943  22.1871784
  33.0433220  36.1726004  21.9185733  45.8531263  47.9145528  29.0455139
  45.7282403  47.1135268  28.5366084  46.5110354  48.4091722  28.5569109
  37.4739431  34.2694261  28.2232279  36.7526017  34.8830228  28.0839752
  38.2632687  34.8052026  28.1448925  40.2765745  31.6048687  34.4972931
  40.8000147  31.8510984  35.2599240  40.0578078  32.4368722  34.0776068
  35.6733026  33.8752362  22.3644055  35.3445732  32.9949741  22.1819161
  36.0272397  33.8200031  23.2520445  44.9212605  45.5107265  26.8739041
  44.7737567  44.5823972  27.0546611  45.7466098  45.5327355  26.3896116
  38.7874849  34.1625332  22.7319533  39.1270922  34.6911253  22.0098142
  39.2346970  34.5005738  23.5078100  41.4818290  32.5462382  32.1822601
  41.1415110  31.7470195  32.5843281  40.7757296  32.8464093  31.6099434
  42.1334762  29.6311695  30.6349924  42.9560831  29.1572173  30.5128815
  42.3772825  30.4102179  31.1348611  40.7742996  32.6599953  20.9312826
  41.4951359  33.0381206  20.4276543  40.1508300  33.3788830  21.0347804
  44.9174119  33.3645102  21.8671158  45.1337734  34.2469740  21.5659986
  44.4368186  32.9731316  21.1376800  39.6573341  36.3230815  28.4441903
  39.5117921  36.6371119  29.3366184  39.1798544  36.9415716  27.8912801
  41.5169723  33.3133363  28.4922792  41.5031292  32.4174457  28.1555090
  42.2342152  33.3204027  29.1261078  48.3142043  46.8521491  23.3166005
  48.4878920  46.2867913  22.5639858  48.8070934  47.6522386  23.1345495
  34.1319003  38.8636160  31.3829564  33.5872471  39.6395968  31.5149838
  35.0098353  39.2106964  31.2248685  40.9206619  32.1947744  23.7610363
  41.0422531  31.2664390  23.9601250  40.6308662  32.2086430  22.8488678
  43.7897810  29.8802654  26.8977082  43.8119507  29.9441987  25.9429062
  44.2065869  29.0407163  27.0917589  49.3017215  46.1688255  20.4162904
  49.9968120  46.7894948  20.6350218  49.6440366  45.3183606  20.6915281
  34.9185025  37.9906056  34.2759721  34.1766761  38.1388691  34.8624351
  34.5977769  38.2514322  33.4126470  51.2008639  43.6187961  21.9450234
  51.7259963  43.9575233  21.2199554  51.1130991  42.6834976  21.7613369
  42.8849299  49.6859944  26.3045487  42.4454290  49.1936323  26.9978344
  43.6357416  49.1432912  26.0637563  35.3641638  45.8771485  26.3070116
  36.1899658  45.5775257  25.9268759  35.0135690  45.1079107  26.7559904
  40.3323171  45.2297953  28.3767789  39.7103181  44.5668658  28.0770017
  41.0028038  45.2559085  27.6941437  33.5650243  43.7957811  27.2659049
  32.7282152  43.3679986  27.0843050  33.5373889  43.9890255  28.2029840
  40.4047699  33.7079741  37.9700295  40.4535854  34.5841864  37.5878065
  40.9470213  33.1657134  37.3971938  39.8936678  43.7801876  21.8526250
  40.0424799  44.4637341  21.1992922  40.7003122  43.7606966  22.3675705
  42.6346987  34.4611113  34.7246654  41.7650297  34.7544680  34.4529242
  42.8706468  35.0451558  35.4453917  37.6489311  39.8067054  22.8587319
  37.4035353  38.9029384  23.0567529  37.8185226  39.8084204  21.9166797
  45.3386021  30.6790730  32.2412074  45.8567965  31.4151757  31.9158563
  44.9841154  30.9854724  33.0758833  36.9184959  35.5395412  20.3573480
  36.2254204  35.6139767  19.7013516  36.6736711  34.7755755  20.8794997
  45.5898615  27.0991013  27.7612971  45.8700369  26.4314202  28.3873397
  46.3749222  27.2920109  27.2487635  43.3932084  46.2750007  19.3237997
  42.8206051  46.8940194  18.8708469  43.9664878  46.8249369  19.8577919
  47.4821853  32.6064230  31.6943947  46.8871785  32.8869243  30.9990435
  47.1971550  33.0958131  32.4660688  46.6129344  46.5587157  20.4546579
  47.5460017  46.4932719  20.6579455  46.5252556  47.3943424  19.9961112
  49.2417360  45.8753027  17.4150527  49.1630992  45.5412891  18.3086285
  50.0627027  46.3674795  17.4141999  43.7778882  37.6110820  16.6654050
  44.7237987  37.4817028  16.7342468  43.3993127  36.8725482  17.1423478
  49.7500767  29.2766826  26.6280941  49.5525588  28.9681914  27.5124273
  50.3600472  30.0028465  26.7578871  41.9621800  35.5360796  16.6008935
  41.0553255  35.2393909  16.6771648  42.2397781  35.2390614  15.7343221
  32.8799740  36.8567159  27.0507981  32.5602524  36.0032468  26.7582355
  32.3333168  37.0715738  27.8065949  36.6579647  39.5729600  30.7677488
  36.8765657  40.5046708  30.7865522  37.0705421  39.2137575  31.5532292
  43.5783865  30.0797686  22.7553176  42.7684594  29.7344771  23.1308422
  44.2668282  29.7705229  23.3440788  45.5074414  29.1575733  24.3777473
  46.0605452  29.5771186  25.0367496  45.7444500  28.2311481  24.4200429
  41.5307513  35.1462806  40.1580237  41.4304240  36.0957163  40.0892328
  41.3129055  34.8181045  39.2856307  40.7320584  32.3947731  16.7420914
  41.5939748  32.7202630  17.0016731  40.9170928  31.6079227  16.2293980
  32.7488000  40.4770071  29.0201103  32.0551471  40.0624024  28.5071057
  33.4960991  40.5190607  28.4234522  48.8853221  31.2676258  23.8856137
  48.3051890  31.9261062  23.5034189  48.6189153  30.4453602  23.4743555
  47.3356787  30.6681315  26.0877457  47.8356565  30.7797850  25.2791776
  47.9792395  30.3642368  26.7278266  34.6624742  40.4088325  26.8967118
  34.6395431  40.5076012  25.9449001  34.9725379  41.2553475  27.2184284
  37.3212120  42.4664480  31.0113732  38.2755374  42.4348422  30.9443664
  37.1224644  42.0055103  31.8263958  37.9111502  41.0365596  33.5784530
  38.7304391  41.5309674  33.6019367  38.1848310  40.1197564  33.5502097
  47.6678099  33.4276348  22.9412485  46.7803954  33.7125999  22.7232680
  48.0832088  33.2670111  22.0939762  51.0192635  33.4522869  26.6566825
  51.7953025  33.9419321  26.9291441  50.2940769  33.8780923  27.1138694
  53.4565193  34.1650488  27.7140765  54.0509684  33.9246224  27.0034073
  53.5291777  33.4457619  28.3414301  35.6762349  48.0084099  28.0283930
  35.5416817  47.2484500  27.4621928  35.2594411  48.7324999  27.5612719
  46.8121312  43.1921023  17.0360505  47.5157162  43.3971025  17.6518161
  46.0883961  43.7597785  17.3009589  47.6419122  38.9430884  23.1562775
  47.5854324  39.3999435  22.3170408  48.1947465  38.1821569  22.9785618
  51.4523928  34.7320616  23.9812895  51.1960863  34.3317252  24.8121103
  50.8276796  35.4464410  23.8563034  38.8331475  48.9053416  28.2402373
  38.7163859  49.8498849  28.1381063  38.0123921  48.6026978  28.6288172
  48.7208010  43.6303552  19.0858965  49.5553613  43.1984750  18.9036440
  48.5592352  43.4585566  20.0135860  48.3753902  40.1335665  20.4515305
  48.3202705  39.9679937  19.5103749  47.7499957  40.8411698  20.6077494
  33.1646417  35.3703730  34.2776727  33.8105280  34.8602684  34.7663952
  32.9563568  36.1072411  34.8520152  41.6850027  29.6343774  20.0300623
  41.6728697  30.5785614  20.1868894  42.5773449  29.4513920  19.7360084
  39.8585989  49.5581678  31.4558301  40.7613236  49.5905288  31.7724796
  39.6323359  48.6282129  31.4704637  41.6139591  48.3112665  28.1168380
  40.6635222  48.3114526  28.0032752  41.9172077  47.5645399  27.6004414
  45.5002147  26.2286551  24.2846560  44.7334542  25.6745038  24.4303242
  45.9112852  26.3008420  25.1460711  37.5043908  32.5171347  38.3751741
  38.3675369  32.1608152  38.5855066  36.9309318  32.1785242  39.0627145
  50.0168807  55.9536108  25.1072558  49.4533672  55.8626044  24.3388845
  49.9021202  55.1336012  25.5875050  47.5633239  57.4487299  27.9456778
  48.3554530  57.1078124  27.5303077  47.8029889  57.5582274  28.8658931
  55.5968365  59.6207075  20.4187023  54.9456345  60.2061156  20.0321036
  56.3912728  60.1513270  20.4782060  49.5223992  56.7096212  20.8174157
  50.2954868  56.1625199  20.6787033  49.8749391  57.5740462  21.0288618
  51.3609035  58.0372595  34.0241056  51.0698901  58.9418226  33.9087723
  51.9966019  58.0789122  34.7385126  51.8590270  52.8688879  18.4492607
  52.1115791  52.3470400  17.6876070  50.9214829  52.7055024  18.5519290
  57.0743630  57.3097507  20.9556007  56.4389463  57.3832134  21.6676912
  56.7441037  57.8991106  20.2775086  51.5786559  54.7716984  20.6516982
  51.4622817  54.0961888  21.3198066  51.6888819  54.2849358  19.8349135
  53.5623587  49.2617031  19.3525020  53.7297989  50.1297268  19.7195491
  53.3720756  49.4244313  18.4286309  49.7711402  54.1747807  27.0527554
  48.8461898  54.0424021  27.2605246  50.0195815  54.9542026  27.5497497
  53.5412808  51.7174689  20.3371686  53.4212433  52.1631740  21.1757167
  52.8465396  52.0660006  19.7785225  47.1320213  53.8181081  27.8871343
  47.2612594  54.0715560  28.8010755  46.4517664  54.4108789  27.5675999
  51.3019700  64.4878331  23.9861818  51.2243730  65.4386156  24.0650298
  50.6981343  64.1424203  24.6436744  59.2397874  52.1896162  21.1652020
  60.1515730  52.4223549  20.9899718  58.7307521  52.7733206  20.6027099
  57.8467456  57.1721980  28.5565602  57.2176319  57.3367695  27.8541670
  57.4593118  57.5863590  29.3276566  53.3995418  56.9096389  25.8215687
  53.8633764  57.1884091  25.0320310  53.1352216  56.0079833  25.6388778
  50.2919499  56.4567870  28.7595450  50.8620856  56.8855138  28.1212935
  50.8827611  56.1750455  29.4579636  46.0789638  51.2903094  27.9322386
  45.2888692  51.5460622  27.4562496  46.5700886  52.1051431  28.0374426
  48.0304384  51.6547673  24.8905862  47.2335547  51.7666367  25.4089358
  47.8029976  51.9934325  24.0246753  44.3627341  51.5433584  30.3637377
  44.6135380  52.4280594  30.6294952  44.8986890  51.3638186  29.5912468
  53.5758069  59.8460483  22.7067357  53.4403744  60.6912019  23.1352205
  54.1167881  60.0479761  21.9433291  47.0287466  57.3635922  23.2795282
  47.5411987  58.1579172  23.4300847  47.6810179  56.6662212  23.2128884
  48.8382351  60.4801678  25.3618036  49.0148979  61.4019643  25.1739020
  49.6339184  60.1660097  25.7912415  49.9613666  61.9979852  31.3628378
  50.5121091  61.8696915  30.5905372  49.1225142  62.2974741  31.0123271
  44.9936383  55.6924576  24.0554853  45.8311605  56.1021584  23.8388561
  45.1714651  54.7524018  24.0255047  56.8900815  53.3599656  19.7438686
  56.3747439  54.1304261  19.9827073  56.6178124  52.6864793  20.3671747
  52.2489959  45.8234430  28.2081666  53.1142955  45.6277239  27.8487555
  52.3167468  45.5944782  29.1351023  61.8635089  56.1132011  21.6791859
  61.0864532  55.7743171  21.2347022  62.5426570  56.1184634  21.0046824
  55.1233550  57.3916972  23.2191421  54.5954912  56.6569731  22.9064659
  54.6221053  58.1691648  22.9731389  49.8552278  48.0536638  25.5798033
  50.4296030  47.8311820  24.8471226  50.4423260  48.1225333  26.3326634
  50.1821865  50.0841099  19.5993918  49.3459177  50.4215786  19.9203193
  50.0426634  49.9490079  18.6621055  53.2686150  55.2097182  16.2226394
  52.3613212  54.9786436  16.4217543  53.7657182  54.4134801  16.4100376
  56.1754229  63.9194689  19.1423080  55.5015928  64.2226386  19.7508038
  56.5620051  64.7223770  18.7928537  54.4474384  55.3109777  20.7450384
  53.5385603  55.0268810  20.8422854  54.4769468  55.7308856  19.8853691
  58.1226590  60.7592863  25.4491370  58.4149565  61.3197920  24.7303736
  58.6325211  61.0521424  26.2044529  45.0162554  53.0315291  24.7265586
  44.8186954  52.4384652  24.0016653  44.4609218  52.7267501  25.4441525
  54.1450472  56.8518521  18.0838463  53.7069901  56.1354380  17.6244100
  54.8860912  57.0794636  17.5223554  50.9351638  51.5415457  24.6050558
  50.1219503  51.8409628  25.0115751  51.4310632  51.1471146  25.3225041
  53.0860216  61.5373214  26.5384823  53.0436394  61.7634061  25.6093355
  54.0022914  61.3036589  26.6870624  51.2026016  58.4136243  26.3346786
  51.9966615  57.9186563  26.1329361  50.4917709  57.8854106  25.9714491
  47.5108780  52.5579325  22.4106539  46.5806368  52.4963781  22.6276501
  47.6066252  52.0355278  21.6143180  47.4294329  49.0834138  24.9984780
  47.6901146  49.9979471  24.8893941  48.2511501  48.6158580  25.1481393
  54.3745444  64.0874362  21.3570159  54.5497200  63.6162405  22.1715782
  53.6878232  64.7140128  21.5851420  55.3302508  58.3646868  27.4033461
  54.9952340  58.3247638  28.2991111  54.8306453  57.6991584  26.9303871
  58.2661699  55.7102902  17.6770520  57.6490870  54.9849731  17.5803573
  57.7978188  56.4712263  17.3337595  48.9406530  67.2363725  28.1310020
  49.1803128  67.8682249  28.8089038  48.0975726  66.8851765  28.4175379
  50.0560245  49.9288327  16.7991825  49.1789711  49.8077127  16.4354071
  50.5317998  49.1374405  16.5470713  41.5762385  54.7165486  26.8933332
  42.2633425  54.4027216  26.3054347  41.4210514  55.6206851  26.6200583
  53.4534391  63.0442847  30.5351524  53.3804563  63.8497818  31.0470828
  53.0111785  63.2434813  29.7099545  53.2424171  62.2814617  24.0454345
  52.4591693  62.8236297  24.1392570  53.9416916  62.7988597  24.4448586
  57.6350602  56.8480934  24.2626974  56.7006881  56.9682396  24.0931678
  57.8127270  55.9453400  23.9986984  50.9644989  60.6924124  33.5115253
  51.6654448  61.3260607  33.6644647  50.4940104  61.0338856  32.7510892
  59.0899384  59.0342074  21.7963160  59.3659228  58.9198669  22.7057034
  58.2203883  58.6359559  21.7575333  55.7253448  63.2828425  25.4395974
  55.9075843  62.4650081  25.9023726  56.5486434  63.4996117  25.0020864
  56.0595614  62.2096610  22.7011022  56.5883380  61.6989065  22.0881184
  56.3223833  61.8939140  23.5656555  46.5612707  60.2260480  30.4446356
  47.1466143  59.4804167  30.5774260  46.3637545  60.5364436  31.3283020
  49.4151362  63.2611727  25.4608798  48.7461737  63.7457855  24.9772838
  49.2764232  63.5080947  26.3752177  41.1530361  52.7966080  29.1650799
  41.1914461  52.2629670  29.9587917  40.6470654  52.2701285  28.5461776
  53.5556630  65.2955470  32.0591457  54.1074938  65.4587092  32.8240542
  53.8962824  65.8859908  31.3871481  44.7838939  51.5230182  22.2404730
  45.0792380  50.6140860  22.1871784  43.8826975  51.5017921  21.9185733
  46.5126781  49.2044280  22.3644055  46.1839487  48.3241658  22.1819161
  46.8666151  49.1491948  23.2520445  55.7606359  60.8399182  26.8739041
  55.6131322  59.9115890  27.0546611  56.5859853  60.8619273  26.3896116
  49.6268604  49.4917249  22.7319533  49.9664676  50.0203171  22.0098142
  50.0740724  49.8297655  23.5078100  59.3640481  61.6627741  27.9603914
  60.2887029  61.4570602  27.8228365  59.1955785  61.4144142  28.8693255
  51.6136751  47.9891871  20.9312826  52.3345113  48.3673124  20.4276543
  50.9902055  48.7080748  21.0347804  52.3563478  48.6425281  28.4922792
  52.3425047  47.7466374  28.1555090  53.0735906  48.6495945  29.1261078
  59.1535797  62.1813408  23.3166005  59.3272675  61.6159831  22.5639858
  59.6464689  62.9814303  23.1345495  44.9712757  54.1928078  31.3829564
  44.4266225  54.9687885  31.5149838  45.8492107  54.5398882  31.2248685
  51.7600374  47.5239661  23.7610363  51.8816285  46.5956308  23.9601250
  51.4702416  47.5378347  22.8488678  60.1410970  61.4980173  20.4162904
  60.8361875  62.1186866  20.6350218  60.4834120  60.6475524  20.6915281
  62.0402393  58.9479878  21.9450234  62.5653717  59.2867151  21.2199554
  61.9524746  58.0126894  21.7613369  53.7243054  65.0151862  26.3045487
  53.2848044  64.5228240  26.9978344  54.4751171  64.4724829  26.0637563
  46.2035393  61.2063403  26.3070116  47.0293413  60.9067174  25.9268759
  45.8529445  60.4371025  26.7559904  51.1716926  60.5589871  28.3767789
  50.5496935  59.8960576  28.0770017  51.8421793  60.5851003  27.6941437
  44.4043998  59.1249729  27.2659049  43.5675906  58.6971903  27.0843050
  44.3767643  59.3182172  28.2029840  50.7330433  59.1093794  21.8526250
  50.8818553  59.7929258  21.1992922  51.5396876  59.0898884  22.3675705
  48.4883066  55.1358972  22.8587319  48.2429108  54.2321302  23.0567529
  48.6578980  55.1376122  21.9166797  47.7578713  50.8687329  20.3573480
  47.0647958  50.9431684  19.7013516  47.5130465  50.1047673  20.8794997
  54.2325838  61.6041925  19.3237997  53.6599805  62.2232112  18.8708469
  54.8058632  62.1541286  19.8577919  57.4523098  61.8879075  20.4546579
  58.3853771  61.8224636  20.6579455  57.3646311  62.7235342  19.9961112
  60.0811115  61.2044945  17.4150527  60.0024746  60.8704809  18.3086285
  60.9020782  61.6966713  17.4141999  54.6172637  52.9402737  16.6654050
  55.5631742  52.8108945  16.7342468  54.2386882  52.2017399  17.1423478
  52.8015554  50.8652714  16.6008935  51.8947009  50.5685826  16.6771648
  53.0791535  50.5682532  15.7343221  43.7193494  52.1859077  27.0507981
  43.3996279  51.3324385  26.7582355  43.1726923  52.4007655  27.8065949
  47.4973402  54.9021518  30.7677488  47.7159412  55.8338626  30.7865522
  47.9099176  54.5429492  31.5532292  54.4177620  45.4089603  22.7553176
  53.6078348  45.0636688  23.1308422  55.1062037  45.0997147  23.3440788
  51.5714339  47.7239649  16.7420914  52.4333503  48.0494547  17.0016731
  51.7564683  46.9371145  16.2293980  43.5881754  55.8061989  29.0201103
  42.8945226  55.3915941  28.5071057  44.3354745  55.8482525  28.4234522
  45.5018497  55.7380242  26.8967118  45.4789185  55.8367930  25.9449001
  45.8119133  56.5845393  27.2184284  48.1605875  57.7956397  31.0113732
  49.1149128  57.7640340  30.9443664  47.9618398  57.3347021  31.8263958
  48.7505257  56.3657513  33.5784530  49.5698146  56.8601592  33.6019367
  49.0242065  55.4489482  33.5502097  46.5156104  63.3376017  28.0283930
  46.3810572  62.5776418  27.4621928  46.0988166  64.0616917  27.5612719
  57.6515067  58.5212940  17.0360505  58.3550917  58.7262943  17.6518161
  56.9277715  59.0889702  17.3009589  58.4812877  54.2722802  23.1562775
  58.4248078  54.7291353  22.3170408  59.0341219  53.5113486  22.9785618
  49.6725229  64.2345334  28.2402373  49.5557614  65.1790766  28.1381063
  48.8517676  63.9318895  28.6288172  59.5601764  58.9595470  19.0858965
  60.3947368  58.5276668  18.9036440  59.3986107  58.7877483  20.0135860
  59.2147656  55.4627583  20.4515305  59.1596460  55.2971854  19.5103749
  58.5893711  56.1703616  20.6077494  52.5243782  44.9635692  20.0300623
  52.5122451  45.9077532  20.1868894  53.4167204  44.7805837  19.7360084
  50.6979744  64.8873596  31.4558301  51.6006990  64.9197206  31.7724796
  50.4717114  63.9574047  31.4704637  52.4533346  63.6404582  28.1168380
  51.5028977  63.6406444  28.0032752  52.7565832  62.8937317  27.6004414
  68.1886039  69.4765121  29.1814142  68.8264449  69.3571868  28.4777482
  68.0706882  70.4245965  29.2402094  64.9975745  69.4292549  29.1175667
  64.6594257  69.3133614  28.2296202  65.8665514  69.0283714  29.0976673
  60.8562561  71.2828025  25.1072558  60.2927426  71.1917962  24.3388845
  60.7414956  70.4627930  25.5875050  65.4795528  70.5827401  35.0761872
  65.4684169  70.1880199  34.2042376  65.6416168  69.8493473  35.6695644
  58.4026993  72.7779217  27.9456778  59.1948285  72.4370041  27.5303077
  58.6423643  72.8874192  28.8658931  66.4362120  74.9498993  20.4187023
  65.7850100  75.5353073  20.0321036  67.2306483  75.4805188  20.4782060
  60.3617747  72.0388130  20.8174157  61.1348623  71.4917117  20.6787033
  60.7143146  72.9032379  21.0288618  62.2002790  73.3664512  34.0241056
  61.9092655  74.2710143  33.9087723  62.8359774  73.4081040  34.7385126
  63.1258996  70.7441361  30.6142416  63.7222569  70.5197383  29.8999379
  63.1833968  70.0026106  31.2167864  62.6984025  68.1980796  18.4492607
  62.9509545  67.6762317  17.6876070  61.7608584  68.0346942  18.5519290
  67.7427308  67.2016575  26.2567350  68.5290397  66.7835998  25.9057767
  68.0066012  68.1062667  26.4248998  67.9137385  72.6389425  20.9556007
  67.2783218  72.7124051  21.6676912  67.5834791  73.2283024  20.2775086
  73.1435735  67.1391808  27.1600329  73.8760907  66.5691025  27.3938158
  72.3875090  66.7513408  27.6006834  62.4180314  70.1008902  20.6516982
  62.3016572  69.4253806  21.3198066  62.5282573  69.6141276  19.8349135
  64.7611854  69.5619049  24.3563671  64.3970062  69.0349670  25.0676593
  65.6178970  69.1717518  24.1830156  64.4017341  64.5908949  19.3525020
  64.5691744  65.4589185  19.7195491  64.2114510  64.7536231  18.4286309
  67.1592675  73.0525928  31.0190850  66.8593398  73.9550967  30.9106657
  66.8143734  72.7858111  31.8712003  60.6105156  69.5039725  27.0527554
  59.6855653  69.3715939  27.2605246  60.8589569  70.2833944  27.5497497
  70.5589818  65.5708468  28.6988287  69.6506696  65.5023876  28.4047048
  70.5077414  66.0480413  29.5270113  64.3806562  67.0466606  20.3371686
  64.2606187  67.4923657  21.1757167  63.6859151  67.3951924  19.7785225
  57.9713967  69.1472998  27.8871343  58.1006348  69.4007477  28.8010755
  57.2911418  69.7400706  27.5675999  62.1413454  79.8170248  23.9861818
  62.0637484  80.7678073  24.0650298  61.5375098  79.4716121  24.6436744
  64.6330684  66.9898114  36.6423185  63.8564018  67.5492034  36.6326049
  65.2721247  67.4754897  37.1638055  70.0791628  67.5188080  21.1652020
  70.9909485  67.7515466  20.9899718  69.5701276  68.1025124  20.6027099
  62.8877056  69.7983567  36.2041152  63.6291741  70.3368611  35.9275975
  62.1814042  70.4249856  36.3612703  68.3632396  71.9412707  34.8013313
  68.7715752  71.4995118  34.0567945  67.6409658  71.3665335  35.0547506
  64.7163466  66.8785314  32.1746870  65.5624661  67.3024728  32.3181519
  64.6562104  66.2218939  32.8685433  68.6861211  72.5013898  28.5565602
  68.0570073  72.6659612  27.8541670  68.2986873  72.9155508  29.3276566
  72.5650443  73.4368336  25.9109966  71.8801481  73.8167237  25.3606999
  72.6494292  74.0463663  26.6441913  69.8201374  71.0828295  32.5105309
  70.0318270  71.7260055  31.8339690  69.7731123  70.2490612  32.0427239
  67.4227603  63.6946116  29.4141881  66.5612082  63.9927369  29.7058619
  67.4490038  63.9116515  28.4822914  64.2389173  72.2388306  25.8215687
  64.7027518  72.5176009  25.0320310  63.9745971  71.3371751  25.6388778
  61.1313254  71.7859788  28.7595450  61.7014611  72.2147056  28.1212935
  61.7221366  71.5042372  29.4579636  63.1758059  68.3611459  22.6305252
  63.8782102  68.8132502  23.0979179  62.8438687  67.7195277  23.2585145
  61.6238420  66.9523215  37.0056462  60.9937081  67.6339496  37.2391858
  61.5174508  66.8406297  36.0609600  56.9183393  66.6195011  27.9322386
  56.1282447  66.8752540  27.4562496  57.4094640  67.4343349  28.0374426
  70.9347202  73.9600250  30.6827667  71.7564646  73.5580438  30.4010348
  70.9309605  73.8568485  31.6343782  58.8698138  66.9839590  24.8905862
  58.0729301  67.0958285  25.4089358  58.6423730  67.3226243  24.0246753
  64.7003806  73.5084294  32.8388377  64.7648238  73.9704701  33.6746549
  63.9914730  72.8781659  32.9670687  55.2021096  66.8725502  30.3637377
  55.4529134  67.7572512  30.6294952  55.7380644  66.6930103  29.5912468
  79.0253195  70.3038999  27.0312638  78.2716904  69.7346397  26.8756642
  79.1600736  70.2701663  27.9783273  64.4151823  75.1752401  22.7067357
  64.2797498  76.0203937  23.1352205  64.9561636  75.3771679  21.9433291
  57.8681221  72.6927839  23.2795282  58.3805741  73.4871089  23.4300847
  58.5203934  71.9954130  23.2128884  59.6776105  75.8093595  25.3618036
  59.8542734  76.7311560  25.1739020  60.4732939  75.4952015  25.7912415
  58.9628462  67.8558227  35.2380199  58.8481977  66.9543485  35.5387298
  58.1072980  68.1021924  34.8865015  66.0420300  75.7975968  36.8367699
  65.5984154  75.0112346  36.5188604  66.7037513  75.9855118  36.1711590
  60.8007421  77.3271769  31.3628378  61.3514846  77.1988833  30.5905372
  59.9618897  77.6266658  31.0123271  68.1401538  76.0778768  34.8649101
  68.1220013  76.8987649  34.3729370  69.0621458  75.9532843  35.0899242
  64.5974592  73.5922897  35.7072609  65.1302929  72.8311185  35.4771917
  64.0688673  73.2996549  36.4496764  55.8330137  71.0216494  24.0554853
  56.6705359  71.4313502  23.8388561  56.0108405  70.0815936  24.0255047
  67.7294570  68.6891574  19.7438686  67.2141193  69.4596179  19.9827073
  67.4571878  68.0156710  20.3671747  65.3141681  63.5341275  24.8023924
  64.4583277  63.1448125  24.6229563  65.7268632  63.6133236  23.9423710
  72.7028844  71.4423929  21.6791859  71.9258287  71.1035088  21.2347022
  73.3820325  71.4476552  21.0046824  67.5180873  66.5618666  21.5698467
  67.2131008  66.8764815  22.4208610  68.4711315  66.6400086  21.6125800
  65.9627305  72.7208890  23.2191421  65.4348666  71.9861649  22.9064659
  65.4614807  73.4983566  22.9731389  70.9420151  70.9157910  28.3358467
  70.2843825  71.6057171  28.4238596  71.7460550  71.3054342  28.6792454
  60.6946032  63.3828556  25.5798033  61.2689784  63.1603737  24.8471226
  61.2817015  63.4517250  26.3326634  69.7525609  69.2702283  26.3862409
  70.2657491  69.9032275  26.8884119  70.4026833  68.6703478  26.0205769
  61.0215619  65.4133017  19.5993918  60.1852932  65.7507703  19.9203193
  60.8820389  65.2781997  18.6621055  64.1079905  70.5389100  16.2226394
  63.2006967  70.3078353  16.4217543  64.6050937  69.7426719  16.4100376
  67.0147984  79.2486607  19.1423080  66.3409682  79.5518304  19.7508038
  67.4013806  80.0515687  18.7928537  66.2306440  66.7451738  28.6320750
  65.3129002  66.9666685  28.4742438  66.6466584  66.8198049  27.7732457
  67.0141488  68.1443154  23.7623430  67.7613307  68.6564551  23.4530552
  67.2833078  67.8227207  24.6227824  65.2868138  70.6401695  20.7450384
  64.3779357  70.3560728  20.8422854  65.3163222  71.0600773  19.8853691
  70.5187406  74.2508284  24.5141552  70.0649733  73.4099194  24.5706742
  69.8881372  74.8869683  24.8516332  69.4620325  65.1800270  25.7442219
  68.7243082  64.6677656  26.0752462  69.7147099  64.7400652  24.9325496
  68.9620345  76.0884781  25.4491370  69.2543319  76.6489838  24.7303736
  69.4718965  76.3813342  26.2044529  55.8556309  68.3607209  24.7265586
  55.6580708  67.7676570  24.0016653  55.3002973  68.0559419  25.4441525
  63.8353032  68.2530315  26.8460180  63.8901642  67.3004152  26.7702656
  63.0244234  68.4089754  27.3301478  64.9844226  72.1810438  18.0838463
  64.5463656  71.4646297  17.6244100  65.7254667  72.4086553  17.5223554
  61.7745392  66.8707375  24.6050558  60.9613258  67.1701546  25.0115751
  62.2704386  66.4763064  25.3225041  63.9253970  76.8665132  26.5384823
  63.8830149  77.0925978  25.6093355  64.8416669  76.6328507  26.6870624
  73.1017341  70.4567635  24.1414781  72.9635239  70.6469231  23.2135971
  72.7453560  71.2187018  24.5982833  61.2659467  64.4425731  30.2211793
  61.9058846  64.3014490  29.5234757  60.4336998  64.1560244  29.8450395
  73.1286720  72.5244162  29.1526053  73.5623227  72.4319452  30.0009107
  73.8418301  72.5001663  28.5146069  62.0419771  73.7428161  26.3346786
  62.8360369  73.2478481  26.1329361  61.3311463  73.2146024  25.9714491
  66.8614615  76.1246257  30.6859153  66.9151638  76.6937193  31.4536869
  65.9929397  76.2948142  30.3213191  58.3502534  67.8871243  22.4106539
  57.4200122  67.8255698  22.6276501  58.4460006  67.3647195  21.6143180
  58.2688083  64.4126056  24.9984780  58.5294901  65.3271389  24.8893941
  59.0905256  63.9450498  25.1481393  73.9902270  72.5667863  31.6858938
  74.1838160  73.4713674  31.9318213  73.8902888  72.1075282  32.5197523
  69.0517379  72.7174606  37.2599819  68.9002885  72.4885158  36.3429903
  69.0422058  73.6745207  37.2731164  65.8202715  70.2906519  32.2446085
  66.7494775  70.4417678  32.0715053  65.3993745  70.3790539  31.3894732
  64.6191047  74.3157183  30.0144623  64.4802133  73.9475967  30.8870561
  63.8305643  74.8304822  29.8428581  65.2139199  79.4166279  21.3570159
  65.3890955  78.9454323  22.1715782  64.5271987  80.0432046  21.5851420
  66.1696262  73.6938786  27.4033461  65.8346095  73.6539556  28.2991111
  65.6700208  73.0283502  26.9303871  60.1440506  69.1006416  32.9286042
  60.0060304  68.3686655  33.5297581  61.0545429  69.0115316  32.6470230
  69.1055454  71.0394820  17.6770520  68.4884624  70.3141648  17.5803573
  68.6371942  71.8004180  17.3337595  62.7722807  68.8126375  32.4169722
  63.4822425  68.1719567  32.3756340  62.7292115  69.0639270  33.3395902
  70.7609585  75.7493728  35.3376301  70.7022131  75.0652948  34.6706884
  71.1629104  76.4912718  34.8856927  61.4851741  65.7991593  34.2365361
  60.9489098  65.3482331  34.8886957  60.8968449  65.9337502  33.4935825
  59.7800284  82.5655642  28.1310020  60.0196882  83.1974166  28.8089038
  58.9369481  82.2143682  28.4175379  60.8954000  65.2580244  16.7991825
  60.0183466  65.1369045  16.4354071  61.3711753  64.4666323  16.5470713
  70.7626993  73.7133312  33.5690280  69.8753771  73.3759234  33.6916679
  71.3325544  72.9816344  33.8059046  52.4156140  70.0457404  26.8933332
  53.1027180  69.7319134  26.3054347  52.2604268  70.9498769  26.6200583
  64.2928146  78.3734765  30.5351524  64.2198317  79.1789736  31.0470828
  63.8505539  78.5726730  29.7099545  64.0817926  77.6106535  24.0454345
  63.2985447  78.1528215  24.1392570  64.7810671  78.1280514  24.4448586
  67.3914576  63.4201164  26.6888551  67.8883275  62.6671126  26.3689621
  66.6201557  63.4565481  26.1231760  75.2444333  69.1241530  28.3306842
  75.2334209  70.0066245  27.9600775  74.3761713  68.7713081  28.1361379
  66.7526829  78.2721599  32.6909682  67.4654802  78.9069064  32.6185584
  66.2616858  78.3685465  31.8749684  68.4744356  72.1772851  24.2626974
  67.5400635  72.2974314  24.0931678  68.6521025  71.2745318  23.9986984
  63.9749544  65.5618547  26.4160235  63.6047332  65.0089588  27.1041141
  64.4708637  64.9576681  25.8635235  71.8616908  68.0190171  24.7977008
  72.3277360  68.8518162  24.7237311  72.3124408  67.5535152  25.5022267
  61.8038743  76.0216042  33.5115253  62.5048203  76.6552525  33.6644647
  61.3333858  76.3630774  32.7510892  69.9293139  74.3633992  21.7963160
  70.2052983  74.2490587  22.7057034  69.0597638  73.9651477  21.7575333
  69.6040029  68.5760650  31.3367803  68.9511479  68.8236557  30.6820256
  69.9820409  67.7624788  31.0030281  66.5647203  78.6120343  25.4395974
  66.7469597  77.7941999  25.9023726  67.3880189  78.8288035  25.0020864
  66.8989368  77.5388528  22.7011022  67.4277135  77.0280982  22.0881184
  67.1617588  77.2231058  23.5656555  65.6527602  69.3180461  37.8233841
  64.9768239  69.2174590  38.4936216  66.4755236  69.1619674  38.2869838
  57.4006461  75.5552397  30.4446356  57.9859898  74.8096085  30.5774260
  57.2031300  75.8656354  31.3283020  60.2545116  78.5903645  25.4608798
  59.5855492  79.0749772  24.9772838  60.1157986  78.8372865  26.3752177
  51.9924116  68.1257997  29.1650799  52.0308215  67.5921588  29.9587917
  51.4864409  67.5993203  28.5461776  64.3950385  80.6247388  32.0591457
  64.9468693  80.7879010  32.8240542  64.7356578  81.2151826  31.3871481
  69.2461259  75.4508646  37.9140111  69.7901163  76.0638604  37.4195066
  68.6648104  76.0088224  38.4307124  55.6232693  66.8522100  22.2404730
  55.9186134  65.9432778  22.1871784  54.7220729  66.8309839  21.9185733
  67.5318772  78.5729364  29.0455139  67.4069912  77.7719103  28.5366084
  68.1897863  79.0675557  28.5569109  59.1526940  64.9278096  28.2232279
  58.4313526  65.5414064  28.0839752  59.9420196  65.4635861  28.1448925
  69.5953681  76.3738384  30.6734689  68.6484016  76.2543735  30.6013016
  69.9436454  75.4860882  30.7560950  57.3520535  64.5336197  22.3644055
  57.0233241  63.6533576  22.1819161  57.7059906  64.4783866  23.2520445
  66.6000114  76.1691100  26.8739041  66.4525076  75.2407807  27.0546611
  67.4253607  76.1911191  26.3896116  60.4662358  64.8209167  22.7319533
  60.8058431  65.3495088  22.0098142  60.9134479  65.1589573  23.5078100
  70.2034236  76.9919659  27.9603914  71.1280783  76.7862520  27.8228365
  70.0349539  76.7436060  28.8693255  62.4530505  63.3183789  20.9312826
  63.1738868  63.6965041  20.4276543  61.8295809  64.0372665  21.0347804
  66.5961628  64.0228938  21.8671158  66.8125243  64.9053575  21.5659986
  66.1155695  63.6315151  21.1376800  61.3360850  66.9814651  28.4441903
  61.1905430  67.2954954  29.3366184  60.8586053  67.5999551  27.8912801
  65.0483363  64.4054539  30.5375920  64.7901141  65.3271610  30.5360250
  64.5168404  64.0084974  31.2276384  69.9929552  77.5105326  23.3166005
  70.1666429  76.9451749  22.5639858  70.4858443  78.3106221  23.1345495
  55.8106512  69.5219995  31.3829564  55.2659980  70.2979803  31.5149838
  56.6885862  69.8690800  31.2248685  62.5994128  62.8531579  23.7610363
  62.7210040  61.9248225  23.9601250  62.3096171  62.8670265  22.8488678
  75.8468943  70.2741749  24.9356305  76.2900089  69.5249074  24.5375428
  74.9695453  70.2651885  24.5530037  70.9804724  76.8272091  20.4162904
  71.6755629  77.4478783  20.6350218  71.3227875  75.9767442  20.6915281
  56.5972534  68.6489891  34.2759721  55.8554270  68.7972527  34.8624351
  56.2765278  68.9098157  33.4126470  72.8796148  74.2771796  21.9450234
  73.4047472  74.6159069  21.2199554  72.7918500  73.3418811  21.7613369
  64.5416196  78.1905870  34.0740111  64.8503323  77.9455016  34.9462810
  65.3391678  78.3952508  33.5858981  64.5636808  80.3443779  26.3045487
  64.1241799  79.8520158  26.9978344  65.3144925  79.8016747  26.0637563
  57.0429147  76.5355320  26.3070116  57.8687167  76.2359092  25.9268759
  56.6923199  75.7662943  26.7559904  62.0110680  75.8881788  28.3767789
  61.3890690  75.2252493  28.0770017  62.6815547  75.9142920  27.6941437
  55.2437752  74.4541647  27.2659049  54.4069661  74.0263821  27.0843050
  55.2161398  74.6474090  28.2029840  72.5690054  74.9104700  37.2501432
  71.7785597  74.8928839  36.7105932  72.3323408  75.4492993  38.0050469
  72.6887929  71.7597166  34.5634161  72.7385934  71.5947174  35.5049684
  72.5801852  70.8924425  34.1732042  61.5724187  74.4385712  21.8526250
  61.7212308  75.1221176  21.1992922  62.3790631  74.4190802  22.3675705
  64.3134496  65.1194949  34.7246654  63.4437806  65.4128515  34.4529242
  64.5493977  65.7035394  35.4453917  74.1906125  74.1794108  34.8076182
  73.8990934  74.5424088  35.6439643  73.5778257  73.4661116  34.6289514
  75.3901808  71.7446987  27.3278753  76.2248699  72.1836791  27.4916313
  75.5260937  71.2685641  26.5086998  72.4393314  69.3026722  33.2756240
  72.9147435  69.4954369  32.4675092  71.5158879  69.3585908  33.0299624
  59.3276820  70.4650889  22.8587319  59.0822862  69.5613219  23.0567529
  59.4972735  70.4668040  21.9166797  58.5972468  66.1979247  20.3573480
  57.9041713  66.2723602  19.7013516  58.3524220  65.4339591  20.8794997
  65.0719593  76.9333842  19.3237997  64.4993560  77.5524029  18.8708469
  65.6452387  77.4833204  19.8577919  68.2916853  77.2170992  20.4546579
  69.2247526  77.1516554  20.6579455  68.2040065  78.0527259  19.9961112
  70.9204869  76.5336863  17.4150527  70.8418501  76.1996726  18.3086285
  71.7414536  77.0258631  17.4141999  73.6183060  69.3998602  30.6226846
  73.5859381  68.4614603  30.8086529  74.2283684  69.4782639  29.8892670
  65.4566391  68.2694655  16.6654050  66.4025496  68.1400863  16.7342468
  65.0780636  67.5309317  17.1423478  73.7677549  66.1909645  30.6685129
  73.2516598  65.4068102  30.4815058  74.6517498  65.8628362  30.8331648
  79.4359610  70.4614609  29.7632882  80.1662999  70.1999897  30.3240586
  78.8266556  69.7243331  29.8034950  77.5174907  68.6022471  30.3607334
  76.7908071  68.4678436  29.7523825  77.1022194  68.9099300  31.1664052
  65.3405084  72.3212401  38.1254707  66.2608093  72.4991000  38.3194753
  65.3054667  71.3768446  37.9734406  63.6409309  66.1944631  16.6008935
  62.7340764  65.8977744  16.6771648  63.9185290  65.8974449  15.7343221
  54.5587249  67.5150995  27.0507981  54.2390033  66.6616303  26.7582355
  54.0120677  67.7299573  27.8065949  58.3367156  70.2313436  30.7677488
  58.5553166  71.1630544  30.7865522  58.7492930  69.8721410  31.5532292
  62.4108093  63.0531567  16.7420914  63.2727257  63.3786465  17.0016731
  62.5958437  62.2663062  16.2293980  54.4275509  71.1353906  29.0201103
  53.7338980  70.7207859  28.5071057  55.1748500  71.1774443  28.4234522
  70.5640730  61.9260093  23.8856137  69.9839399  62.5844897  23.5034189
  70.2976662  61.1037438  23.4743555  63.0726292  69.2343780  38.9745298
  62.5893374  70.0344140  39.1809187  63.1587231  69.2451725  38.0212742
  56.3412251  71.0672160  26.8967118  56.3182940  71.1659847  25.9449001
  56.6512888  71.9137311  27.2184284  58.9999629  73.1248315  31.0113732
  59.9542883  73.0932257  30.9443664  58.8012153  72.6638939  31.8263958
  59.5899011  71.6949431  33.5784530  60.4091900  72.1893510  33.6019367
  59.8635819  70.7781399  33.5502097  69.3465608  64.0860183  22.9412485
  68.4591463  64.3709834  22.7232680  69.7619597  63.9253947  22.0939762
  72.6980144  64.1106704  26.6566825  73.4740534  64.6003157  26.9291441
  71.9728278  64.5364759  27.1138694  75.1352702  64.8234324  27.7140765
  75.7297193  64.5830060  27.0034073  75.2079286  64.1041454  28.3414301
  57.3549858  78.6667935  28.0283930  57.2204326  77.9068335  27.4621928
  56.9381920  79.3908834  27.5612719  68.4908821  73.8504858  17.0360505
  69.1944671  74.0554861  17.6518161  67.7671470  74.4181620  17.3009589
  69.3206631  69.6014719  23.1562775  69.2641833  70.0583271  22.3170408
  69.8734974  68.8405404  22.9785618  73.1311437  65.3904451  23.9812895
  72.8748372  64.9901087  24.8121103  72.5064305  66.1048245  23.8563034
  77.4423775  68.1300524  26.4884186  76.8823333  68.1993714  27.2615748
  76.8367279  67.9541509  25.7683683  60.5118984  79.5637252  28.2402373
  60.3951368  80.5082684  28.1381063  59.6911430  79.2610813  28.6288172
  70.3995518  74.2887387  19.0858965  71.2341122  73.8568586  18.9036440
  70.2379861  74.1169401  20.0135860  70.0541411  70.7919501  20.4515305
  69.9990214  70.6263772  19.5103749  69.4287466  71.4995533  20.6077494
  67.3687318  73.0968412  39.7768867  68.2378477  73.2709065  39.4155502
  66.8894069  73.9162829  39.6544597  63.3637536  60.2927610  20.0300623
  63.3516206  61.2369450  20.1868894  64.2560958  60.1097755  19.7360084
  61.5373498  80.2165513  31.4558301  62.4400745  80.2489124  31.7724796
  61.3110868  79.2865964  31.4704637  63.2927100  78.9696500  28.1168380
  62.3422731  78.9698362  28.0032752  63.5959586  78.2229235  27.6004414
  79.0279794  84.8057038  29.1814142  79.6658204  84.6863786  28.4777482
  78.9100636  85.7537882  29.2402094  75.8369500  84.7584466  29.1175667
  75.4988011  84.6425531  28.2296202  76.7059268  84.3575632  29.0976673
  71.6956316  86.6119943  25.1072558  71.1321181  86.5209880  24.3388845
  71.5808711  85.7919847  25.5875050  76.3189283  85.9119318  35.0761872
  76.3077924  85.5172116  34.2042376  76.4809922  85.1785391  35.6695644
  69.2420747  88.1071135  27.9456778  70.0342039  87.7661959  27.5303077
  69.4817398  88.2166110  28.8658931  77.2755874  90.2790911  20.4187023
  76.6243854  90.8644991  20.0321036  78.0700237  90.8097106  20.4782060
  71.2011501  87.3680048  20.8174157  71.9742377  86.8209035  20.6787033
  71.5536900  88.2324297  21.0288618  73.0396544  88.6956430  34.0241056
  72.7486410  89.6002061  33.9087723  73.6753528  88.7372958  34.7385126
  73.9652751  86.0733279  30.6142416  74.5616323  85.8489301  29.8999379
  74.0227722  85.3318024  31.2167864  73.5377779  83.5272714  18.4492607
  73.7903300  83.0054235  17.6876070  72.6002338  83.3638859  18.5519290
  78.5821062  82.5308492  26.2567350  79.3684151  82.1127915  25.9057767
  78.8459766  83.4354584  26.4248998  78.7531139  87.9681343  20.9556007
  78.1176972  88.0415969  21.6676912  78.4228546  88.5574941  20.2775086
  83.9829489  82.4683725  27.1600329  84.7154661  81.8982942  27.3938158
  83.2268845  82.0805326  27.6006834  73.2574068  85.4300820  20.6516982
  73.1410326  84.7545723  21.3198066  73.3676328  84.9433194  19.8349135
  75.6005609  84.8910967  24.3563671  75.2363816  84.3641588  25.0676593
  76.4572725  84.5009436  24.1830156  81.5054910  76.1805300  31.6194937
  81.1738234  77.0500711  31.3956152  80.9100523  75.8641584  32.2988968
  75.2411096  79.9200867  19.3525020  75.4085498  80.7881103  19.7195491
  75.0508265  80.0828148  18.4286309  77.9986429  88.3817846  31.0190850
  77.6987152  89.2842884  30.9106657  77.6537489  88.1150029  31.8712003
  71.4498911  84.8331642  27.0527554  70.5249407  84.7007856  27.2605246
  71.6983324  85.6125862  27.5497497  81.3983573  80.9000386  28.6988287
  80.4900450  80.8315794  28.4047048  81.3471169  81.3772331  29.5270113
  75.2200317  82.3758524  20.3371686  75.0999942  82.8215575  21.1757167
  74.5252905  82.7243842  19.7785225  68.8107722  84.4764916  27.8871343
  68.9400103  84.7299395  28.8010755  68.1305173  85.0692624  27.5675999
  72.9807209  95.1462166  23.9861818  72.9031239  96.0969991  24.0650298
  72.3768852  94.8008038  24.6436744  75.4724439  82.3190031  36.6423185
  74.6957773  82.8783951  36.6326049  76.1115002  82.8046814  37.1638055
  83.2645219  79.1016824  30.4766161  82.6219600  79.3949357  29.8305956
  82.7600148  78.9869744  31.2819358  80.9185383  82.8479997  21.1652020
  81.8303239  83.0807384  20.9899718  80.4095030  83.4317042  20.6027099
  73.7270811  85.1275485  36.2041152  74.4685495  85.6660529  35.9275975
  73.0207796  85.7541773  36.3612703  79.2026151  87.2704625  34.8013313
  79.6109507  86.8287036  34.0567945  78.4803412  86.6957253  35.0547506
  75.5557221  82.2077232  32.1746870  76.4018416  82.6316645  32.3181519
  75.4955858  81.5510856  32.8685433  79.5254965  87.8305816  28.5565602
  78.8963828  87.9951530  27.8541670  79.1380627  88.2447425  29.3276566
  83.4044197  88.7660254  25.9109966  82.7195235  89.1459155  25.3606999
  83.4888046  89.3755580  26.6441913  78.7056666  79.8681600  33.8328044
  78.4617598  80.6223661  33.2962319  78.9816596  80.2466948  34.6675291
  80.6595129  86.4120213  32.5105309  80.8712024  87.0551973  31.8339690
  80.6124877  85.5782529  32.0427239  78.2621358  79.0238033  29.4141881
  77.4005837  79.3219287  29.7058619  78.2883792  79.2408432  28.4822914
  75.0782927  87.5680224  25.8215687  75.5421273  87.8467927  25.0320310
  74.8139725  86.6663668  25.6388778  71.9707008  87.1151705  28.7595450
  72.5408365  87.5438974  28.1212935  72.5615120  86.8334290  29.4579636
  74.0151813  83.6903376  22.6305252  74.7175857  84.1424420  23.0979179
  73.6832442  83.0487195  23.2585145  72.4632175  82.2815133  37.0056462
  71.8330835  82.9631414  37.2391858  72.3568263  82.1698214  36.0609600
  67.7577147  81.9486929  27.9322386  66.9676201  82.2044457  27.4562496
  68.2488395  82.7635267  28.0374426  81.7740957  89.2892168  30.6827667
  82.5958400  88.8872355  30.4010348  81.7703360  89.1860402  31.6343782
  69.7091893  82.3131508  24.8905862  68.9123056  82.4250202  25.4089358
  69.4817485  82.6518160  24.0246753  75.5397560  88.8376211  32.8388377
  75.6041993  89.2996619  33.6746549  74.8308484  88.2073576  32.9670687
  66.0414850  82.2017419  30.3637377  66.2922889  83.0864429  30.6294952
  66.5774399  82.0222021  29.5912468  89.8646950  85.6330917  27.0312638
  89.1110658  85.0638315  26.8756642  89.9994491  85.5993581  27.9783273
  75.2545578  90.5044319  22.7067357  75.1191253  91.3495855  23.1352205
  75.7955390  90.7063596  21.9433291  71.7412917  76.5835899  39.3681713
  71.3479863  76.0302097  40.0429357  72.5579058  76.8946477  39.7588230
  68.7074975  88.0219757  23.2795282  69.2199496  88.8163007  23.4300847
  69.3597688  87.3246047  23.2128884  70.5169860  91.1385513  25.3618036
  70.6936488  92.0603478  25.1739020  71.3126693  90.8243932  25.7912415
  74.6580878  77.9993778  36.9601969  75.3990592  78.6000931  36.8806432
  74.8898801  77.2571416  36.4020012  69.8022216  83.1850145  35.2380199
  69.6875732  82.2835402  35.5387298  68.9466734  83.4313842  34.8865015
  76.8814054  91.1267885  36.8367699  76.4377908  90.3404264  36.5188604
  77.5431268  91.3147036  36.1711590  71.6401175  92.6563687  31.3628378
  72.1908600  92.5280750  30.5905372  70.8012651  92.9558576  31.0123271
  78.9795292  91.4070685  34.8649101  78.9613768  92.2279566  34.3729370
  79.9015212  91.2824761  35.0899242  75.4368346  88.9214815  35.7072609
  75.9696683  88.1603103  35.4771917  74.9082428  88.6288467  36.4496764
  78.6038041  74.0274881  31.2366251  78.2602311  74.9176522  31.1605361
  78.9717004  73.8376538  30.3735836  66.6723892  86.3508411  24.0554853
  67.5099114  86.7605420  23.8388561  66.8502160  85.4107853  24.0255047
  78.5688324  84.0183492  19.7438686  78.0534948  84.7888096  19.9827073
  78.2965633  83.3448628  20.3671747  76.1535435  78.8633193  24.8023924
  75.2977031  78.4740043  24.6229563  76.5662387  78.9425153  23.9423710
  77.6834582  76.3979536  29.2015484  77.1799377  76.3609671  28.3883289
  77.9765189  77.3072279  29.2612141  73.9277468  76.4818266  28.2081666
  74.7930464  76.2861074  27.8487555  73.9954977  76.2528617  29.1351023
  83.5422598  86.7715846  21.6791859  82.7652041  86.4327006  21.2347022
  84.2214079  86.7768470  21.0046824  78.3574627  81.8910584  21.5698467
  78.0524763  82.2056733  22.4208610  79.3105069  81.9692004  21.6125800
  76.8021059  88.0500807  23.2191421  76.2742421  87.3153567  22.9064659
  76.3008562  88.8275484  22.9731389  81.7813905  86.2449828  28.3358467
  81.1237580  86.9349089  28.4238596  82.5854304  86.6346260  28.6792454
  71.5339787  78.7120474  25.5798033  72.1083539  78.4895655  24.8471226
  72.1210769  78.7809168  26.3326634  80.5919364  84.5994200  26.3862409
  81.1051246  85.2324192  26.8884119  81.2420588  83.9995396  26.0205769
  71.8609374  80.7424935  19.5993918  71.0246686  81.0799621  19.9203193
  71.7214143  80.6073914  18.6621055  73.8362454  75.5861722  24.3073102
  73.1826867  75.2710740  23.6829717  73.7942929  74.9637463  25.0332925
  74.9473659  85.8681018  16.2226394  74.0400721  85.6370271  16.4217543
  75.4444691  85.0718637  16.4100376  77.0700195  82.0743656  28.6320750
  76.1522756  82.2958603  28.4742438  77.4860338  82.1489966  27.7732457
  77.8535243  83.4735072  23.7623430  78.6007061  83.9856469  23.4530552
  78.1226832  83.1519124  24.6227824  76.1261893  85.9693612  20.7450384
  75.2173112  85.6852645  20.8422854  76.1556977  86.3892691  19.8853691
  81.3581160  89.5800202  24.5141552  80.9043487  88.7391112  24.5706742
  80.7275127  90.2161600  24.8516332  80.3014080  80.5092188  25.7442219
  79.5636837  79.9969574  26.0752462  80.5540853  80.0692570  24.9325496
  79.8014099  91.4176699  25.4491370  80.0937074  91.9781756  24.7303736
  80.3112720  91.7105260  26.2044529  80.4025707  73.2868440  26.3383989
  80.7084584  72.4265803  26.0509904  81.1278312  73.8786060  26.1382982
  66.6950063  83.6899127  24.7265586  66.4974463  83.0968487  24.0016653
  66.1396727  83.3851337  25.4441525  74.6746787  83.5822233  26.8460180
  74.7295397  82.6296069  26.7702656  73.8637989  83.7381672  27.3301478
  75.8237981  87.5102356  18.0838463  75.3857410  86.7938215  17.6244100
  76.5648421  87.7378471  17.5223554  72.6139147  82.1999293  24.6050558
  71.8007012  82.4993463  25.0115751  73.1098141  81.8054981  25.3225041
  74.7647725  92.1957050  26.5384823  74.7223903  92.4217896  25.6093355
  75.6810423  91.9620424  26.6870624  78.2113358  82.6641117  33.4365452
  78.5662746  82.8912590  34.2959918  78.8585490  82.9959494  32.8142708
  83.9411095  85.7859553  24.1414781  83.8028994  85.9761149  23.2135971
  83.5847314  86.5478936  24.5982833  72.1053221  79.7717648  30.2211793
  72.7452601  79.6306407  29.5234757  71.2730752  79.4852162  29.8450395
  83.9680475  87.8536080  29.1526053  84.4016982  87.7611369  30.0009107
  84.6812056  87.8293581  28.5146069  72.8813525  89.0720079  26.3346786
  73.6754124  88.5770399  26.1329361  72.1705218  88.5437942  25.9714491
  77.7008370  91.4538174  30.6859153  77.7545392  92.0229111  31.4536869
  76.8323151  91.6240059  30.3213191  69.1896289  83.2163160  22.4106539
  68.2593877  83.1547616  22.6276501  69.2853761  82.6939113  21.6143180
  69.1081838  79.7417973  24.9984780  69.3688655  80.6563306  24.8893941
  69.9299010  79.2742416  25.1481393  70.5806763  81.1555730  32.1683605
  71.2529817  80.9473093  31.5196254  69.7536550  80.9577816  31.7288837
  84.8296024  87.8959781  31.6858938  85.0231915  88.8005591  31.9318213
  84.7296643  87.4367200  32.5197523  76.4832335  77.7817671  34.1849266
  75.8360250  78.4807621  34.0913742  77.2533351  78.2153815  34.5525514
  79.8911133  88.0466523  37.2599819  79.7396640  87.8177075  36.3429903
  79.8815813  89.0037125  37.2731164  76.6596470  85.6198436  32.2446085
  77.5888530  85.7709596  32.0715053  76.2387500  85.7082457  31.3894732
  75.4584801  89.6449101  30.0144623  75.3195887  89.2767885  30.8870561
  74.6699398  90.1596740  29.8428581  76.0532953  94.7458197  21.3570159
  76.2284709  94.2746240  22.1715782  75.3665741  95.3723963  21.5851420
  77.0090016  89.0230703  27.4033461  76.6739849  88.9831473  28.2991111
  76.5093962  88.3575419  26.9303871  70.9834260  84.4298333  32.9286042
  70.8454058  83.6978572  33.5297581  71.8939184  84.3407233  32.6470230
  73.6116561  84.1418293  32.4169722  74.3216180  83.5011485  32.3756340
  73.5685869  84.3931188  33.3395902  81.6003340  91.0785646  35.3376301
  81.5415886  90.3944866  34.6706884  82.0022858  91.8204636  34.8856927
  72.3245495  81.1283511  34.2365361  71.7882852  80.6774249  34.8886957
  71.7362204  81.2629419  33.4935825  70.6194039  97.8947560  28.1310020
  70.8590637  98.5266084  28.8089038  69.7763235  97.5435600  28.4175379
  71.7347754  80.5872162  16.7991825  70.8577220  80.4660963  16.4354071
  72.2105507  79.7958240  16.5470713  81.6020747  89.0425230  33.5690280
  80.7147526  88.7051152  33.6916679  82.1719298  88.3108261  33.8059046
  63.2549894  85.3749322  26.8933332  63.9420934  85.0611052  26.3054347
  63.0998023  86.2790686  26.6200583  68.0584616  80.2639518  31.3218356
  67.9742805  79.6565188  30.5868765  67.2367323  80.7548537  31.3227852
  75.1321900  93.7026682  30.5351524  75.0592072  94.5081654  31.0470828
  74.6899294  93.9018648  29.7099545  74.9211680  92.9398452  24.0454345
  74.1379202  93.4820133  24.1392570  75.6204425  93.4572432  24.4448586
  78.2308330  78.7493082  26.6888551  78.7277030  77.9963044  26.3689621
  77.4595312  78.7857398  26.1231760  86.0838088  84.4533447  28.3306842
  86.0727964  85.3358163  27.9600775  85.2155467  84.1004998  28.1361379
  77.5920584  93.6013516  32.6909682  78.3048556  94.2360981  32.6185584
  77.1010613  93.6977382  31.8749684  79.3138111  87.5064769  24.2626974
  78.3794390  87.6266231  24.0931678  79.4914779  86.6037236  23.9986984
  74.8143299  80.8910465  26.4160235  74.4441086  80.3381505  27.1041141
  75.3102391  80.2868598  25.8635235  82.7010662  83.3482088  24.7977008
  83.1671114  84.1810080  24.7237311  83.1518163  82.8827070  25.5022267
  72.6432498  91.3507960  33.5115253  73.3441957  91.9844443  33.6644647
  72.1727613  91.6922691  32.7510892  80.7686893  89.6925910  21.7963160
  81.0446737  89.5782504  22.7057034  79.8991392  89.2943394  21.7575333
  80.6727325  75.7162675  28.8367909  79.7590405  75.9466902  29.0050116
  81.1020426  75.8001119  29.6881942  80.4433783  83.9052567  31.3367803
  79.7905234  84.1528475  30.6820256  80.8214163  83.0916705  31.0030281
  77.4040957  93.9412260  25.4395974  77.5863352  93.1233916  25.9023726
  78.2273943  94.1579953  25.0020864  77.7383123  92.8680446  22.7011022
  78.2670889  92.3572900  22.0881184  78.0011342  92.5522976  23.5656555
  76.4921357  84.6472378  37.8233841  75.8161994  84.5466508  38.4936216
  77.3148990  84.4911592  38.2869838  68.2400216  90.8844315  30.4446356
  68.8253652  90.1388003  30.5774260  68.0425054  91.1948272  31.3283020
  71.0938871  93.9195562  25.4608798  70.4249246  94.4041690  24.9772838
  70.9551740  94.1664783  26.3752177  62.8317870  83.4549915  29.1650799
  62.8701970  82.9213506  29.9587917  62.3258163  82.9285121  28.5461776
  75.2344139  95.9539306  32.0591457  75.7862447  96.1170927  32.8240542
  75.5750333  96.5443744  31.3871481  70.2108633  78.3014456  32.6613341
  70.2749959  79.1629286  32.2490739  70.1475753  77.6888457  31.9285700
  69.6860905  80.3737588  36.3086376  70.3132944  79.9914665  36.9223900
  68.8288824  80.1551790  36.6742068  80.0855014  90.7800563  37.9140111
  80.6294918  91.3930522  37.4195066  79.5041859  91.3380142  38.4307124
  66.4626448  82.1814017  22.2404730  66.7579889  81.2724696  22.1871784
  65.5614484  82.1601757  21.9185733  78.3712527  93.9021281  29.0455139
  78.2463666  93.1011021  28.5366084  79.0291618  94.3967475  28.5569109
  69.9920695  80.2570014  28.2232279  69.2707281  80.8705982  28.0839752
  70.7813951  80.7927779  28.1448925  80.4347435  91.7030301  30.6734689
  79.4877771  91.5835653  30.6013016  80.7830208  90.8152799  30.7560950
  72.7947008  77.5924440  34.4972931  73.3181410  77.8386737  35.2599240
  72.5759342  78.4244475  34.0776068  68.1914289  79.8628115  22.3644055
  67.8626996  78.9825494  22.1819161  68.5453660  79.8075784  23.2520445
  77.4393868  91.4983018  26.8739041  77.2918831  90.5699725  27.0546611
  78.2647362  91.5203108  26.3896116  71.3056113  80.1501085  22.7319533
  71.6452185  80.6787006  22.0098142  71.7528233  80.4881491  23.5078100
  81.0427990  92.3211576  27.9603914  81.9674538  92.1154438  27.8228365
  80.8743294  92.0727978  28.8693255  73.9999553  78.5338135  32.1822601
  73.6596374  77.7345948  32.5843281  73.2938560  78.8339846  31.6099434
  74.6516025  75.6187448  30.6349924  75.4742095  75.1447926  30.5128815
  74.8954089  76.3977932  31.1348611  73.2924260  78.6475706  20.9312826
  74.0132622  79.0256959  20.4276543  72.6689564  79.3664583  21.0347804
  77.4355383  79.3520855  21.8671158  77.6518997  80.2345493  21.5659986
  76.9549450  78.9607069  21.1376800  72.1754604  82.3106568  28.4441903
  72.0299185  82.6246872  29.3366184  71.6979808  82.9291469  27.8912801
  74.0350987  79.3009116  28.4922792  74.0212556  78.4050210  28.1555090
  74.7523415  79.3079780  29.1261078  75.8877118  79.7346457  30.5375920
  75.6294895  80.6563527  30.5360250  75.3562158  79.3376891  31.2276384
  80.8323306  92.8397244  23.3166005  81.0060184  92.2743666  22.5639858
  81.3252198  93.6398139  23.1345495  66.6500266  84.8511913  31.3829564
  66.1053734  85.6271721  31.5149838  67.5279616  85.1982717  31.2248685
  73.4387883  78.1823497  23.7610363  73.5603794  77.2540143  23.9601250
  73.1489925  78.1962183  22.8488678  76.3079073  75.8678407  26.8977082
  76.3300770  75.9317740  25.9429062  76.7247132  75.0282916  27.0917589
  86.6862698  85.6033667  24.9356305  87.1293844  84.8540992  24.5375428
  85.8089208  85.5943803  24.5530037  67.4366288  83.9781809  34.2759721
  66.6948024  84.1264445  34.8624351  67.1159032  84.2390075  33.4126470
  83.7189902  89.6063714  21.9450234  84.2441226  89.9450986  21.2199554
  83.6312255  88.6710729  21.7613369  75.3809951  93.5197787  34.0740111
  75.6897077  93.2746934  34.9462810  76.1785433  93.7244426  33.5858981
  75.4030563  95.6735697  26.3045487  74.9635553  95.1812076  26.9978344
  76.1538680  95.1308665  26.0637563  67.8822902  91.8647238  26.3070116
  68.7080922  91.5651010  25.9268759  67.5316954  91.0954860  26.7559904
  72.8504435  91.2173706  28.3767789  72.2284444  90.5544411  28.0770017
  73.5209302  91.2434838  27.6941437  66.0831507  89.7833564  27.2659049
  65.2463415  89.3555739  27.0843050  66.0555152  89.9766008  28.2029840
  72.9228962  79.6955494  37.9700295  72.9717118  80.5717617  37.5878065
  73.4651477  79.1532887  37.3971938  83.4083808  90.2396617  37.2501432
  82.6179352  90.2220756  36.7105932  83.1717163  90.7784911  38.0050469
  83.5281683  87.0889084  34.5634161  83.5779688  86.9239091  35.5049684
  83.4195606  86.2216343  34.1732042  72.4117942  89.7677629  21.8526250
  72.5606062  90.4513094  21.1992922  73.2184385  89.7482719  22.3675705
  80.8185446  83.0720012  35.8793467  81.7195308  82.9326477  35.5877465
  80.8933420  83.2374467  36.8191645  75.1528251  80.4486867  34.7246654
  74.2831560  80.7420433  34.4529242  75.3887731  81.0327312  35.4453917
  85.0299880  89.5086025  34.8076182  84.7384688  89.8716006  35.6439643
  84.4172011  88.7953034  34.6289514  86.2295562  87.0738905  27.3278753
  87.0642454  87.5128709  27.4916313  86.3654691  86.5977558  26.5086998
  83.2787068  84.6318640  33.2756240  83.7541190  84.8246286  32.4675092
  82.3552634  84.6877826  33.0299624  70.1670575  85.7942807  22.8587319
  69.9216617  84.8905137  23.0567529  70.3366489  85.7959958  21.9166797
  77.8567285  76.6666483  32.2412074  78.3749229  77.4027510  31.9158563
  77.5022417  76.9730477  33.0758833  69.4366222  81.5271165  20.3573480
  68.7435467  81.6015520  19.7013516  69.1917974  80.7631508  20.8794997
  78.1079879  73.0866766  27.7612971  78.3881633  72.4189955  28.3873397
  78.8930486  73.2795862  27.2487635  81.9788737  81.5084400  31.5084546
  82.9306160  81.6082498  31.5296770  81.8092188  80.7162669  32.0182630
  80.0003117  78.5939983  31.6943947  79.4053049  78.8744996  30.9990435
  79.7152813  79.0833884  32.4660688  84.4576815  84.7290520  30.6226846
  84.4253135  83.7906520  30.8086529  85.0677439  84.8074556  29.8892670
  76.2960146  83.5986573  16.6654050  77.2419251  83.4692781  16.7342468
  75.9174391  82.8601235  17.1423478  84.6071303  81.5201563  30.6685129
  84.0910352  80.7360020  30.4815058  85.4911252  81.1920280  30.8331648
  82.2682030  75.2642579  26.6280941  82.0706852  74.9557667  27.5124273
  82.8781736  75.9904218  26.7578871  90.2753365  85.7906527  29.7632882
  91.0056753  85.5291815  30.3240586  89.6660310  85.0535248  29.8034950
  88.3568662  83.9314389  30.3607334  87.6301826  83.7970354  29.7523825
  87.9415949  84.2391218  31.1664052  76.1798838  87.6504319  38.1254707
  77.1001848  87.8282918  38.3194753  76.1448421  86.7060364  37.9734406
  74.4803063  81.5236549  16.6008935  73.5734518  81.2269662  16.6771648
  74.7579044  81.2266367  15.7343221  65.3981003  82.8442912  27.0507981
  65.0783788  81.9908221  26.7582355  64.8514432  83.0591491  27.8065949
  69.1760911  85.5605353  30.7677488  69.3946921  86.4922461  30.7865522
  69.5886685  85.2013328  31.5532292  76.0965129  76.0673439  22.7553176
  75.2865857  75.7220524  23.1308422  76.7849546  75.7580982  23.3440788
  78.0255677  75.1451486  24.3777473  78.5786716  75.5646939  25.0367496
  78.2625763  74.2187234  24.4200429  74.0488776  81.1338559  40.1580237
  73.9485503  82.0832916  40.0892328  73.8310318  80.8056798  39.2856307
  73.2501848  78.3823484  16.7420914  74.1121012  78.7078383  17.0016731
  73.4352192  77.5954980  16.2293980  65.2669263  86.4645824  29.0201103
  64.5732735  86.0499777  28.5071057  66.0142254  86.5066360  28.4234522
  81.4034484  77.2552011  23.8856137  80.8233153  77.9136815  23.5034189
  81.1370417  76.4329355  23.4743555  79.8538050  76.6557068  26.0877457
  80.3537829  76.7673603  25.2791776  80.4973658  76.3518121  26.7278266
  73.9120046  84.5635698  38.9745298  73.4287128  85.3636058  39.1809187
  73.9980985  84.5743643  38.0212742  67.1806006  86.3964078  26.8967118
  67.1576694  86.4951765  25.9449001  67.4906642  87.2429229  27.2184284
  69.8393384  88.4540233  31.0113732  70.7936637  88.4224175  30.9443664
  69.6405907  87.9930856  31.8263958  70.4292766  87.0241349  33.5784530
  71.2485655  87.5185427  33.6019367  70.7029574  86.1073317  33.5502097
  80.1859362  79.4152101  22.9412485  79.2985217  79.7001752  22.7232680
  80.6013351  79.2545864  22.0939762  83.5373898  79.4398622  26.6566825
  84.3134288  79.9295075  26.9291441  82.8122032  79.8656676  27.1138694
  85.9746457  80.1526241  27.7140765  86.5690948  79.9121977  27.0034073
  86.0473041  79.4333372  28.3414301  68.1943613  93.9959852  28.0283930
  68.0598081  93.2360253  27.4621928  67.7775675  94.7200752  27.5612719
  80.1600386  84.9306637  23.1562775  80.1035587  85.3875188  22.3170408
  80.7128728  84.1697322  22.9785618  83.9705192  80.7196369  23.9812895
  83.7142126  80.3193005  24.8121103  83.3458060  81.4340163  23.8563034
  88.2817530  83.4592442  26.4884186  87.7217088  83.5285631  27.2615748
  87.6761033  83.2833427  25.7683683  71.3512738  94.8929169  28.2402373
  71.2345123  95.8374602  28.1381063  70.5305185  94.5902731  28.6288172
  80.8935165  86.1211418  20.4515305  80.8383969  85.9555690  19.5103749
  80.2681220  86.8287451  20.6077494  65.6827680  81.3579483  34.2776727
  66.3286544  80.8478437  34.7663952  65.4744831  82.0948164  34.8520152
  78.2081072  88.4260330  39.7768867  79.0772232  88.6000982  39.4155502
  77.7287824  89.2454747  39.6544597  74.2031291  75.6219527  20.0300623
  74.1909960  76.5661367  20.1868894  75.0954712  75.4389673  19.7360084
  72.3767253  95.5457431  31.4558301  73.2794499  95.5781041  31.7724796
  72.1504623  94.6157882  31.4704637  74.1320855  94.2988418  28.1168380
  73.1816486  94.2990279  28.0032752  74.4353341  93.5521152  27.6004414
  78.0183410  72.2162304  24.2846560  77.2515806  71.6620791  24.4303242
  78.4294115  72.2884173  25.1460711  70.0225171  78.5047100  38.3751741
  70.8856633  78.1483905  38.5855066  69.4490582  78.1660995  39.0627145
  86.6763254 100.0876384  29.1175667  86.3381766  99.9717449  28.2296202
  87.5453023  99.6867549  29.0976673  87.1583037 101.2411236  35.0761872
  87.1471678 100.8464034  34.2042376  87.3203677 100.5077309  35.6695644
  80.0814502 103.4363052  27.9456778  80.8735794 103.0953877  27.5303077
  80.3211152 103.5458027  28.8658931  83.8790298 104.0248348  34.0241056
  83.5880164 104.9293979  33.9087723  84.5147283 104.0664875  34.7385126
  84.8046505 101.4025196  30.6142416  85.4010078 101.1781219  29.8999379
  84.8621477 100.6609942  31.2167864  92.3448664  91.5097217  31.6194937
  92.0131989  92.3792628  31.3956152  91.7494277  91.1933501  32.2988968
  82.2892665 100.1623560  27.0527554  81.3643162 100.0299774  27.2605246
  82.5377078 100.9417779  27.5497497  92.2377327  96.2292303  28.6988287
  91.3294205  96.1607712  28.4047048  92.1864923  96.7064248  29.5270113
  79.6501476  99.8056834  27.8871343  79.7793857 100.0591313  28.8010755
  78.9698927 100.3984542  27.5675999  86.3118193  97.6481949  36.6423185
  85.5351527  98.2075869  36.6326049  86.9508756  98.1338732  37.1638055
  94.1038974  94.4308742  30.4766161  93.4613354  94.7241275  29.8305956
  93.5993902  94.3161662  31.2819358  84.5664565 100.4567402  36.2041152
  85.3079250 100.9952446  35.9275975  83.8601551 101.0833691  36.3612703
  90.0419905 102.5996543  34.8013313  90.4503261 102.1578953  34.0567945
  89.3197167 102.0249170  35.0547506  86.3950975  97.5369150  32.1746870
  87.2412170  97.9608563  32.3181519  86.3349613  96.8802774  32.8685433
  89.5450420  95.1973518  33.8328044  89.3011352  95.9515578  33.2962319
  89.8210351  95.5758866  34.6675291  91.4988883 101.7412130  32.5105309
  91.7105778 102.3843890  31.8339690  91.4518631 100.9074447  32.0427239
  89.1015112  94.3529951  29.4141881  88.2399591  94.6511205  29.7058619
  89.1277547  94.5700350  28.4822914  83.3025929  97.6107051  37.0056462
  82.6724590  98.2923331  37.2391858  83.1962017  97.4990132  36.0609600
  78.5970902  97.2778847  27.9322386  77.8069956  97.5336375  27.4562496
  79.0882149  98.0927184  28.0374426  86.3791315 104.1668129  32.8388377
  86.4435747 104.6288536  33.6746549  85.6702239 103.5365494  32.9670687
  76.8808605  97.5309337  30.3637377  77.1316643  98.4156347  30.6294952
  77.4168153  97.3513939  29.5912468  82.5806672  91.9127816  39.3681713
  82.1873617  91.3594015  40.0429357  83.3972812  92.2238395  39.7588230
  85.4974633  93.3285695  36.9601969  86.2384346  93.9292849  36.8806432
  85.7292556  92.5863333  36.4020012  80.6415971  98.5142063  35.2380199
  80.5269486  97.6127320  35.5387298  79.7860489  98.7605759  34.8865015
  86.2762101 104.2506732  35.7072609  86.8090438 103.4895021  35.4771917
  85.7476182 103.9580384  36.4496764  89.4431796  89.3566798  31.2366251
  89.0996065  90.2468440  31.1605361  89.8110758  89.1668456  30.3735836
  88.5228336  91.7271454  29.2015484  88.0193132  91.6901589  28.3883289
  88.8158943  92.6364196  29.2612141  84.7671222  91.8110183  28.2081666
  85.6324219  91.6152992  27.8487555  84.8348731  91.5820535  29.1351023
  82.3733541  94.0412391  25.5798033  82.9477293  93.8187573  24.8471226
  82.9604524  94.1101086  26.3326634  84.6756209  90.9153640  24.3073102
  84.0220621  90.6002657  23.6829717  84.6336683  90.2929381  25.0332925
  87.9093949  97.4035574  28.6320750  86.9916511  97.6250521  28.4742438
  88.3254093  97.4781884  27.7732457  91.2419462  88.6160358  26.3383989
  91.5478338  87.7557721  26.0509904  91.9672066  89.2077978  26.1382982
  77.5343818  99.0191044  24.7265586  77.3368217  98.4260405  24.0016653
  76.9790482  98.7143254  25.4441525  85.5140541  98.9114151  26.8460180
  85.5689151  97.9587987  26.7702656  84.7031743  99.0673590  27.3301478
  89.0507113  97.9933035  33.4365452  89.4056501  98.2204508  34.2959918
  89.6979244  98.3251412  32.8142708  82.9446976  95.1009566  30.2211793
  83.5846355  94.9598325  29.5234757  82.1124506  94.8144079  29.8450395
  79.9475592  95.0709891  24.9984780  80.2082410  95.9855224  24.8893941
  80.7692765  94.6034333  25.1481393  81.4200518  96.4847648  32.1683605
  82.0923571  96.2765010  31.5196254  80.5930304  96.2869734  31.7288837
  87.3226090  93.1109589  34.1849266  86.6754005  93.8099539  34.0913742
  88.0927105  93.5445733  34.5525514  90.7304888 103.3758441  37.2599819
  90.5790394 103.1468993  36.3429903  90.7209567 104.3329043  37.2731164
  87.4990224 100.9490354  32.2446085  88.4282284 101.1001514  32.0715053
  87.0781254 101.0374375  31.3894732  81.8228015  99.7590251  32.9286042
  81.6847813  99.0270490  33.5297581  82.7332938  99.6699151  32.6470230
  84.4510316  99.4710210  32.4169722  85.1609934  98.8303403  32.3756340
  84.4079624  99.7223105  33.3395902  83.1639250  96.4575428  34.2365361
  82.6276607  96.0066167  34.8886957  82.5755958  96.5921337  33.4935825
  74.0943649 100.7041239  26.8933332  74.7814689 100.3902969  26.3054347
  73.9391777 101.6082604  26.6200583  78.8978371  95.5931436  31.3218356
  78.8136560  94.9857106  30.5868765  78.0761077  96.0840454  31.3227852
  89.0702085  94.0784999  26.6888551  89.5670784  93.3254962  26.3689621
  88.2989066  94.1149316  26.1231760  85.6537053  96.2202382  26.4160235
  85.2834841  95.6673423  27.1041141  86.1496146  95.6160516  25.8635235
  83.4826252 106.6799878  33.5115253  84.1835712 107.3136360  33.6644647
  83.0121367 107.0214609  32.7510892  91.5121079  91.0454593  28.8367909
  90.5984159  91.2758820  29.0050116  91.9414181  91.1293037  29.6881942
  91.2827538  99.2344485  31.3367803  90.6298988  99.4820392  30.6820256
  91.6607918  98.4208623  31.0030281  87.3315111  99.9764296  37.8233841
  86.6555748  99.8758425  38.4936216  88.1542745  99.8203510  38.2869838
  79.0793970 106.2136233  30.4446356  79.6647407 105.4679920  30.5774260
  78.8818809 106.5240189  31.3283020  73.6711625  98.7841833  29.1650799
  73.7095724  98.2505423  29.9587917  73.1651918  98.2577038  28.5461776
  81.0502387  93.6306373  32.6613341  81.1143714  94.4921204  32.2490739
  80.9869507  93.0180375  31.9285700  80.5254660  95.7029506  36.3086376
  81.1526698  95.3206583  36.9223900  79.6682578  95.4843708  36.6742068
  80.8314449  95.5861931  28.2232279  80.1101035  96.1997899  28.0839752
  81.6207705  96.1219696  28.1448925  83.6340763  92.9216358  34.4972931
  84.1575165  93.1678655  35.2599240  83.4153096  93.7536393  34.0776068
  79.0308044  95.1920033  22.3644055  78.7020750  94.3117411  22.1819161
  79.3847415  95.1367701  23.2520445  84.8393308  93.8630053  32.1822601
  84.4990128  93.0637866  32.5843281  84.1332314  94.1631764  31.6099434
  85.4909780  90.9479366  30.6349924  86.3135849  90.4739844  30.5128815
  85.7347843  91.7269849  31.1348611  83.0148359  97.6398486  28.4441903
  82.8692939  97.9538789  29.3366184  82.5373562  98.2583386  27.8912801
  84.8744741  94.6301034  28.4922792  84.8606310  93.7342127  28.1555090
  85.5917170  94.6371698  29.1261078  86.7270872  95.0638374  30.5375920
  86.4688650  95.9855445  30.5360250  86.1955913  94.6668809  31.2276384
  77.4894021 100.1803831  31.3829564  76.9447489 100.9563639  31.5149838
  78.3673371 100.5274635  31.2248685  87.1472828  91.1970325  26.8977082
  87.1694525  91.2609658  25.9429062  87.5640887  90.3574834  27.0917589
  78.2760043  99.3073727  34.2759721  77.5341779  99.4556362  34.8624351
  77.9552787  99.5681992  33.4126470  76.9225261 105.1125482  27.2659049
  76.0857170 104.6847656  27.0843050  76.8948907 105.3057925  28.2029840
  83.7622717  95.0247412  37.9700295  83.8110872  95.9009535  37.5878065
  84.3045231  94.4824805  37.3971938  91.6579200  98.4011929  35.8793467
  92.5589063  98.2618394  35.5877465  91.7327175  98.5666384  36.8191645
  85.9922005  95.7778784  34.7246654  85.1225315  96.0712350  34.4529242
  86.2281486  96.3619229  35.4453917  94.1180823  99.9610558  33.2756240
  94.5934944 100.1538204  32.4675092  93.1946388 100.0169743  33.0299624
  88.6961039  91.9958401  32.2412074  89.2142983  92.7319428  31.9158563
  88.3416172  92.3022394  33.0758833  88.9473633  88.4158684  27.7612971
  89.2275387  87.7481873  28.3873397  89.7324240  88.6087779  27.2487635
  92.8182492  96.8376318  31.5084546  93.7699915  96.9374415  31.5296770
  92.6485942  96.0454586  32.0182630  90.8396871  93.9231901  31.6943947
  90.2446803  94.2036914  30.9990435  90.5546568  94.4125802  32.4660688
  95.4465058  96.8493481  30.6685129  94.9304107  96.0651937  30.4815058
  96.3305006  96.5212197  30.8331648  93.1075785  90.5934496  26.6280941
  92.9100606  90.2849585  27.5124273  93.7175490  91.3196135  26.7578871
  87.0192593 102.9796236  38.1254707  87.9395602 103.1574835  38.3194753
  86.9842176 102.0352282  37.9734406  76.2374758  98.1734830  27.0507981
  75.9177542  97.3200138  26.7582355  75.6908186  98.3883408  27.8065949
  80.0154665 100.8897271  30.7677488  80.2340675 101.8214379  30.7865522
  80.4280439 100.5305246  31.5532292  88.8649431  90.4743403  24.3777473
  89.4180470  90.8938857  25.0367496  89.1019518  89.5479151  24.4200429
  84.8882531  96.4630477  40.1580237  84.7879258  97.4124834  40.0892328
  84.6704073  96.1348716  39.2856307  76.1063018 101.7937742  29.0201103
  75.4126489 101.3791694  28.5071057  76.8536009 101.8358278  28.4234522
  90.6931805  91.9848986  26.0877457  91.1931583  92.0965521  25.2791776
  91.3367413  91.6810039  26.7278266  84.7513801  99.8927616  38.9745298
  84.2680882 100.6927976  39.1809187  84.8374740  99.9035561  38.0212742
  78.0199760 101.7255995  26.8967118  77.9970449 101.8243683  25.9449001
  78.3300397 102.5721146  27.2184284  80.6787138 103.7832150  31.0113732
  81.6330392 103.7516093  30.9443664  80.4799662 103.3222774  31.8263958
  81.2686520 102.3533266  33.5784530  82.0879409 102.8477345  33.6019367
  81.5423328 101.4365235  33.5502097  76.5221435  96.6871400  34.2776727
  77.1680298  96.1770354  34.7663952  76.3138586  97.4240082  34.8520152
  89.0474827 103.7552248  39.7768867  89.9165986 103.9292900  39.4155502
  88.5681578 104.5746665  39.6544597  88.8577165  87.5454222  24.2846560
  88.0909560  86.9912708  24.4303242  89.2687870  87.6176090  25.1460711
  80.8618926  93.8339017  38.3751741  81.7250387  93.4775822  38.5855066
  80.2884336  93.4952912  39.0627145  36.7279997   6.4695015  24.6385418
  37.2719901   7.0824973  24.1440372  36.1466842   7.0274594  25.1552431
  40.0508791   5.9291069  23.9746739  39.2604335   5.9115208  23.4351238
  39.8142146   6.4679363  24.7295775  34.8506056   4.1154782  26.5014174
  35.7197215   4.2895434  26.1400809  34.3712807   4.9349199  26.3789903
  46.5098531  15.8243408  15.9059449  47.1476941  15.7050155  15.2022789
  46.3919374  16.7724252  15.9647401  43.8008021  16.9305688  21.8007179
  43.7896661  16.5358486  20.9287683  43.9628660  16.1971760  22.3940950
  40.5215282  19.7142800  20.7486363  40.2305148  20.6188430  20.6333029
  41.1572266  19.7559327  21.4630432  41.4471489  17.0919648  17.3387723
  42.0435061  16.8675671  16.6244685  41.5046460  16.3504394  17.9413170
  51.4648227  13.4870095  13.8845635  52.1973399  12.9169312  14.1183465
  50.7087583  13.0991695  14.3252141  48.9873647   7.1991669  18.3440244
  48.6556972   8.0687080  18.1201459  48.3919261   6.8827953  19.0234274
  45.4805167  19.4004215  17.7436157  45.1805890  20.3029254  17.6351964
  45.1356226  19.1336398  18.5957309  40.4625947  26.1648535  10.7107124
  40.3849976  27.1156361  10.7895605  39.8587590  25.8194408  11.3682051
  42.9543176  13.3376401  23.3668491  42.1776511  13.8970321  23.3571356
  43.5933740  13.8233184  23.8883361  50.7463957  10.1203194  17.2011468
  50.1038337  10.4135727  16.5551262  50.2418886  10.0056114  18.0064664
  41.2089549  16.1461854  22.9286458  41.9504233  16.6846898  22.6521282
  40.5026534  16.7728143  23.0858010  46.6844888  18.2890995  21.5258620
  47.0928244  17.8473405  20.7813252  45.9622150  17.7143622  21.7792813
  43.0375958  13.2263601  18.8992177  43.8837154  13.6503015  19.0426826
  42.9774596  12.5697226  19.5930740  47.0073703  18.8492185  15.2810909
  46.3782565  19.0137899  14.5786976  46.6199365  19.2633795  16.0521873
  50.8862935  19.7846623  12.6355272  50.2013973  20.1645525  12.0852306
  50.9706784  20.3941950  13.3687220  46.1875404  10.8867970  20.5573350
  45.9436336  11.6410030  20.0207626  46.4635334  11.2653317  21.3920597
  48.1413867  17.4306582  19.2350616  48.3530762  18.0738342  18.5584997
  48.0943615  16.5968899  18.7672546  39.4525746  18.1338075  15.4840757
  40.0227103  18.5625343  14.8458241  40.0433858  17.8520660  16.1824943
  39.9450912  13.3001502  23.7301768  39.3149573  13.9817783  23.9637165
  39.8387000  13.1884584  22.7854906  49.2559694  20.3078538  17.4072973
  50.0777138  19.9058725  17.1255655  49.2522097  20.2046772  18.3589089
  43.0216298  19.8562581  19.5633684  43.0860730  20.3182988  20.3991856
  42.3127222  19.2259946  19.6915994  57.3465688  16.6517286  13.7557945
  56.5929396  16.0824684  13.6001949  57.4813229  16.6179951  14.7028579
  39.2231655   7.6022268  26.0927019  38.8298601   7.0488467  26.7674663
  40.0397796   7.9132847  26.4833537  42.1399616   9.0180147  23.6847276
  42.8809330   9.6187300  23.6051738  42.3717539   8.2757785  23.1265318
  37.2840954  14.2036515  21.9625505  37.1694469  13.3021772  22.2632604
  36.4285472  14.4500211  21.6110322  44.3632792  22.1454255  23.5613006
  43.9196646  21.3590633  23.2433911  45.0250006  22.3333405  22.8956897
  39.1219913  23.6750057  18.0873685  39.6727338  23.5467120  17.3150679
  38.2831389  23.9744946  17.7368577  46.4614030  22.4257055  21.5894407
  46.4432505  23.2465936  21.0974677  47.3833950  22.3011130  21.8144549
  42.9187084  19.9401184  22.4317916  43.4515421  19.1789473  22.2017224
  42.3901165  19.6474836  23.1742070  49.2632643  17.2636197  15.0603774
  48.6056317  17.9535459  15.1483903  50.0673042  17.6532629  15.4037760
  48.8399898  20.5986571  11.2386858  48.3862225  19.7577481  11.2952049
  48.2093865  21.2347970  11.5761639  47.2832837  22.4363068  12.1736677
  47.5755812  22.9968125  11.4549042  47.7931458  22.7291629  12.9289836
  42.2466462  23.2143419  13.2630130  42.2042641  23.4404266  12.3338662
  43.1629161  22.9806794  13.4115931  45.6932096  13.6827487  20.1610759
  46.0481484  13.9098960  21.0205225  46.3404227  14.0145864  19.5388014
  51.4499213  18.8722450  15.8771360  51.8835719  18.7797739  16.7254414
  52.1630793  18.8479950  15.2391376  45.1827108  22.4724544  17.4104460
  45.2364130  23.0415480  18.1782176  44.3141889  22.6426429  17.0458497
  52.3114762  18.9146150  18.4104245  52.5050652  19.8191961  18.6563520
  52.2115380  18.4553569  19.2442830  43.9651073   8.8004041  20.9094572
  43.3178988   9.4993991  20.8159049  44.7352088   9.2340185  21.2770820
  47.3729871  19.0652893  23.9845126  47.2215377  18.8363445  23.0675209
  47.3634550  20.0223494  23.9976471  44.1415207  16.6384806  18.9691392
  45.0707267  16.7895965  18.7960359  43.7206237  16.7268827  18.1140038
  42.9403539  20.6635470  16.7389930  42.8014625  20.2954255  17.6115868
  42.1518135  21.1783110  16.5673887  44.4908754  20.0417073  14.1278767
  44.1558587  20.0017843  15.0236417  43.9912700  19.3761789  13.6549178
  38.4652998  15.4484703  19.6531349  38.3272796  14.7164942  20.2542888
  39.3757922  15.3593603  19.3715536  41.0935299  15.1604662  19.1415028
  41.8034917  14.5197854  19.1001647  41.0504607  15.4117557  20.0641209
  49.0822078  22.0972016  22.0621607  49.0234624  21.4131236  21.3952190
  49.4841596  22.8391006  21.6102233  39.8064233  12.1469880  20.9610668
  39.2701590  11.6960619  21.6132264  39.2180941  12.2815789  20.2181132
  38.1012776  28.9133929  14.8555326  38.3409375  29.5452454  15.5334345
  37.2581973  28.5621969  15.1420686  49.0839485  20.0611600  20.2935587
  48.1966264  19.7237521  20.4161986  49.6538036  19.3294631  20.5304352
  42.6140638  24.7213052  17.2596830  42.5410810  25.5268023  17.7716135
  42.1718031  24.9205018  16.4344852  42.4030418  23.9584822  10.7699652
  41.6197940  24.5006502  10.8637876  43.1023163  24.4758802  11.1693893
  53.5656825  15.4719817  15.0552149  53.5546702  16.3544532  14.6846082
  52.6974205  15.1191368  14.8606686  45.0739322  24.6199886  19.4154989
  45.7867294  25.2547351  19.3430890  44.5829350  24.7163752  18.5994991
  40.1251235  22.3694329  20.2360560  40.8260695  23.0030812  20.3889954
  39.6546350  22.7109061  19.4756199  47.9252521  14.9238937  18.0613110
  47.2723972  15.1714844  17.4065563  48.3032901  14.1103075  17.7275587
  44.8859695  24.9598630  12.1641280  45.0682090  24.1420286  12.6269033
  45.7092681  25.1766322  11.7266170  43.9740094  15.6658748  24.5479147
  43.2980731  15.5652877  25.2181522  44.7967728  15.5097962  25.0115144
  35.7218953  21.9030684  17.1691662  36.3072390  21.1574372  17.3019567
  35.5243792  22.2134641  18.0528326  38.5757609  24.9381932  12.1854105
  37.9067984  25.4228059  11.7018145  38.4370478  25.1851152  13.0997483
  42.7162877  26.9725675  18.7836763  43.2681185  27.1357297  19.5485848
  43.0569071  27.5630113  18.1116788  37.1679643  11.3923958  23.0331682
  37.7951682  11.0101035  23.6469206  36.3107562  11.1738160  23.3987375
  47.5673752  21.7986933  24.6385418  48.1113655  22.4116891  24.1440372
  46.9860596  22.3566511  25.1552431  45.8531264  24.9207651  15.7700445
  45.7282404  24.1197391  15.2611391  46.5110356  25.4153844  15.2814415
  47.9166173  22.7216671  17.3979995  46.9696508  22.6022022  17.3258322
  48.2648946  21.8339169  17.4806257  40.2765746   8.6110810  21.2218237
  40.8000148   8.8573106  21.9844547  40.0578079   9.4430845  20.8021375
  44.9212606  22.5169387  13.5984348  44.7737569  21.5886095  13.7791918
  45.7466100  22.5389478  13.1141423  48.5246728  23.3397946  14.6849220
  49.4493275  23.1340807  14.5473672  48.3562031  23.0914347  15.5938562
  48.3142044  23.8583613  10.0411312  48.4878922  23.2930036   9.2885164
  48.8070935  24.6584508   9.8590802  54.1681435  16.6220036  11.6601612
  54.6112581  15.8727362  11.2620735  53.2907946  16.6130173  11.2775344
  34.9185026  14.9968179  21.0005028  34.1766762  15.1450814  21.5869658
  34.5977770  15.2576444  20.1371777  42.8628688  24.5384157  20.7985418
  43.1715815  24.2933304  21.6708117  43.6604171  24.7430795  20.3104288
  42.8849301  26.6922067  13.0290794  42.4454291  26.1998445  13.7223651
  43.6357418  26.1495034  12.7882869  40.3323173  22.2360076  15.1013096
  39.7103182  21.5730781  14.8015324  41.0028040  22.2621208  14.4186744
  40.4047700  10.7141864  24.6945602  40.4535856  11.5903986  24.3123371
  40.9470214  10.1719257  24.1217245  50.8902546  21.2582987  23.9746739
  50.0998090  21.2407126  23.4351238  50.6535900  21.7971281  24.7295775
  51.0100421  18.1075453  21.2879467  51.0598426  17.9425461  22.2294990
  50.9014344  17.2402712  20.8977348  48.3004183  14.0906381  22.6038774
  49.2014046  13.9512846  22.3122772  48.3752158  14.2560836  23.5436952
  42.6346989  11.4673236  21.4491960  41.7650298  11.7606802  21.1774549
  42.8706469  12.0513681  22.1699224  52.5118618  20.5272395  21.5321489
  52.2203426  20.8902375  22.3684950  51.8990749  19.8139403  21.3534821
  53.7114300  18.0925275  14.0524059  54.5461191  18.5315079  14.2161620
  53.8473429  17.6163928  13.2332305  50.7605806  15.6505009  20.0001547
  51.2359928  15.8432656  19.1920398  49.8371371  15.7064195  19.7544931
  45.3386022   7.6852853  18.9657381  45.8567966   8.4213880  18.6403869
  44.9841155   7.9916846  19.8004140  49.4607475  12.5270770  18.2329853
  50.4124898  12.6268867  18.2542077  49.2910925  11.7349038  18.7427937
  47.4821854   9.6126353  18.4189253  46.8871787   9.8931365  17.7235742
  47.1971551  10.1020254  19.1905995  51.9395553  15.7476889  17.3472152
  51.9071873  14.8092890  17.5331836  52.5496176  15.8260926  16.6137977
  52.0890041  12.5387933  17.3930435  51.5729090  11.7546389  17.2060364
  52.9729990  12.2106649  17.5576955  57.7572103  16.8092896  16.4878189
  58.4875491  16.5478184  17.0485892  57.1479048  16.0721618  16.5280257
  55.8387400  14.9500759  17.0852640  55.1120563  14.8156724  16.4769132
  55.4234687  15.2577587  17.8909358  43.6617576  18.6690688  24.8500013
  44.5820586  18.8469287  25.0440060  43.6267159  17.7246734  24.6979712
  36.6579649  16.5791723  17.4922794  36.8765658  17.5108831  17.5110828
  37.0705423  16.2199697  18.2777598  41.5307514  12.1524929  26.8825543
  41.4304241  13.1019286  26.8137634  41.3129056  11.8243168  26.0101613
  41.3938784  15.5822068  25.6990605  40.9105866  16.3822428  25.9054494
  41.4799723  15.5930012  24.7458049  37.3212122  19.4726602  17.7359039
  38.2755375  19.4410545  17.6688970  37.1224645  19.0117226  18.5509265
  37.9111504  18.0427718  20.3029836  38.7304393  18.5371797  20.3264674
  38.1848311  17.1259686  20.2747404  53.4565195  11.1712611  14.4386072
  54.0509685  10.9308347  13.7279380  53.5291778  10.4519741  15.0659608
  35.6762350  25.0146222  14.7529237  35.5416818  24.2546623  14.1867235
  35.2594413  25.7387122  14.2858025  55.7636267  14.4778812  13.2129493
  55.2035825  14.5472001  13.9861055  55.1579771  14.3019796  12.4928989
  38.8331476  25.9115539  14.9647679  38.7163860  26.8560971  14.8626370
  38.0123923  25.6089100  15.3533478  45.6899810  19.4446700  26.5014174
  46.5590970  19.6187352  26.1400809  45.2106562  20.2641117  26.3789903
  39.8585990  26.5643801  18.1803608  40.7613237  26.5967411  18.4970103
  39.6323360  25.6344252  18.1949943  41.6139592  25.3174787  14.8413686
  40.6635223  25.3176649  14.7278059  41.9172079  24.5707522  14.3249721
  37.5043909   9.5233469  25.0997048  38.3675370   9.1670274  25.3100372
  36.9309320   9.1847364  25.7872452  57.3492286  31.1535326  15.9059449
  57.9870696  31.0342073  15.2022789  57.2313129  32.1016170  15.9647401
  54.1581992  31.1062754  15.8420973  53.8200504  30.9903818  14.9541508
  55.0271760  30.7053919  15.8221980  50.0168808  32.9598230  11.8317864
  49.4533673  32.8688167  11.0634152  49.9021203  32.1398135  12.3120357
  54.6401775  32.2597605  21.8007179  54.6290416  31.8650404  20.9287683
  54.8022415  31.5263678  22.3940950  47.5633240  34.4549422  14.6702085
  48.3554532  34.1140246  14.2548384  47.8029890  34.5644397  15.5904238
  55.5968367  36.6269198   7.1432329  54.9456346  37.2123278   6.7566343
  56.3912729  37.1575393   7.2027367  49.5223994  33.7158335   7.5419464
  50.2954870  33.1687322   7.4032339  49.8749393  34.5802584   7.7533925
  51.3609036  35.0434717  20.7486363  51.0698902  35.9480348  20.6333029
  51.9966021  35.0851245  21.4630432  52.2865243  32.4211566  17.3387723
  52.8828815  32.1967588  16.6244685  52.3440215  31.6796311  17.9413170
  51.8590272  29.8751001   5.1737913  52.1115792  29.3532522   4.4121377
  50.9214831  29.7117147   5.2764597  56.9033554  28.8786779  12.9812657
  57.6896644  28.4606203  12.6303074  57.1672259  29.7832872  13.1494305
  57.0743632  34.3159630   7.6801314  56.4389465  34.3894256   8.3922218
  56.7441038  34.9053229   7.0020393  62.3041981  28.8162013  13.8845635
  63.0367153  28.2461229  14.1183465  61.5481337  28.4283613  14.3252141
  51.5786560  31.7779107   7.3762288  51.4622818  31.1024010   8.0443373
  51.6888820  31.2911481   6.5594442  53.9218101  31.2389254  11.0808978
  53.5576308  30.7119875  11.7921899  54.7785217  30.8487723  10.9075463
  59.8267402  22.5283587  18.3440244  59.4950727  23.3978998  18.1201459
  59.2313015  22.2119871  19.0234274  53.5623588  26.2679154   6.0770326
  53.7297991  27.1359390   6.4440797  53.3720757  26.4306436   5.1531615
  56.3198921  34.7296133  17.7436157  56.0199644  35.6321172  17.6351964
  55.9749981  34.4628316  18.5957309  49.7711403  31.1809930  13.7772861
  48.8461899  31.0486144  13.9850553  50.0195816  31.9604149  14.2742803
  59.7196065  27.2478673  15.4233594  58.8112942  27.1794081  15.1292355
  59.6683661  27.7250618  16.2515419  53.5412809  28.7236811   7.0616993
  53.4212434  29.1693862   7.9002473  52.8465397  29.0722129   6.5030531
  47.1320214  30.8243203  14.6116650  47.2612595  31.0777682  15.5256062
  46.4517665  31.4170911  14.2921305  51.3019701  41.4940453  10.7107124
  51.2243731  42.4448278  10.7895605  50.6981345  41.1486326  11.3682051
  53.7936931  28.6668319  23.3668491  53.0170265  29.2262239  23.3571356
  54.4327494  29.1525102  23.8883361  61.5857712  25.4495111  17.2011468
  60.9432092  25.7427645  16.5551262  61.0812640  25.3348032  18.0064664
  59.2397875  29.1958285   7.8897327  60.1515731  29.4285671   7.7145025
  58.7307522  29.7795329   7.3272406  52.0483303  31.4753772  22.9286458
  52.7897988  32.0138816  22.6521282  51.3420289  32.1020061  23.0858010
  57.5238643  33.6182912  21.5258620  57.9321999  33.1765323  20.7813252
  56.8015904  33.0435540  21.7792813  53.8769713  28.5555519  18.8992177
  54.7230908  28.9794933  19.0426826  53.8168351  27.8989143  19.5930740
  57.8467458  34.1784103  15.2810909  57.2176320  34.3429817  14.5786976
  57.4593120  34.5925713  16.0521873  61.7256689  35.1138541  12.6355272
  61.0407728  35.4937442  12.0852306  61.8100539  35.7233868  13.3687220
  57.0269158  26.2159888  20.5573350  56.7830090  26.9701948  20.0207626
  57.3029089  26.5945235  21.3920597  58.9807621  32.7598500  19.2350616
  59.1924516  33.4030260  18.5584997  58.9337369  31.9260816  18.7672546
  56.5833850  25.3716321  16.1387188  55.7218329  25.6697574  16.4303926
  56.6096285  25.5886719  15.2068221  53.3995419  33.9158511  12.5460994
  53.8633765  34.1946214  11.7565616  53.1352218  33.0141956  12.3634084
  50.2919500  33.4629993  15.4840757  50.8620858  33.8917261  14.8458241
  50.8827612  33.1812577  16.1824943  52.3364305  30.0381663   9.3550559
  53.0388349  30.4902707   9.8224485  52.0044934  29.3965482   9.9830452
  50.7844667  28.6293420  23.7301768  50.1543328  29.3109701  23.9637165
  50.6780755  28.5176502  22.7854906  46.0789639  28.2965216  14.6567692
  45.2888693  28.5522745  14.1807803  46.5700887  29.1113554  14.7619733
  60.0953449  35.6370455  17.4072973  60.9170893  35.2350643  17.1255655
  60.0915852  35.5338689  18.3589089  48.0304385  28.6609795  11.6151169
  47.2335548  28.7728490  12.1334665  47.8029977  28.9996448  10.7492060
  53.8610052  35.1854499  19.5633684  53.9254485  35.6474906  20.3991856
  53.1520976  34.5551864  19.6915994  44.3627342  28.5495707  17.0882683
  44.6135381  29.4342716  17.3540259  44.8986891  28.3700308  16.3157775
  68.1859442  31.9809204  13.7557945  67.4323150  31.4116602  13.6001949
  68.3206983  31.9471868  14.7028579  53.5758070  36.8522606   9.4312664
  53.4403745  37.6974142   9.8597512  54.1167883  37.0541884   8.6678598
  50.0625410  22.9314186  26.0927019  49.6692355  22.3780384  26.7674663
  50.8791550  23.2424764  26.4833537  47.0287467  34.3698044  10.0040589
  47.5411988  35.1641294  10.1546154  47.6810180  33.6724335   9.9374191
  48.8382352  37.4863800  12.0863342  49.0148981  38.4081765  11.8984326
  49.6339186  37.1722220  12.5157722  52.9793371  24.3472065  23.6847276
  53.7203084  24.9479218  23.6051738  53.2111294  23.6049703  23.1265318
  48.1234709  29.5328432  21.9625505  48.0088224  28.6313690  22.2632604
  47.2679226  29.7792129  21.6110322  49.9613668  39.0041974  18.0873685
  50.5121093  38.8759038  17.3150679  49.1225144  39.3036863  17.7368577
  53.7580839  35.2693102  22.4317916  54.2909175  34.5081390  22.2017224
  53.2294920  34.9766754  23.1742070  56.9250534  20.3753168  17.9611557
  56.5814803  21.2654810  17.8850668  57.2929496  20.1854826  17.0981142
  44.9936384  32.6986698  10.7800160  45.8311606  33.1083707  10.5633867
  45.1714652  31.7586141  10.7500354  56.8900816  30.3661779   6.4683993
  56.3747440  31.1366384   6.7072380  56.6178125  29.6926915   7.0917054
  54.4747927  25.2111480  11.5269231  53.6189524  24.8218330  11.3474870
  54.8874879  25.2903441  10.6669016  56.0047074  22.7457823  15.9260791
  55.5011870  22.7087958  15.1128596  56.2977681  23.6550566  15.9857447
  52.2489960  22.8296553  14.9326972  53.1142957  22.6339362  14.5732862
  52.3167469  22.6006905  15.8596329  61.8635091  33.1194134   8.4037166
  61.0864533  32.7805293   7.9592328  62.5426571  33.1246757   7.7292131
  56.6787120  28.2388871   8.2943774  56.3737255  28.5535020   9.1453917
  57.6317562  28.3170291   8.3371107  55.1233551  34.3979094   9.9436728
  54.5954913  33.6631854   9.6309965  54.6221054  35.1753771   9.6976696
  60.1026397  32.5928115  15.0603774  59.4450072  33.2827376  15.1483903
  60.9066797  32.9824547  15.4037760  49.8552279  25.0598761  12.3043339
  50.4296031  24.8373942  11.5716532  50.4423261  25.1287455  13.0571941
  58.9131856  30.9472488  13.1107716  59.4263738  31.5802480  13.6129426
  59.5633080  30.3473683  12.7451076  52.1574947  21.9340010  11.0318409
  51.5039359  21.6189027  10.4075023  52.1155421  21.3115750  11.7578232
  53.2686152  32.2159305   2.9471701  52.3613213  31.9848558   3.1462850
  53.7657184  31.4196924   3.1345682  56.1754230  40.9256812   5.8668387
  55.5015929  41.2288509   6.4753345  56.5620052  41.7285892   5.5173844
  55.3912687  28.4221943  15.3566056  54.4735248  28.6436890  15.1987744
  55.8072831  28.4968254  14.4977764  56.1747735  29.8213359  10.4868737
  56.9219554  30.3334756  10.1775859  56.4439324  29.4997412  11.3473130
  54.4474385  32.3171900   7.4695691  53.5385604  32.0330932   7.5668161
  54.4769469  32.7370978   6.6098998  59.6793652  35.9278489  11.2386858
  59.2255980  35.0869399  11.2952049  59.0487619  36.5639887  11.5761639
  58.6226572  26.8570475  12.4687526  57.8849329  26.3447861  12.7997768
  58.8753346  26.4170857  11.6570803  58.1226592  37.7654986  12.1736677
  58.4149566  38.3260043  11.4549042  58.6325212  38.0583547  12.9289836
  58.7238199  19.6346727  13.0629295  59.0297076  18.7744091  12.7755210
  59.4490804  20.2264347  12.8628289  45.0162555  30.0377414  11.4510893
  44.8186955  29.4446774  10.7261960  44.4609219  29.7329624  12.1686832
  52.9959279  29.9300520  13.5705486  53.0507889  28.9774357  13.4947963
  52.1850481  30.0859959  14.0546785  54.1450473  33.8580643   4.8083769
  53.7069903  33.1416502   4.3489407  54.8860914  34.0856758   4.2468861
  50.9351639  28.5477580  11.3295865  50.1219505  28.8471751  11.7361057
  51.4310633  28.1533269  12.0470347  53.0860217  38.5435337  13.2630130
  53.0436396  38.7696183  12.3338662  54.0022916  38.3098711  13.4115931
  56.5325851  29.0119404  20.1610759  56.8875238  29.2390878  21.0205225
  57.1797982  29.3437781  19.5388014  62.2623588  32.1337840  10.8660088
  62.1241486  32.3239436   9.9381277  61.9059806  32.8957223  11.3228139
  50.4265714  26.1195935  16.9457100  51.0665093  25.9784695  16.2480063
  49.5943244  25.8330449  16.5695702  62.2892967  34.2014367  15.8771360
  62.7229474  34.1089656  16.7254414  63.0024548  34.1771868  15.2391376
  51.2026018  35.4198366  13.0592092  51.9966616  34.9248686  12.8574667
  50.4917710  34.8916229  12.6959798  56.0220862  37.8016461  17.4104460
  56.0757884  38.3707398  18.1782176  55.1535643  37.9718346  17.0458497
  47.5108781  29.5641448   9.1351845  46.5806369  29.5025903   9.3521807
  47.6066253  29.0417400   8.3388486  47.4294330  26.0896260  11.7230087
  47.6901147  27.0041594  11.6139247  48.2511502  25.6220703  11.8726700
  48.9019255  27.5034018  18.8928911  49.5742309  27.2951380  18.2441560
  48.0749042  27.3056104  18.4534144  63.1508517  34.2438068  18.4104245
  63.3444407  35.1483878  18.6563520  63.0509135  33.7845487  19.2442830
  54.8044827  24.1295959  20.9094572  54.1572743  24.8285908  20.8159049
  55.5745843  24.5632102  21.2770820  58.2123625  34.3944811  23.9845126
  58.0609132  34.1655362  23.0675209  58.2028305  35.3515412  23.9976471
  54.9808962  31.9676723  18.9691392  55.9101022  32.1187883  18.7960359
  54.5599992  32.0560744  18.1140038  53.7797294  35.9927388  16.7389930
  53.6408379  35.6246172  17.6115868  52.9911890  36.5075027  16.5673887
  54.3745446  41.0936484   8.0815466  54.5497201  40.6224528   8.8961089
  53.6878234  41.7202251   8.3096727  55.3302509  35.3708991  14.1278767
  54.9952341  35.3309761  15.0236417  54.8306454  34.7053707  13.6549178
  49.3046753  30.7776621  19.6531349  49.1666551  30.0456859  20.2542888
  50.2151676  30.6885521  19.3715536  58.2661700  32.7165025   4.4015827
  57.6490871  31.9911853   4.3048880  57.7978189  33.4774385   4.0582901
  51.9329053  30.4896580  19.1415028  52.6428672  29.8489772  19.1001647
  51.8898362  30.7409475  20.0641209  50.6457987  27.4761798  20.9610668
  50.1095344  27.0252536  21.6132264  50.0574696  27.6107707  20.2181132
  48.9406531  44.2425847  14.8555326  49.1803129  44.8744371  15.5334345
  48.0975727  43.8913887  15.1420686  59.9233239  35.3903517  20.2935587
  59.0360018  35.0529439  20.4161986  60.4931790  34.6586548  20.5304352
  41.5762386  31.7227609  13.6178638  42.2633426  31.4089339  13.0299654
  41.4210515  32.6268974  13.3445890  46.3797109  26.6117806  18.0463662
  46.2955297  26.0043475  17.3114072  45.5579815  27.1026824  18.0473158
  53.4534393  40.0504970  17.2596830  53.3804564  40.8559941  17.7716135
  53.0111786  40.2496935  16.4344852  53.2424172  39.2876740  10.7699652
  52.4591694  39.8298420  10.8637876  53.9416918  39.8050719  11.1693893
  56.5520822  25.0971369  13.4133857  57.0489522  24.3441331  13.0934927
  55.7807804  25.1335686  12.8477067  64.4050580  30.8011735  15.0552149
  64.3940456  31.6836450  14.6846082  63.5367959  30.4483285  14.8606686
  55.9133076  39.9491804  19.4154989  56.6261048  40.5839268  19.3430890
  55.4223105  40.0455670  18.5994991  57.6350603  33.8543056  10.9872281
  56.7006882  33.9744519  10.8176985  57.8127272  32.9515523  10.7232290
  53.1355791  27.2388752  13.1405542  52.7653579  26.6859792  13.8286447
  53.6314884  26.6346886  12.5880542  61.0223155  29.6960376  11.5222315
  61.4883607  30.5288367  11.4482617  61.4730655  29.2305357  12.2267573
  50.9644990  37.6986247  20.2360560  51.6654449  38.3322730  20.3889954
  50.4940105  38.0400979  19.4756199  59.0899386  36.0404197   8.5208467
  59.3659230  35.9260791   9.4302341  58.2203884  35.6421682   8.4820640
  58.9939817  22.0640963  15.5613216  58.0802897  22.2945189  15.7295423
  59.4232919  22.1479407  16.4127248  58.7646276  30.2530855  18.0613110
  58.1117726  30.5006762  17.4065563  59.1426656  29.4394993  17.7275587
  55.7253450  40.2890548  12.1641280  55.9075844  39.4712204  12.6269033
  56.5486436  40.5058240  11.7266170  56.0595615  39.2158733   9.4256329
  56.5883382  38.7051187   8.8126491  56.3223835  38.9001263  10.2901862
  54.8133849  30.9950666  24.5479147  54.1374486  30.8944795  25.2181522
  55.6361483  30.8389879  25.0115144  46.5612708  37.2322602  17.1691662
  47.1466145  36.4866290  17.3019567  46.3637546  37.5426559  18.0528326
  49.4151363  40.2673850  12.1854105  48.7461738  40.7519977  11.7018145
  49.2764233  40.5143070  13.0997483  41.1530363  29.8028202  15.8896106
  41.1914462  29.2691793  16.6833224  40.6470655  29.2763408  15.2707083
  53.5556632  42.3017593  18.7836763  54.1074940  42.4649215  19.5485848
  53.8962825  42.8922031  18.1116788  48.5321125  24.6492743  19.3858648
  48.5962451  25.5107574  18.9736046  48.4688245  24.0366744  18.6531006
  48.0073397  26.7215875  23.0331682  48.6345436  26.3392953  23.6469206
  47.1501316  26.5030077  23.3987375  44.7838940  28.5292304   8.9650037
  45.0792381  27.6202983   8.9117091  43.8826976  28.5080044   8.6431039
  56.6925019  40.2499569  15.7700445  56.5676158  39.4489308  15.2611391
  57.3504110  40.7445762  15.2814415  48.3133187  26.6048301  14.9477586
  47.5919773  27.2184269  14.8085059  49.1026443  27.1406066  14.8694232
  58.7559927  38.0508589  17.3979995  57.8090263  37.9313940  17.3258322
  59.1042700  37.1631087  17.4806257  51.1159501  23.9402728  21.2218237
  51.6393903  24.1865024  21.9844547  50.8971834  24.7722762  20.8021375
  46.5126782  26.2106402   9.0889362  46.1839488  25.3303781   8.9064468
  46.8666152  26.1554071   9.9765751  55.7606361  37.8461305  13.5984348
  55.6131323  36.9178012  13.7791918  56.5859854  37.8681396  13.1141423
  49.6268605  26.4979372   9.4564840  49.9664677  27.0265293   8.7343448
  50.0740725  26.8359778  10.2323406  59.3640482  38.6689864  14.6849220
  60.2887030  38.4632725  14.5473672  59.1955786  38.4206265  15.5938562
  52.3212046  24.8816423  18.9067908  51.9808866  24.0824236  19.3088588
  51.6151052  25.1818134  18.3344741  52.9728518  21.9665735  17.3595231
  53.7954587  21.4926213  17.2374121  53.2166581  22.7456219  17.8593917
  51.6136752  24.9953994   7.6558133  52.3345115  25.3735246   7.1521849
  50.9902056  25.7142870   7.7593111  55.7567875  25.6999143   8.5916465
  55.9731489  26.5823780   8.2905293  55.2761942  25.3085356   7.8622107
  50.4967096  28.6584856  15.1687209  50.3511677  28.9725159  16.0611491
  50.0192300  29.2769756  14.6158108  52.3563479  25.6487404  15.2168099
  52.3425048  24.7528497  14.8800397  53.0735907  25.6558067  15.8506385
  54.2089610  26.0824744  17.2621226  53.9507388  27.0041815  17.2605557
  53.6774650  25.6855178  17.9521691  59.1535799  39.1875531  10.0411312
  59.3272676  38.6221954   9.2885164  59.6464690  39.9876426   9.8590802
  44.9712758  31.1990200  18.1074871  44.4266227  31.9750008  18.2395145
  45.8492108  31.5461005  17.9493992  51.7600375  24.5301784  10.4855669
  51.8816286  23.6018430  10.6846557  51.4702418  24.5440470   9.5733985
  54.6291566  22.2156694  13.6222389  54.6513262  22.2796028  12.6674369
  55.0459625  21.3761203  13.8162895  65.0075190  31.9511954  11.6601612
  65.4506336  31.2019279  11.2620735  64.1301700  31.9422090  11.2775344
  60.1410971  38.5042295   7.1408210  60.8361876  39.1248988   7.3595525
  60.4834121  37.6537647   7.4160588  45.7578780  30.3260096  21.0005028
  45.0160516  30.4742732  21.5869658  45.4371525  30.5868362  20.1371777
  62.0402394  35.9542001   8.6695541  62.5653718  36.2929274   7.9444861
  61.9524747  35.0189016   8.4858676  53.7022443  39.8676075  20.7985418
  54.0109569  39.6225221  21.6708117  54.4997925  40.0722713  20.3104288
  53.7243055  42.0213984  13.0290794  53.2848045  41.5290363  13.7223651
  54.4751172  41.4786952  12.7882869  46.2035394  38.2125525  13.0315422
  47.0293414  37.9129297  12.6514066  45.8529446  37.4433148  13.4805211
  51.1716927  37.5651993  15.1013096  50.5496936  36.9022698  14.8015324
  51.8421794  37.5913125  14.4186744  44.4043999  36.1311852  13.9904356
  43.5675907  35.7034026  13.8088357  44.3767644  36.3244295  14.9275147
  51.2441455  26.0433781  24.6945602  51.2929610  26.9195904  24.3123371
  51.7863969  25.5011174  24.1217245  61.8494175  33.4367371  21.2879467
  61.8992180  33.2717378  22.2294990  61.7408099  32.5694630  20.8977348
  50.7330434  36.1155917   8.5771556  50.8818554  36.7991381   7.9238229
  51.5396878  36.0961007   9.0921012  59.1397938  29.4198299  22.6038774
  60.0407801  29.2804764  22.3122772  59.2145912  29.5852754  23.5436952
  53.4740743  26.7965154  21.4491960  52.6044053  27.0898720  21.1774549
  53.7100223  27.3805599  22.1699224  64.5508055  33.4217192  14.0524059
  65.3854946  33.8606996  14.2161620  64.6867183  32.9455845  13.2332305
  61.5999560  30.9796927  20.0001547  62.0753682  31.1724573  19.1920398
  60.6765126  31.0356113  19.7544931  48.4883067  32.1421094   9.5832625
  48.2429109  31.2383424   9.7812835  48.6578982  32.1438245   8.6412103
  56.1779777  23.0144771  18.9657381  56.6961721  23.7505798  18.6403869
  55.8234910  23.3208764  19.8004140  56.4292371  19.4345053  14.4858277
  56.7094125  18.7668242  15.1118704  57.2142978  19.6274149  13.9732941
  54.2325840  38.6104047   6.0483304  53.6599807  39.2294234   5.5953776
  54.8058633  39.1603409   6.5823226  60.3001229  27.8562687  18.2329853
  61.2518652  27.9560785  18.2542077  60.1304680  27.0640956  18.7427937
  58.3215609  24.9418270  18.4189253  57.7265541  25.2223283  17.7235742
  58.0365306  25.4312171  19.1905995  57.4523099  38.8941197   7.1791886
  58.3853773  38.8286759   7.3824762  57.3646312  39.7297464   6.7206419
  60.0811116  38.2107068   4.1395834  60.0024748  37.8766931   5.0331591
  60.9020783  38.7028836   4.1387306  62.7789307  31.0768807  17.3472152
  62.7465627  30.1384808  17.5331836  63.3889931  31.1552844  16.6137977
  54.6172638  29.9464860   3.3899356  55.5631743  29.8171068   3.4587774
  54.2386883  29.2079522   3.8668784  62.9283796  27.8679850  17.3930435
  62.4122844  27.0838307  17.2060364  63.8123744  27.5398567  17.5576955
  60.5894523  21.6120866  13.3526248  60.3919344  21.3035954  14.2369580
  61.1994228  22.3382505  13.4824178  68.5965857  32.1384814  16.4878189
  69.3269246  31.8770102  17.0485892  67.9872803  31.4013536  16.5280257
  66.6781154  30.2792676  17.0852640  65.9514318  30.1448641  16.4769132
  66.2628441  30.5869505  17.8909358  54.5011331  33.9982606  24.8500013
  55.4214340  34.1761205  25.0440060  54.4660914  33.0538651  24.6979712
  43.7193496  29.1921200  13.7753288  43.3996280  28.3386508  13.4827662
  43.1726924  29.4069778  14.5311255  47.4973403  31.9083641  17.4922794
  47.7159413  32.8400748  17.5110828  47.9099177  31.5491615  18.2777598
  54.4177621  22.4151726   9.4798483  53.6078349  22.0698811   9.8553729
  55.1062038  22.1059270  10.0686094  56.3468169  21.4929773  11.1022779
  56.8999208  21.9125226  11.7612802  56.5838256  20.5665521  11.1445735
  52.3701269  27.4816846  26.8825543  52.2697995  28.4311203  26.8137634
  52.1522811  27.1535085  26.0101613  43.5881756  32.8124111  15.7446409
  42.8945227  32.3978064  15.2316364  44.3354747  32.8544648  15.1479828
  59.7246976  23.6030298  10.6101444  59.1445645  24.2615102  10.2279496
  59.4582909  22.7807643  10.1988861  58.1750543  23.0035356  12.8122764
  58.6750321  23.1151890  12.0037083  58.8186151  22.6996408  13.4523572
  52.2332539  30.9113985  25.6990605  51.7499620  31.7114345  25.9054494
  52.3193478  30.9221930  24.7458049  45.5018498  32.7442365  13.6212424
  45.4789186  32.8430052  12.6694307  45.8119135  33.5907516  13.9429590
  48.1605876  34.8018520  17.7359039  49.1149130  34.7702462  17.6688970
  47.9618400  34.3409144  18.5509265  48.7505258  33.3719636  20.3029836
  49.5698147  33.8663715  20.3264674  49.0242066  32.4551604  20.2747404
  58.5071854  25.7630388   9.6657792  57.6197709  26.0480039   9.4477987
  58.9225843  25.6024152   8.8185069  61.8586391  25.7876909  13.3812131
  62.6346781  26.2773362  13.6536748  61.1334525  26.2134964  13.8384001
  64.2958949  26.5004529  14.4386072  64.8903440  26.2600264  13.7279380
  64.3685533  25.7811659  15.0659608  46.5156105  40.3438139  14.7529237
  46.3810573  39.5838540  14.1867235  46.0988167  41.0679039  14.2858025
  57.6515068  35.5275063   3.7605812  58.3550918  35.7325065   4.3763467
  56.9277717  36.0951825   4.0254895  58.4812878  31.2784924   9.8808082
  58.4248080  31.7353476   9.0415714  59.0341221  30.5175609   9.7030925
  62.2917684  27.0674656  10.7058202  62.0354618  26.6671292  11.5366409
  61.6670552  27.7818450  10.5808341  66.6030022  29.8070729  13.2129493
  66.0429580  29.8763919  13.9861055  65.9973525  29.6311714  12.4928989
  49.6725231  41.2407456  14.9647679  49.5557615  42.1852889  14.8626370
  48.8517677  40.9381018  15.3533478  59.5601765  35.9657592   5.8104272
  60.3947369  35.5338791   5.6281747  59.3986108  35.7939606   6.7381166
  59.2147657  32.4689706   7.1760611  59.1596461  32.3033977   6.2349055
  58.5893713  33.1765738   7.3322801  44.0040172  27.7057770  21.0022033
  44.6499036  27.1956724  21.4909259  43.7957324  28.4426452  21.5765459
  50.6979745  41.8935718  18.1803608  51.6006992  41.9259329  18.4970103
  50.4717115  40.9636169  18.1949943  52.4533347  40.6466705  14.8413686
  51.5028978  40.6468567  14.7278059  52.7565833  39.8999439  14.3249721
  56.3395902  18.5640591  11.0091866  55.5728298  18.0099078  11.1548549
  56.7506607  18.6362460  11.8706018  48.3437663  24.8525387  25.0997048
  49.2069125  24.4962192  25.3100372  47.7703074  24.5139282  25.7872452
  68.1886040  46.4827243  15.9059449  68.8264450  46.3633991  15.2022789
  68.0706883  47.4308087  15.9647401  64.9975747  46.4354671  15.8420973
  64.6594258  46.3195736  14.9541508  65.8665515  46.0345837  15.8221980
  60.8562562  48.2890148  11.8317864  60.2927427  48.1980085  11.0634152
  60.7414957  47.4690052  12.3120357  58.4026994  49.7841339  14.6702085
  59.1948286  49.4432164  14.2548384  58.6423644  49.8936314  15.5904238
  66.4362121  51.9561116   7.1432329  65.7850101  52.5415196   6.7566343
  67.2306484  52.4867310   7.2027367  60.3617748  49.0450253   7.5419464
  61.1348624  48.4979240   7.4032339  60.7143147  49.9094502   7.7533925
  62.2002791  50.3726635  20.7486363  61.9092657  51.2772266  20.6333029
  62.8359775  50.4143163  21.4630432  63.1258998  47.7503483  17.3387723
  63.7222570  47.5259506  16.6244685  63.1833969  47.0088229  17.9413170
  62.6984026  45.2042919   5.1737913  62.9509547  44.6824440   4.4121377
  61.7608585  45.0409064   5.2764597  67.7427309  44.2078697  12.9812657
  68.5290398  43.7898120  12.6303074  68.0066013  45.1124789  13.1494305
  67.9137386  49.6451547   7.6801314  67.2783219  49.7186174   8.3922218
  67.5834793  50.2345146   7.0020393  73.1435736  44.1453930  13.8845635
  73.8760908  43.5753147  14.1183465  72.3875092  43.7575531  14.3252141
  62.4180315  47.1071025   7.3762288  62.3016573  46.4315928   8.0443373
  62.5282575  46.6203399   6.5594442  64.7611856  46.5681172  11.0808978
  64.3970063  46.0411793  11.7921899  65.6178972  46.1779641  10.9075463
  64.4017343  41.5971072   6.0770326  64.5691745  42.4651308   6.4440797
  64.2114512  41.7598353   5.1531615  67.1592676  50.0588050  17.7436157
  66.8593399  50.9613089  17.6351964  66.8143735  49.7920234  18.5957309
  60.6105157  46.5101847  13.7772861  59.6855654  46.3778061  13.9850553
  60.8589571  47.2896067  14.2742803  70.5589820  42.5770591  15.4233594
  69.6506697  42.5085999  15.1292355  70.5077415  43.0542536  16.2515419
  64.3806564  44.0528729   7.0616993  64.2606189  44.4985780   7.9002473
  63.6859152  44.4014047   6.5030531  57.9713968  46.1535121  14.6116650
  58.1006350  46.4069600  15.5256062  57.2911420  46.7462829  14.2921305
  62.1413456  56.8232371  10.7107124  62.0637485  57.7740196  10.7895605
  61.5375099  56.4778243  11.3682051  72.4251466  40.7787029  17.2011468
  71.7825846  41.0719562  16.5551262  71.9206395  40.6639949  18.0064664
  70.0791630  44.5250202   7.8897327  70.9909486  44.7577589   7.7145025
  69.5701277  45.1087246   7.3272406  64.7163467  43.8847437  18.8992177
  65.5624663  44.3086850  19.0426826  64.6562105  43.2281061  19.5930740
  68.6861212  49.5076021  15.2810909  68.0570074  49.6721735  14.5786976
  68.2986874  49.9217630  16.0521873  72.5650444  50.4430459  12.6355272
  71.8801482  50.8229360  12.0852306  72.6494293  51.0525785  13.3687220
  69.8201376  48.0890418  19.2350616  70.0318271  48.7322177  18.5584997
  69.7731124  47.2552734  18.7672546  64.2389174  49.2450429  12.5460994
  64.7027519  49.5238132  11.7565616  63.9745972  48.3433873  12.3634084
  61.1313255  48.7921910  15.4840757  61.7014612  49.2209179  14.8458241
  61.7221367  48.5104495  16.1824943  63.1758060  45.3673581   9.3550559
  63.8782103  45.8194625   9.8224485  62.8438688  44.7257400   9.9830452
  56.9183394  43.6257134  14.6567692  56.1282448  43.8814662  14.1807803
  57.4094641  44.4405472  14.7619733  70.9347203  50.9662373  17.4072973
  71.7564647  50.5642560  17.1255655  70.9309606  50.8630607  18.3589089
  58.8698139  43.9901713  11.6151169  58.0729303  44.1020407  12.1334665
  58.6423731  44.3288365  10.7492060  55.2021097  43.8787624  17.0882683
  55.4529135  44.7634634  17.3540259  55.7380645  43.6992226  16.3157775
  79.0253197  47.3101121  13.7557945  78.2716905  46.7408520  13.6001949
  79.1600738  47.2763786  14.7028579  64.4151825  52.1814524   9.4312664
  64.2797499  53.0266059   9.8597512  64.9561637  52.3833801   8.6678598
  57.8681222  49.6989962  10.0040589  58.3805743  50.4933212  10.1546154
  58.5203935  49.0016252   9.9374191  59.6776107  52.8155718  12.0863342
  59.8542735  53.7373683  11.8984326  60.4732940  52.5014137  12.5157722
  60.8007422  54.3333892  18.0873685  61.3514847  54.2050955  17.3150679
  59.9618898  54.6328781  17.7368577  55.8330139  48.0278616  10.7800160
  56.6705361  48.4375624  10.5633867  56.0108406  47.0878058  10.7500354
  67.7294571  45.6953697   6.4683993  67.2141194  46.4658301   6.7072380
  67.4571879  45.0218833   7.0917054  65.3141682  40.5403398  11.5269231
  64.4583278  40.1510248  11.3474870  65.7268634  40.6195358  10.6669016
  63.0883714  38.1588471  14.9326972  63.9536711  37.9631279  14.5732862
  63.1561223  37.9298822  15.8596329  72.7028845  48.4486051   8.4037166
  71.9258288  48.1097211   7.9592328  73.3820326  48.4538675   7.7292131
  67.5180874  43.5680789   8.2943774  67.2131010  43.8826938   9.1453917
  68.4711316  43.6462209   8.3371107  65.9627306  49.7271012   9.9436728
  65.4348667  48.9923772   9.6309965  65.4614809  50.5045689   9.6976696
  70.9420152  47.9220033  15.0603774  70.2843826  48.6119294  15.1483903
  71.7460551  48.3116465  15.4037760  60.6946033  40.3890678  12.3043339
  61.2689785  40.1665860  11.5716532  61.2817016  40.4579373  13.0571941
  69.7525611  46.2764405  13.1107716  70.2657492  46.9094397  13.6129426
  70.4026835  45.6765601  12.7451076  61.0215621  42.4195139   6.3239225
  60.1852933  42.7569826   6.6448499  60.8820390  42.2844119   5.3866362
  62.9968701  37.2631927  11.0318409  62.3433114  36.9480945  10.4075023
  62.9549175  36.6407668  11.7578232  64.1079906  47.5451222   2.9471701
  63.2006968  47.3140476   3.1462850  64.6050938  46.7488842   3.1345682
  67.0147985  56.2548730   5.8668387  66.3409684  56.5580426   6.4753345
  67.4013807  57.0577810   5.5173844  66.2306442  43.7513861  15.3566056
  65.3129003  43.9728808  15.1987744  66.6466585  43.8260171  14.4977764
  67.0141489  45.1505277  10.4868737  67.7613308  45.6626674  10.1775859
  67.2833079  44.8289329  11.3473130  65.2868139  47.6463817   7.4695691
  64.3779359  47.3622850   7.5668161  65.3163223  48.0662896   6.6098998
  70.5187407  51.2570407  11.2386858  70.0649734  50.4161317  11.2952049
  69.8881374  51.8931805  11.5761639  69.4620326  42.1862393  12.4687526
  68.7243083  41.6739779  12.7997768  69.7147100  41.7462774  11.6570803
  68.9620346  53.0946903  12.1736677  69.2543321  53.6551961  11.4549042
  69.4718967  53.3875464  12.9289836  69.5631954  34.9638645  13.0629295
  69.8690831  34.1036008  12.7755210  70.2884559  35.5556265  12.8628289
  55.8556310  45.3669331  11.4510893  55.6580710  44.7738692  10.7261960
  55.3002974  45.0621542  12.1686832  63.8353034  45.2592438  13.5705486
  63.8901643  44.3066274  13.4947963  63.0244236  45.4151877  14.0546785
  64.9844227  49.1872561   4.8083769  64.5463657  48.4708420   4.3489407
  65.7254668  49.4148676   4.2468861  61.7745393  43.8769498  11.3295865
  60.9613259  44.1763668  11.7361057  62.2704388  43.4825186  12.0470347
  63.9253971  53.8727255  13.2630130  63.8830150  54.0988101  12.3338662
  64.8416670  53.6390629  13.4115931  73.1017342  47.4629758  10.8660088
  72.9635241  47.6531354   9.9381277  72.7453561  48.2249141  11.3228139
  61.2659468  41.4487853  16.9457100  61.9058848  41.3076612  16.2480063
  60.4336999  41.1622367  16.5695702  73.1286722  49.5306285  15.8771360
  73.5623228  49.4381574  16.7254414  73.8418302  49.5063785  15.2391376
  62.0419772  50.7490284  13.0592092  62.8360371  50.2540604  12.8574667
  61.3311465  50.2208147  12.6959798  66.8614617  53.1308379  17.4104460
  66.9151639  53.6999315  18.1782176  65.9929398  53.3010264  17.0458497
  58.3502536  44.8933365   9.1351845  57.4200124  44.8317821   9.3521807
  58.4460008  44.3709318   8.3388486  58.2688085  41.4188178  11.7230087
  58.5294902  42.3333511  11.6139247  59.0905257  40.9512621  11.8726700
  73.9902271  49.5729986  18.4104245  74.1838161  50.4775796  18.6563520
  73.8902889  49.1137405  19.2442830  65.8202716  47.2968641  18.9691392
  66.7494776  47.4479801  18.7960359  65.3993746  47.3852662  18.1140038
  64.6191048  51.3219306  16.7389930  64.4802134  50.9538090  17.6115868
  63.8305644  51.8366945  16.5673887  65.2139200  56.4228402   8.0815466
  65.3890956  55.9516445   8.8961089  64.5271988  57.0494168   8.3096727
  66.1696263  50.7000908  14.1278767  65.8346096  50.6601678  15.0236417
  65.6700209  50.0345624  13.6549178  69.1055455  48.0456943   4.4015827
  68.4884626  47.3203771   4.3048880  68.6371943  48.8066303   4.0582901
  59.7800285  59.5717765  14.8555326  60.0196884  60.2036289  15.5334345
  58.9369482  59.2205805  15.1420686  60.8954001  42.2642367   3.5237131
  60.0183467  42.1431168   3.1599378  61.3711754  41.4728445   3.2716020
  52.4156141  47.0519527  13.6178638  53.1027181  46.7381257  13.0299654
  52.2604270  47.9560891  13.3445890  57.2190863  41.9409723  18.0463662
  57.1349052  41.3335393  17.3114072  56.3973570  42.4318742  18.0473158
  64.2928147  55.3796887  17.2596830  64.2198319  56.1851859  17.7716135
  63.8505540  55.5788853  16.4344852  64.0817927  54.6168657  10.7699652
  63.2985449  55.1590337  10.8637876  64.7810672  55.1342637  11.1693893
  67.3914577  40.4263287  13.4133857  67.8883277  39.6733249  13.0934927
  66.6201558  40.4627603  12.8477067  75.2444334  46.1303652  15.0552149
  75.2334211  47.0128368  14.6846082  74.3761714  45.7775203  14.8606686
  68.4744358  49.1834974  10.9872281  67.5400636  49.3036436  10.8176985
  68.6521026  48.2807441  10.7232290  63.9749546  42.5680670  13.1405542
  63.6047333  42.0151710  13.8286447  64.4708638  41.9638803  12.5880542
  71.8616909  45.0252293  11.5222315  72.3277361  45.8580285  11.4482617
  72.3124410  44.5597275  12.2267573  61.8038744  53.0278165  20.2360560
  62.5048204  53.6614648  20.3889954  61.3333859  53.3692896  19.4756199
  69.9293140  51.3696115   8.5208467  70.2052984  51.2552709   9.4302341
  69.0597639  50.9713599   8.4820640  69.8333572  37.3932880  15.5613216
  68.9196652  37.6237107  15.7295423  70.2626673  37.4771324  16.4127248
  69.6040030  45.5822772  18.0613110  68.9511480  45.8298680  17.4065563
  69.9820410  44.7686910  17.7275587  66.5647204  55.6182465  12.1641280
  66.7469599  54.8004121  12.6269033  67.3880190  55.8350158  11.7266170
  66.8989370  54.5450651   9.4256329  67.4277136  54.0343105   8.8126491
  67.1617589  54.2293181  10.2901862  57.4006462  52.5614520  17.1691662
  57.9859899  51.8158208  17.3019567  57.2031301  52.8718477  18.0528326
  60.2545118  55.5965767  12.1854105  59.5855493  56.0811895  11.7018145
  60.1157987  55.8434988  13.0997483  51.9924117  45.1320120  15.8896106
  52.0308217  44.5983711  16.6833224  51.4864410  44.6055326  15.2707083
  55.6232695  43.8584222   8.9650037  55.9186136  42.9494901   8.9117091
  54.7220730  43.8371962   8.6431039  67.5318773  55.5791486  15.7700445
  67.4069913  54.7781226  15.2611391  68.1897865  56.0737680  15.2814415
  59.1526942  41.9340219  14.9477586  58.4313527  42.5476186  14.8085059
  59.9420197  42.4697984  14.8694232  69.5953682  53.3800506  17.3979995
  68.6484017  53.2605858  17.3258322  69.9436455  52.4923004  17.4806257
  57.3520536  41.5398320   9.0889362  57.0233242  40.6595699   8.9064468
  57.7059907  41.4845989   9.9765751  66.6000115  53.1753223  13.5984348
  66.4525078  52.2469930  13.7791918  67.4253609  53.1973313  13.1141423
  60.4662359  41.8271290   9.4564840  60.8058432  42.3557211   8.7343448
  60.9134480  42.1651696  10.2323406  70.2034237  53.9981781  14.6849220
  71.1280784  53.7924643  14.5473672  70.0349540  53.7498182  15.5938562
  62.4530507  40.3245911   7.6558133  63.1738869  40.7027164   7.1521849
  61.8295811  41.0434788   7.7593111  66.5961629  41.0291060   8.5916465
  66.8125244  41.9115698   8.2905293  66.1155697  40.6377274   7.8622107
  61.3360851  43.9876773  15.1687209  61.1905432  44.3017076  16.0611491
  60.8586054  44.6061674  14.6158108  63.1957234  40.9779321  15.2168099
  63.1818802  40.0820415  14.8800397  63.9129662  40.9849985  15.8506385
  69.9929553  54.5167449  10.0411312  70.1666431  53.9513871   9.2885164
  70.4858444  55.3168344   9.8590802  55.8106513  46.5282118  18.1074871
  55.2659981  47.3041926  18.2395145  56.6885863  46.8752922  17.9493992
  62.5994130  39.8593702  10.4855669  62.7210041  38.9310348  10.6846557
  62.3096172  39.8732388   9.5733985  65.4685320  37.5448612  13.6222389
  65.4907017  37.6087945  12.6674369  65.8853379  36.7053121  13.8162895
  75.8468944  47.2803872  11.6601612  76.2900090  46.5311197  11.2620735
  74.9695455  47.2714008  11.2775344  70.9804726  53.8334213   7.1408210
  71.6755630  54.4540906   7.3595525  71.3227876  52.9829564   7.4160588
  56.5972535  45.6552014  21.0005028  55.8554271  45.8034649  21.5869658
  56.2765279  45.9160280  20.1371777  72.8796149  51.2833919   8.6695541
  73.4047473  51.6221191   7.9444861  72.7918501  50.3480934   8.4858676
  64.5636810  57.3505902  13.0290794  64.1241800  56.8582281  13.7223651
  65.3144926  56.8078870  12.7882869  57.0429149  53.5417443  13.0315422
  57.8687168  53.2421215  12.6514066  56.6923201  52.7725065  13.4805211
  62.0110682  52.8943911  15.1013096  61.3890691  52.2314616  14.8015324
  62.6815549  52.9205043  14.4186744  55.2437754  51.4603769  13.9904356
  54.4069662  51.0325944  13.8088357  55.2161399  51.6536213  14.9275147
  61.5724189  51.4447834   8.5771556  61.7212309  52.1283299   7.9238229
  62.3790632  51.4252924   9.0921012  74.1906127  51.1856230  21.5321489
  73.8990935  51.5486211  22.3684950  73.5778258  50.4723238  21.3534821
  75.3901809  48.7509110  14.0524059  76.2248700  49.1898914  14.2161620
  75.5260938  48.2747763  13.2332305  72.4393315  46.3088845  20.0001547
  72.9147437  46.5016491  19.1920398  71.5158880  46.3648031  19.7544931
  59.3276822  47.4713012   9.5832625  59.0822864  46.5675342   9.7812835
  59.4972736  47.4730162   8.6412103  58.5972469  43.2041370   7.0818787
  57.9041714  43.2785725   6.4258823  58.3524221  42.4401713   7.6040304
  67.2686126  34.7636971  14.4858277  67.5487879  34.0960160  15.1118704
  68.0536733  34.9566067  13.9732941  65.0719594  53.9395965   6.0483304
  64.4993561  54.5586152   5.5953776  65.6452388  54.4895326   6.5823226
  71.1394984  43.1854605  18.2329853  72.0912407  43.2852703  18.2542077
  70.9698434  42.3932873  18.7427937  68.2916854  54.2233115   7.1791886
  69.2247527  54.1578677   7.3824762  68.2040067  55.0589382   6.7206419
  70.9204871  53.5398985   4.1395834  70.8418502  53.2058849   5.0331591
  71.7414537  54.0320753   4.1387306  73.6183062  46.4060725  17.3472152
  73.5859382  45.4676725  17.5331836  74.2283685  46.4844761  16.6137977
  65.4566393  45.2756778   3.3899356  66.4025497  45.1462986   3.4587774
  65.0780638  44.5371439   3.8668784  73.7677550  43.1971768  17.3930435
  73.2516599  42.4130225  17.2060364  74.6517499  42.8690485  17.5576955
  71.4288277  36.9412784  13.3526248  71.2313098  36.6327872  14.2369580
  72.0387983  37.6674422  13.4824178  79.4359612  47.4676731  16.4878189
  80.1663000  47.2062020  17.0485892  78.8266557  46.7305453  16.5280257
  77.5174909  45.6084594  17.0852640  76.7908072  45.4740559  16.4769132
  77.1022196  45.9161423  17.8909358  63.6409310  43.2006754   3.3254241
  62.7340765  42.9039867   3.4016955  63.9185291  42.9036572   2.4588528
  54.5587250  44.5213117  13.7753288  54.2390034  43.6678426  13.4827662
  54.0120678  44.7361695  14.5311255  58.3367158  47.2375558  17.4922794
  58.5553167  48.1692666  17.5110828  58.7492932  46.8783533  18.2777598
  65.2571375  37.7443644   9.4798483  64.4472104  37.3990729   9.8553729
  65.9455792  37.4351187  10.0686094  67.1861924  36.8221690  11.1022779
  67.7392962  37.2417144  11.7612802  67.4232010  35.8957439  11.1445735
  62.4108094  40.0593689   3.4666221  63.2727258  40.3848587   3.7262038
  62.5958439  39.2725185   2.9539286  54.4275510  48.1416029  15.7446409
  53.7338982  47.7269982  15.2316364  55.1748501  48.1836565  15.1479828
  70.5640731  38.9322216  10.6101444  69.9839400  39.5907020  10.2279496
  70.2976664  38.1099560  10.1988861  69.0144297  38.3327273  12.8122764
  69.5144076  38.4443808  12.0037083  69.6579905  38.0288326  13.4523572
  56.3412253  48.0734283  13.6212424  56.3182941  48.1721970  12.6694307
  56.6512889  48.9199433  13.9429590  58.9999631  50.1310438  17.7359039
  59.9542884  50.0994380  17.6688970  58.8012154  49.6701061  18.5509265
  59.5899013  48.7011554  20.3029836  60.4091902  49.1955632  20.3264674
  59.8635820  47.7843522  20.2747404  69.3465609  41.0922306   9.6657792
  68.4591464  41.3771957   9.4477987  69.7619598  40.9316069   8.8185069
  72.6980145  41.1168827  13.3812131  73.4740535  41.6065279  13.6536748
  71.9728279  41.5426881  13.8384001  75.1352704  41.8296446  14.4386072
  75.7297194  41.5892182  13.7279380  75.2079287  41.1103577  15.0659608
  57.3549859  55.6730057  14.7529237  57.2204327  54.9130458  14.1867235
  56.9381922  56.3970957  14.2858025  68.4908822  50.8566981   3.7605812
  69.1944672  51.0616983   4.3763467  67.7671471  51.4243743   4.0254895
  69.3206633  46.6076842   9.8808082  69.2641834  47.0645393   9.0415714
  69.8734975  45.8467527   9.7030925  73.1311439  42.3966574  10.7058202
  72.8748373  41.9963209  11.5366409  72.5064307  43.1110368  10.5808341
  77.4423776  45.1362647  13.2129493  76.8823334  45.2055836  13.9861055
  76.8367280  44.9603632  12.4928989  60.5118985  56.5699374  14.9647679
  60.3951369  57.5144807  14.8626370  59.6911431  56.2672936  15.3533478
  70.3995520  51.2949510   5.8104272  71.2341124  50.8630708   5.6281747
  70.2379863  51.1231524   6.7381166  70.0541412  47.7981623   7.1760611
  69.9990216  47.6325895   6.2349055  69.4287467  48.5057656   7.3322801
  54.8433927  43.0349688  21.0022033  55.4892791  42.5248642  21.4909259
  54.6351078  43.7718369  21.5765459  63.3637537  37.2989732   6.7545930
  63.3516207  38.2431572   6.9114201  64.2560959  37.1159878   6.4605391
  61.5373499  57.2227636  18.1803608  62.4400746  57.2551246  18.4970103
  61.3110869  56.2928087  18.1949943  63.2927101  55.9758623  14.8413686
  62.3422732  55.9760484  14.7278059  63.5959588  55.2291357  14.3249721
  67.1789657  33.8932509  11.0091866  66.4122053  33.3390996  11.1548549
  67.5900362  33.9654378  11.8706018  79.0279795  61.8119161  15.9059449
  79.6658205  61.6925908  15.2022789  78.9100638  62.7600005  15.9647401
  75.8369501  61.7646589  15.8420973  75.4988013  61.6487654  14.9541508
  76.7059269  61.3637754  15.8221980  71.6956317  63.6182066  11.8317864
  71.1321182  63.5272002  11.0634152  71.5808712  62.7981970  12.3120357
  76.3189284  62.9181441  21.8007179  76.3077925  62.5234239  20.9287683
  76.4809924  62.1847513  22.3940950  69.2420749  65.1133257  14.6702085
  70.0342041  64.7724082  14.2548384  69.4817399  65.2228232  15.5904238
  77.2755876  67.2853033   7.1432329  76.6243855  67.8707114   6.7566343
  78.0700238  67.8159228   7.2027367  71.2011503  64.3742170   7.5419464
  71.9742379  63.8271157   7.4032339  71.5536902  65.2386420   7.7533925
  73.0396545  65.7018553  20.7486363  72.7486411  66.6064183  20.6333029
  73.6753530  65.7435080  21.4630432  73.9652752  63.0795401  17.3387723
  74.5616324  62.8551424  16.6244685  74.0227724  62.3380147  17.9413170
  73.5377781  60.5334836   5.1737913  73.7903301  60.0116358   4.4121377
  72.6002340  60.3700982   5.2764597  78.5821063  59.5370615  12.9812657
  79.3684153  59.1190038  12.6303074  78.8459768  60.4416707  13.1494305
  78.7531141  64.9743465   7.6801314  78.1176974  65.0478092   8.3922218
  78.4228547  65.5637064   7.0020393  83.9829490  59.4745848  13.8845635
  84.7154662  58.9045065  14.1183465  83.2268846  59.0867448  14.3252141
  73.2574069  62.4362942   7.3762288  73.1410327  61.7607846   8.0443373
  73.3676329  61.9495316   6.5594442  75.6005610  61.8973090  11.0808978
  75.2363817  61.3703711  11.7921899  76.4572726  61.5071559  10.9075463
  81.5054911  53.1867422  18.3440244  81.1738236  54.0562833  18.1201459
  80.9100524  52.8703706  19.0234274  75.2411097  56.9262989   6.0770326
  75.4085500  57.7943226   6.4440797  75.0508266  57.0890271   5.1531615
  77.9986430  65.3879968  17.7436157  77.6987153  66.2905007  17.6351964
  77.6537490  65.1212151  18.5957309  71.4498912  61.8393765  13.7772861
  70.5249408  61.7069979  13.9850553  71.6983325  62.6187984  14.2742803
  81.3983574  57.9062508  15.4233594  80.4900451  57.8377917  15.1292355
  81.3471170  58.3834453  16.2515419  75.2200318  59.3820647   7.0616993
  75.0999943  59.8277697   7.9002473  74.5252906  59.7305964   6.5030531
  68.8107723  61.4827039  14.6116650  68.9400104  61.7361517  15.5256062
  68.1305174  62.0754747  14.2921305  72.9807210  72.1524288  10.7107124
  72.9031240  73.1032114  10.7895605  72.3768854  71.8070161  11.3682051
  75.4724440  59.3252154  23.3668491  74.6957774  59.8846074  23.3571356
  76.1115003  59.8108937  23.8883361  83.2645221  56.1078947  17.2011468
  82.6219601  56.4011480  16.5551262  82.7600149  55.9931867  18.0064664
  80.9185384  59.8542120   7.8897327  81.8303240  60.0869507   7.7145025
  80.4095031  60.4379164   7.3272406  73.7270812  62.1337607  22.9286458
  74.4685497  62.6722651  22.6521282  73.0207798  62.7603896  23.0858010
  79.2026152  64.2766748  21.5258620  79.6109508  63.8349158  20.7813252
  78.4803413  63.7019375  21.7792813  75.5557222  59.2139355  18.8992177
  76.4018417  59.6378768  19.0426826  75.4955860  58.5572979  19.5930740
  79.5254967  64.8367938  15.2810909  78.8963829  65.0013652  14.5786976
  79.1380629  65.2509548  16.0521873  83.4044198  65.7722376  12.6355272
  82.7195237  66.1521278  12.0852306  83.4888048  66.3817703  13.3687220
  78.7056667  56.8743723  20.5573350  78.4617599  57.6285783  20.0207626
  78.9816598  57.2529070  21.3920597  80.6595130  63.4182335  19.2350616
  80.8712025  64.0614095  18.5584997  80.6124878  62.5844652  18.7672546
  78.2621359  56.0300156  16.1387188  77.4005838  56.3281409  16.4303926
  78.2883794  56.2470555  15.2068221  75.0782928  64.5742346  12.5460994
  75.5421274  64.8530049  11.7565616  74.8139726  63.6725791  12.3634084
  71.9707009  64.1213828  15.4840757  72.5408367  64.5501096  14.8458241
  72.5615121  63.8396413  16.1824943  74.0151814  60.6965499   9.3550559
  74.7175858  61.1486542   9.8224485  73.6832443  60.0549318   9.9830452
  67.7577148  58.9549051  14.6567692  66.9676202  59.2106580  14.1807803
  68.2488396  59.7697389  14.7619733  81.7740958  66.2954291  17.4072973
  82.5958402  65.8934478  17.1255655  81.7703361  66.1922525  18.3589089
  69.7091894  59.3193631  11.6151169  68.9123057  59.4312325  12.1334665
  69.4817486  59.6580283  10.7492060  75.5397561  65.8438334  19.5633684
  75.6041994  66.3058741  20.3991856  74.8308485  65.2135699  19.6915994
  66.0414851  59.2079542  17.0882683  66.2922890  60.0926552  17.3540259
  66.5774400  59.0284143  16.3157775  89.8646951  62.6393039  13.7557945
  89.1110659  62.0700437  13.6001949  89.9994492  62.6055704  14.7028579
  75.2545579  67.5106441   9.4312664  75.1191254  68.3557977   9.8597512
  75.7955392  67.7125719   8.6678598  68.7074976  65.0281879  10.0040589
  69.2199497  65.8225130  10.1546154  69.3597689  64.3308170   9.9374191
  70.5169861  68.1447636  12.0863342  70.6936489  69.0665600  11.8984326
  71.3126695  67.8306055  12.5157722  76.8814055  68.1330008  23.5613006
  76.4377910  67.3466387  23.2433911  77.5431269  68.3209158  22.8956897
  71.6401177  69.6625810  18.0873685  72.1908602  69.5342873  17.3150679
  70.8012653  69.9620699  17.7368577  78.9795294  68.4132808  21.5894407
  78.9613769  69.2341689  21.0974677  79.9015214  68.2886883  21.8144549
  75.4368348  65.9276937  22.4317916  75.9696684  65.1665226  22.2017224
  74.9082429  65.6350589  23.1742070  78.6038043  51.0337003  17.9611557
  78.2602312  51.9238645  17.8850668  78.9717005  50.8438661  17.0981142
  66.6723893  63.3570534  10.7800160  67.5099115  63.7667542  10.5633867
  66.8502161  62.4169976  10.7500354  78.5688325  61.0245614   6.4683993
  78.0534949  61.7950219   6.7072380  78.2965634  60.3510751   7.0917054
  76.1535436  55.8695315  11.5269231  75.2977033  55.4802166  11.3474870
  76.5662388  55.9487276  10.6669016  77.6834583  53.4041658  15.9260791
  77.1799379  53.3671794  15.1128596  77.9765190  54.3134401  15.9857447
  73.9277469  53.4880388  14.9326972  74.7930466  53.2923197  14.5732862
  73.9954978  53.2590740  15.8596329  83.5422599  63.7777969   8.4037166
  82.7652042  63.4389129   7.9592328  84.2214080  63.7830592   7.7292131
  78.3574629  58.8972707   8.2943774  78.0524764  59.2118856   9.1453917
  79.3105071  58.9754126   8.3371107  76.8021060  65.0562930   9.9436728
  76.2742422  64.3215689   9.6309965  76.3008563  65.8337606   9.6976696
  81.7813906  63.2511950  15.0603774  81.1237581  63.9411212  15.1483903
  82.5854306  63.6408382  15.4037760  71.5339788  55.7182596  12.3043339
  72.1083540  55.4957778  11.5716532  72.1210770  55.7871291  13.0571941
  80.5919365  61.6056323  13.1107716  81.1051247  62.2386315  13.6129426
  81.2420589  61.0057519  12.7451076  71.8609375  57.7487057   6.3239225
  71.0246687  58.0861744   6.6448499  71.7214145  57.6136037   5.3866362
  73.8362456  52.5923845  11.0318409  73.1826868  52.2772862  10.4075023
  73.7942930  51.9699585  11.7578232  74.9473661  62.8743140   2.9471701
  74.0400722  62.6432394   3.1462850  75.4444693  62.0780759   3.1345682
  77.0700196  59.0805779  15.3566056  76.1522757  59.3020726  15.1987744
  77.4860340  59.1552089  14.4977764  77.8535244  60.4797194  10.4868737
  78.6007063  60.9918591  10.1775859  78.1226833  60.1581247  11.3473130
  76.1261894  62.9755735   7.4695691  75.2173113  62.6914768   7.5668161
  76.1556978  63.3954814   6.6098998  81.3581161  66.5862324  11.2386858
  80.9043489  65.7453234  11.2952049  80.7275128  67.2223723  11.5761639
  80.3014081  57.5154311  12.4687526  79.5636838  57.0031697  12.7997768
  80.5540854  57.0754692  11.6570803  79.8014101  68.4238821  12.1736677
  80.0937075  68.9843878  11.4549042  80.3112721  68.7167382  12.9289836
  80.4025708  50.2930563  13.0629295  80.7084585  49.4327926  12.7755210
  81.1278313  50.8848183  12.8628289  66.6950064  60.6961249  11.4510893
  66.4974464  60.1030610  10.7261960  66.1396728  60.3913459  12.1686832
  74.6746788  60.5884356  13.5705486  74.7295398  59.6358192  13.4947963
  73.8637990  60.7443795  14.0546785  75.8237982  64.5164479   4.8083769
  75.3857412  63.8000338   4.3489407  76.5648423  64.7440593   4.2468861
  72.6139148  59.2061415  11.3295865  71.8007013  59.5055586  11.7361057
  73.1098142  58.8117104  12.0470347  74.7647726  69.2019172  13.2630130
  74.7223905  69.4280019  12.3338662  75.6810425  68.9682547  13.4115931
  78.2113360  59.6703240  20.1610759  78.5662747  59.8974713  21.0205225
  78.8585491  60.0021617  19.5388014  83.9411097  62.7921676  10.8660088
  83.8028995  62.9823272   9.9381277  83.5847315  63.5541058  11.3228139
  72.1053223  56.7779771  16.9457100  72.7452602  56.6368530  16.2480063
  71.2730753  56.4914284  16.5695702  83.9680476  64.8598203  15.8771360
  84.4016983  64.7673492  16.7254414  84.6812057  64.8355703  15.2391376
  72.8813527  66.0782201  13.0592092  73.6754125  65.5832521  12.8574667
  72.1705219  65.5500064  12.6959798  77.7008371  68.4600297  17.4104460
  77.7545393  69.0291233  18.1782176  76.8323152  68.6302182  17.0458497
  69.1896290  60.2225283   9.1351845  68.2593878  60.1609738   9.3521807
  69.2853762  59.7001236   8.3388486  69.1081839  56.7480096  11.7230087
  69.3688656  57.6625429  11.6139247  69.9299011  56.2804538  11.8726700
  84.8296026  64.9021903  18.4104245  85.0231916  65.8067714  18.6563520
  84.7296644  64.4429322  19.2442830  76.4832336  54.7879794  20.9094572
  75.8360252  55.4869744  20.8159049  77.2533352  55.2215938  21.2770820
  79.8911134  65.0528646  23.9845126  79.7396641  64.8239198  23.0675209
  79.8815814  66.0099248  23.9976471  76.6596471  62.6260559  18.9691392
  77.5888531  62.7771718  18.7960359  76.2387501  62.7144580  18.1140038
  75.4584803  66.6511223  16.7389930  75.3195888  66.2830008  17.6115868
  74.6699399  67.1658863  16.5673887  76.0532955  71.7520320   8.0815466
  76.2284710  71.2808363   8.8961089  75.3665743  72.3786086   8.3096727
  77.0090018  66.0292826  14.1278767  76.6739850  65.9893596  15.0236417
  76.5093963  65.3637542  13.6549178  70.9834262  61.4360456  19.6531349
  70.8454060  60.7040695  20.2542888  71.8939185  61.3469356  19.3715536
  73.6116562  61.1480415  19.1415028  74.3216181  60.5073607  19.1001647
  73.5685871  61.3993310  20.0641209  81.6003341  68.0847769  22.0621607
  81.5415887  67.4006989  21.3952190  82.0022859  68.8266759  21.6102233
  70.6194040  74.9009682  14.8555326  70.8590638  75.5328207  15.5334345
  69.7763236  74.5497723  15.1420686  71.7347755  57.5934285   3.5237131
  70.8577222  57.4723085   3.1599378  72.2105508  56.8020363   3.2716020
  81.6020748  66.0487353  20.2935587  80.7147527  65.7113274  20.4161986
  82.1719299  65.3170384  20.5304352  63.2549895  62.3811444  13.6178638
  63.9420935  62.0673174  13.0299654  63.0998024  63.2852809  13.3445890
  75.1321902  70.7088805  17.2596830  75.0592073  71.5143776  17.7716135
  74.6899295  70.9080771  16.4344852  74.9211681  69.9460575  10.7699652
  74.1379203  70.4882255  10.8637876  75.6204427  70.4634555  11.1693893
  78.2308331  55.7555204  13.4133857  78.7277031  55.0025167  13.0934927
  77.4595313  55.7919521  12.8477067  86.0838089  61.4595570  15.0552149
  86.0727965  62.3420285  14.6846082  85.2155468  61.1067121  14.8606686
  77.5920585  70.6075639  19.4154989  78.3048557  71.2423104  19.3430890
  77.1010614  70.7039505  18.5994991  79.3138112  64.5126892  10.9872281
  78.3794391  64.6328354  10.8176985  79.4914781  63.6099358  10.7232290
  74.8143300  57.8972587  13.1405542  74.4441088  57.3443628  13.8286447
  75.3102393  57.2930721  12.5880542  82.7010663  60.3544211  11.5222315
  83.1671116  61.1872203  11.4482617  83.1518164  59.8889192  12.2267573
  72.6432499  68.3570082  20.2360560  73.3441958  68.9906565  20.3889954
  72.1727614  68.6984814  19.4756199  80.7686895  66.6988032   8.5208467
  81.0446739  66.5844627   9.4302341  79.8991393  66.3005517   8.4820640
  80.6727326  52.7224798  15.5613216  79.7590406  52.9529025  15.7295423
  81.1020428  52.8063242  16.4127248  80.4433785  60.9114690  18.0613110
  79.7905235  61.1590597  17.4065563  80.8214165  60.0978828  17.7275587
  77.4040959  70.9474383  12.1641280  77.5863353  70.1296039  12.6269033
  78.2273945  71.1642075  11.7266170  77.7383124  69.8742568   9.4256329
  78.2670891  69.3635023   8.8126491  78.0011344  69.5585098  10.2901862
  76.4921358  61.6534501  24.5479147  75.8161995  61.5528630  25.2181522
  77.3148992  61.4973715  25.0115144  68.2400217  67.8906437  17.1691662
  68.8253654  67.1450125  17.3019567  68.0425055  68.2010394  18.0528326
  71.0938872  70.9257685  12.1854105  70.4249247  71.4103812  11.7018145
  70.9551742  71.1726905  13.0997483  62.8317872  60.4612038  15.8896106
  62.8701971  59.9275628  16.6833224  62.3258164  59.9347243  15.2707083
  75.2344141  72.9601428  18.7836763  75.7862449  73.1233050  19.5485848
  75.5750334  73.5505866  18.1116788  80.0855015  67.7862686  24.6385418
  80.6294919  68.3992644  24.1440372  79.5041860  68.3442264  25.1552431
  66.4626449  59.1876140   8.9650037  66.7579890  58.2786818   8.9117091
  65.5614485  59.1663879   8.6431039  78.3712528  70.9083404  15.7700445
  78.2463667  70.1073144  15.2611391  79.0291619  71.4029597  15.2814415
  69.9920696  57.2632136  14.9477586  69.2707282  57.8768104  14.8085059
  70.7813952  57.7989901  14.8694232  80.4347436  68.7092424  17.3979995
  79.4877772  68.5897775  17.3258322  80.7830209  67.8214922  17.4806257
  68.1914291  56.8690237   9.0889362  67.8626997  55.9887616   8.9064468
  68.5453661  56.8137906   9.9765751  77.4393870  68.5045140  13.5984348
  77.2918832  67.5761848  13.7791918  78.2647363  68.5265231  13.1141423
  71.3056114  57.1563207   9.4564840  71.6452186  57.6849129   8.7343448
  71.7528234  57.4943613  10.2323406  81.0427991  69.3273699  14.6849220
  81.9674539  69.1216560  14.5473672  80.8743295  69.0790100  15.5938562
  73.9999555  55.5400258  18.9067908  73.6596375  54.7408071  19.3088588
  73.2938561  55.8401969  18.3344741  74.6516027  52.6249570  17.3595231
  75.4742096  52.1510049  17.2374121  74.8954090  53.4040054  17.8593917
  73.2924261  55.6537829   7.6558133  74.0132624  56.0319082   7.1521849
  72.6689565  56.3726706   7.7593111  77.4355384  56.3582978   8.5916465
  77.6518998  57.2407616   8.2905293  76.9549451  55.9669191   7.8622107
  72.1754605  59.3168691  15.1687209  72.0299186  59.6308994  16.0611491
  71.6979809  59.9353591  14.6158108  74.0350988  56.3071239  15.2168099
  74.0212557  55.4112332  14.8800397  74.7523416  56.3141903  15.8506385
  75.8877119  56.7408579  17.2621226  75.6294897  57.6625650  17.2605557
  75.3562159  56.3439014  17.9521691  80.8323308  69.8459366  10.0411312
  81.0060185  69.2805789   9.2885164  81.3252199  70.6460261   9.8590802
  73.4387884  55.1885619  10.4855669  73.5603795  54.2602266  10.6846557
  73.1489926  55.2024305   9.5733985  76.3079075  52.8740530  13.6222389
  76.3300771  52.9379863  12.6674369  76.7247134  52.0345038  13.8162895
  86.6862699  62.6095789  11.6601612  87.1293845  61.8603115  11.2620735
  85.8089209  62.6005926  11.2775344  83.7189903  66.6125836   8.6695541
  84.2441227  66.9513109   7.9444861  83.6312256  65.6772852   8.4858676
  75.3809952  70.5259910  20.7985418  75.6897078  70.2809057  21.6708117
  76.1785434  70.7306548  20.3104288  75.4030564  72.6797820  13.0290794
  74.9635554  72.1874198  13.7223651  76.1538681  72.1370787  12.7882869
  67.8822903  68.8709360  13.0315422  68.7080923  68.5713132  12.6514066
  67.5316955  68.1016983  13.4805211  72.8504436  68.2235829  15.1013096
  72.2284445  67.5606534  14.8015324  73.5209303  68.2496961  14.4186744
  66.0831508  66.7895687  13.9904356  65.2463416  66.3617861  13.8088357
  66.0555153  66.9828130  14.9275147  83.4083809  67.2458740  23.9746739
  82.6179353  67.2282879  23.4351238  83.1717164  67.7847034  24.7295775
  83.5281684  64.0951206  21.2879467  83.5779689  63.9301214  22.2294990
  83.4195608  63.2278465  20.8977348  72.4117943  66.7739752   8.5771556
  72.5606063  67.4575216   7.9238229  73.2184387  66.7544842   9.0921012
  80.8185447  60.0782134  22.6038774  81.7195310  59.9388599  22.3122772
  80.8933421  60.2436589  23.5436952  75.1528252  57.4548989  21.4491960
  74.2831562  57.7482555  21.1774549  75.3887732  58.0389434  22.1699224
  85.0299881  66.5148148  21.5321489  84.7384690  66.8778128  22.3684950
  84.4172012  65.8015156  21.3534821  86.2295564  64.0801028  14.0524059
  87.0642455  64.5190832  14.2161620  86.3654692  63.6039681  13.2332305
  83.2787069  61.6380762  20.0001547  83.7541191  61.8308409  19.1920398
  82.3552635  61.6939948  19.7544931  70.1670576  62.8004930   9.5832625
  69.9216618  61.8967260   9.7812835  70.3366491  62.8022080   8.6412103
  77.8567286  53.6728606  18.9657381  78.3749230  54.4089633  18.6403869
  77.5022419  53.9792599  19.8004140  69.4366224  58.5333287   7.0818787
  68.7435469  58.6077642   6.4258823  69.1917975  57.7693631   7.6040304
  78.1079880  50.0928889  14.4858277  78.3881634  49.4252078  15.1118704
  78.8930487  50.2857984  13.9732941  81.9788738  58.5146523  18.2329853
  82.9306161  58.6144620  18.2542077  81.8092189  57.7224791  18.7427937
  80.0003118  55.6002106  18.4189253  79.4053050  55.8807118  17.7235742
  79.7152815  56.0896007  19.1905995  84.4576816  61.7352642  17.3472152
  84.4253136  60.7968643  17.5331836  85.0677440  61.8136679  16.6137977
  76.2960147  60.6048695   3.3899356  77.2419252  60.4754903   3.4587774
  75.9174392  59.8663357   3.8668784  84.6071305  58.5263686  17.3930435
  84.0910353  57.7422142  17.2060364  85.4911253  58.1982402  17.5576955
  82.2682032  52.2704701  13.3526248  82.0706853  51.9619789  14.2369580
  82.8781737  52.9966340  13.4824178  90.2753366  62.7968649  16.4878189
  91.0056755  62.5353937  17.0485892  89.6660312  62.0597371  16.5280257
  88.3568663  60.9376512  17.0852640  87.6301827  60.8032477  16.4769132
  87.9415950  61.2453340  17.8909358  76.1798840  64.6566441  24.8500013
  77.1001849  64.8345040  25.0440060  76.1448423  63.7122487  24.6979712
  74.4803064  58.5298672   3.3254241  73.5734520  58.2331784   3.4016955
  74.7579045  58.2328490   2.4588528  65.3981005  59.8505035  13.7753288
  65.0783789  58.9970343  13.4827662  64.8514433  60.0653613  14.5311255
  69.1760912  62.5667476  17.4922794  69.3946922  63.4984584  17.5110828
  69.5886686  62.2075450  18.2777598  76.0965130  53.0735561   9.4798483
  75.2865858  52.7282646   9.8553729  76.7849547  52.7643105  10.0686094
  78.0255678  52.1513608  11.1022779  78.5786717  52.5709062  11.7612802
  78.2625765  51.2249356  11.1445735  73.2501849  55.3885607   3.4666221
  74.1121013  55.7140505   3.7262038  73.4352193  54.6017103   2.9539286
  65.2669265  63.4707947  15.7446409  64.5732736  63.0561899  15.2316364
  66.0142256  63.5128483  15.1479828  81.4034485  54.2614133  10.6101444
  80.8233154  54.9198937  10.2279496  81.1370418  53.4391478  10.1988861
  79.8538052  53.6619191  12.8122764  80.3537830  53.7735726  12.0037083
  80.4973660  53.3580244  13.4523572  73.9120048  61.5697821  25.6990605
  73.4287129  62.3698181  25.9054494  73.9980987  61.5805765  24.7458049
  67.1806007  63.4026200  13.6212424  67.1576695  63.5013888  12.6694307
  67.4906644  64.2491351  13.9429590  69.8393385  65.4602355  17.7359039
  70.7936639  65.4286298  17.6688970  69.6405909  64.9992979  18.5509265
  70.4292767  64.0303471  20.3029836  71.2485656  64.5247550  20.3264674
  70.7029575  63.1135440  20.2747404  80.1859363  56.4214224   9.6657792
  79.2985218  56.7063874   9.4477987  80.6013352  56.2607987   8.8185069
  83.5373900  56.4460745  13.3812131  84.3134290  56.9357197  13.6536748
  82.8122034  56.8718799  13.8384001  85.9746458  57.1588364  14.4386072
  86.5690949  56.9184100  13.7279380  86.0473042  56.4395494  15.0659608
  68.1943614  71.0021975  14.7529237  68.0598082  70.2422376  14.1867235
  67.7775676  71.7262875  14.2858025  80.1600387  61.9368760   9.8808082
  80.1035589  62.3937311   9.0415714  80.7128730  61.1759444   9.7030925
  83.9705193  57.7258491  10.7058202  83.7142127  57.3255127  11.5366409
  83.3458061  58.4402285  10.5808341  88.2817531  60.4654565  13.2129493
  87.7217089  60.5347754  13.9861055  87.6761034  60.2895549  12.4928989
  71.3512740  71.8991292  14.9647679  71.2345124  72.8436724  14.8626370
  70.5305186  71.5964853  15.3533478  80.8935166  63.1273541   7.1760611
  80.8383970  62.9617812   6.2349055  80.2681222  63.8349574   7.3322801
  78.2081074  65.4322453  26.5014174  79.0772233  65.6063105  26.1400809
  77.7287825  66.2516870  26.3789903  74.2031292  52.6281650   6.7545930
  74.1909962  53.5723490   6.9114201  75.0954714  52.4451795   6.4605391
  72.3767254  72.5519554  18.1803608  73.2794501  72.5843164  18.4970103
  72.1504624  71.6220005  18.1949943  74.1320856  71.3050540  14.8413686
  73.1816487  71.3052402  14.7278059  74.4353342  70.5583275  14.3249721
  78.0183411  49.2224426  11.0091866  77.2515807  48.6682913  11.1548549
  78.4294116  49.2946295  11.8706018  86.6763256  77.0938507  15.8420973
  86.3381767  76.9779571  14.9541508  87.5453024  76.6929672  15.8221980
  87.1583039  78.2473358  21.8007179  87.1471679  77.8526157  20.9287683
  87.3203678  77.5139431  22.3940950  80.0814503  80.4425175  14.6702085
  80.8735795  80.1015999  14.2548384  80.3211153  80.5520150  15.5904238
  83.8790300  81.0310470  20.7486363  83.5880166  81.9356101  20.6333029
  84.5147284  81.0726998  21.4630432  84.8046507  78.4087319  17.3387723
  85.4010079  78.1843341  16.6244685  84.8621478  77.6672064  17.9413170
  92.3448665  68.5159340  18.3440244  92.0131990  69.3854751  18.1201459
  91.7494279  68.1995624  19.0234274  82.2892666  77.1685683  13.7772861
  81.3643163  77.0361897  13.9850553  82.5377080  77.9479902  14.2742803
  92.2377329  73.2354426  15.4233594  91.3294206  73.1669834  15.1292355
  92.1864924  73.7126371  16.2515419  79.6501477  76.8118956  14.6116650
  79.7793859  77.0653435  15.5256062  78.9698929  77.4046664  14.2921305
  86.3118194  74.6544072  23.3668491  85.5351528  75.2137992  23.3571356
  86.9508757  75.1400855  23.8883361  94.1038975  71.4370864  17.2011468
  93.4613355  71.7303398  16.5551262  93.5993904  71.3223785  18.0064664
  84.5664567  77.4629525  22.9286458  85.3079251  78.0014569  22.6521282
  83.8601552  78.0895814  23.0858010  90.0419906  79.6058665  21.5258620
  90.4503262  79.1641076  20.7813252  89.3197168  79.0311293  21.7792813
  86.3950976  74.5431272  18.8992177  87.2412172  74.9670686  19.0426826
  86.3349614  73.8864896  19.5930740  89.5450422  72.2035641  20.5573350
  89.3011354  72.9577701  20.0207626  89.8210352  72.5820988  21.3920597
  91.4988884  78.7474253  19.2350616  91.7105780  79.3906013  18.5584997
  91.4518633  77.9136569  18.7672546  89.1015113  71.3592074  16.1387188
  88.2399592  71.6573327  16.4303926  89.1277548  71.5762472  15.2068221
  83.3025930  74.6169173  23.7301768  82.6724591  75.2985454  23.9637165
  83.1962018  74.5052255  22.7854906  78.5970903  74.2840969  14.6567692
  77.8069957  74.5398498  14.1807803  79.0882150  75.0989307  14.7619733
  86.3791316  81.1730252  19.5633684  86.4435748  81.6350659  20.3991856
  85.6702240  80.5427617  19.6915994  76.8808606  74.5371460  17.0882683
  77.1316644  75.4218470  17.3540259  77.4168154  74.3576061  16.3157775
  82.5806673  68.9189939  26.0927019  82.1873619  68.3656138  26.7674663
  83.3972814  69.2300517  26.4833537  85.4974634  70.3347818  23.6847276
  86.2384348  70.9354971  23.6051738  85.7292557  69.5925456  23.1265318
  80.6415972  75.5204185  21.9625505  80.5269487  74.6189443  22.2632604
  79.7860490  75.7667882  21.6110322  87.7207810  83.4621926  23.5613006
  87.2771664  82.6758304  23.2433911  88.3825024  83.6501076  22.8956897
  89.8189048  83.7424726  21.5894407  89.8007523  84.5633607  21.0974677
  90.7408968  83.6178801  21.8144549  86.2762102  81.2568855  22.4317916
  86.8090439  80.4957143  22.2017224  85.7476183  80.9642507  23.1742070
  89.4431797  66.3628921  17.9611557  89.0996067  67.2530563  17.8850668
  89.8110760  66.1730579  17.0981142  88.5228338  68.7333576  15.9260791
  88.0193133  68.6963711  15.1128596  88.8158944  69.6426319  15.9857447
  84.7671223  68.8172306  14.9326972  85.6324220  68.6215115  14.5732862
  84.8348732  68.5882658  15.8596329  82.3733542  71.0474514  12.3043339
  82.9477294  70.8249695  11.5716532  82.9604525  71.1163208  13.0571941
  84.6756210  67.9215763  11.0318409  84.0220623  67.6064780  10.4075023
  84.6336684  67.2991503  11.7578232  87.9093951  74.4097696  15.3566056
  86.9916512  74.6312643  15.1987744  88.3254094  74.4844007  14.4977764
  91.2419463  65.6222480  13.0629295  91.5478340  64.7619844  12.7755210
  91.9672068  66.2140100  12.8628289  77.5343819  76.0253167  11.4510893
  77.3368219  75.4322527  10.7261960  76.9790483  75.7205377  12.1686832
  85.5140543  75.9176273  13.5705486  85.5689152  74.9650110  13.4947963
  84.7031745  76.0735712  14.0546785  89.0507114  74.9995157  20.1610759
  89.4056502  75.2266631  21.0205225  89.6979245  75.3313534  19.5388014
  82.9446977  72.1071689  16.9457100  83.5846357  71.9660448  16.2480063
  82.1124508  71.8206202  16.5695702  79.9475594  72.0772014  11.7230087
  80.2082411  72.9917347  11.6139247  80.7692766  71.6096456  11.8726700
  81.4200519  73.4909771  18.8928911  82.0923572  73.2827133  18.2441560
  80.5930305  73.2931857  18.4534144  87.3226091  70.1171712  20.9094572
  86.6754006  70.8161661  20.8159049  88.0927106  70.5507856  21.2770820
  90.7304889  80.3820564  23.9845126  90.5790395  80.1531115  23.0675209
  90.7209568  81.3391165  23.9976471  87.4990225  77.9552477  18.9691392
  88.4282285  78.1063636  18.7960359  87.0781255  78.0436497  18.1140038
  81.8228016  76.7652374  19.6531349  81.6847814  76.0332612  20.2542888
  82.7332940  76.6761274  19.3715536  84.4510317  76.4772333  19.1415028
  85.1609935  75.8365525  19.1001647  84.4079625  76.7285228  20.0641209
  92.4397096  83.4139686  22.0621607  92.3809642  82.7298906  21.3952190
  92.8416614  84.1558676  21.6102233  83.1639251  73.4637551  20.9610668
  82.6276608  73.0128289  21.6132264  82.5755959  73.5983460  20.2181132
  92.4414503  81.3779270  20.2935587  91.5541282  81.0405192  20.4161986
  93.0113054  80.6462301  20.5304352  74.0943650  77.7103362  13.6178638
  74.7814690  77.3965092  13.0299654  73.9391779  78.6144727  13.3445890
  78.8978372  72.5993559  18.0463662  78.8136561  71.9919228  17.3114072
  78.0761078  73.0902577  18.0473158  89.0702086  71.0847122  13.4133857
  89.5670785  70.3317084  13.0934927  88.2989067  71.1211439  12.8477067
  85.6537055  73.2264505  13.1405542  85.2834842  72.6735545  13.8286447
  86.1496147  72.6222639  12.5880542  83.4826253  83.6862000  20.2360560
  84.1835713  84.3198483  20.3889954  83.0121368  84.0276732  19.4756199
  91.5121081  68.0516716  15.5613216  90.5984161  68.2820942  15.7295423
  91.9414182  68.1355160  16.4127248  91.2827539  76.2406608  18.0613110
  90.6298989  76.4882515  17.4065563  91.6607919  75.4270746  17.7275587
  87.3315112  76.9826419  24.5479147  86.6555749  76.8820548  25.2181522
  88.1542746  76.8265632  25.0115144  79.0793971  83.2198355  17.1691662
  79.6647408  82.4742043  17.3019567  78.8818810  83.5302312  18.0528326
  73.6711626  75.7903955  15.8896106  73.7095726  75.2567546  16.6833224
  73.1651919  75.2639161  15.2707083  81.0502388  70.6368496  19.3858648
  81.1143715  71.4983327  18.9736046  80.9869509  70.0242498  18.6531006
  80.5254661  72.7091628  23.0331682  81.1526700  72.3268706  23.6469206
  79.6682580  72.4905830  23.3987375  90.9248769  83.1154604  24.6385418
  91.4688673  83.7284562  24.1440372  90.3435614  83.6734182  25.1552431
  80.8314451  72.5924054  14.9477586  80.1101036  73.2060022  14.8085059
  81.6207706  73.1281819  14.8694232  83.6340764  69.9278481  21.2218237
  84.1575166  70.1740777  21.9844547  83.4153097  70.7598515  20.8021375
  79.0308045  72.1982155   9.0889362  78.7020751  71.3179534   8.9064468
  79.3847416  72.1429824   9.9765751  84.8393309  70.8692176  18.9067908
  84.4990130  70.0699989  19.3088588  84.1332315  71.1693887  18.3344741
  85.4909781  67.9541488  17.3595231  86.3135850  67.4801966  17.2374121
  85.7347845  68.7331972  17.8593917  83.0148360  74.6460609  15.1687209
  82.8692941  74.9600912  16.0611491  82.5373563  75.2645509  14.6158108
  84.8744743  71.6363157  15.2168099  84.8606311  70.7404250  14.8800397
  85.5917171  71.6433820  15.8506385  86.7270873  72.0700497  17.2621226
  86.4688651  72.9917568  17.2605557  86.1955914  71.6730931  17.9521691
  77.4894022  77.1865953  18.1074871  76.9447490  77.9625761  18.2395145
  78.3673372  77.5336758  17.9493992  87.1472829  68.2032447  13.6222389
  87.1694526  68.2671781  12.6674369  87.5640888  67.3636956  13.8162895
  78.2760044  76.3135849  21.0005028  77.5341780  76.4618485  21.5869658
  77.9552788  76.5744115  20.1371777  86.2203706  85.8551828  20.7985418
  86.5290833  85.6100974  21.6708117  87.0179188  86.0598466  20.3104288
  76.9225263  82.1187605  13.9904356  76.0857171  81.6909779  13.8088357
  76.8948908  82.3120048  14.9275147  83.7622718  72.0309534  24.6945602
  83.8110874  72.9071657  24.3123371  84.3045232  71.4886927  24.1217245
  94.2477564  82.5750658  23.9746739  93.4573108  82.5574796  23.4351238
  94.0110918  83.1138951  24.7295775  94.3675439  79.4243124  21.2879467
  94.4173444  79.2593131  22.2294990  94.2589362  78.5570383  20.8977348
  91.6579201  75.4074052  22.6038774  92.5589064  75.2680517  22.3122772
  91.7327176  75.5728507  23.5436952  85.9922007  72.7840907  21.4491960
  85.1225316  73.0774473  21.1774549  86.2281487  73.3681352  22.1699224
  95.8693636  81.8440066  21.5321489  95.5778444  82.2070046  22.3684950
  95.2565767  81.1307074  21.3534821  94.1180824  76.9672680  20.0001547
  94.5934946  77.1600326  19.1920398  93.1946389  77.0231866  19.7544931
  88.6961040  69.0020524  18.9657381  89.2142984  69.7381551  18.6403869
  88.3416173  69.3084517  19.8004140  88.9473635  65.4220806  14.4858277
  89.2275388  64.7543995  15.1118704  89.7324242  65.6149902  13.9732941
  92.8182493  73.8438440  18.2329853  93.7699916  73.9436538  18.2542077
  92.6485943  73.0516709  18.7427937  90.8396872  70.9294023  18.4189253
  90.2446805  71.2099036  17.7235742  90.5546569  71.4187924  19.1905995
  95.4465059  73.8555603  17.3930435  94.9304108  73.0714060  17.2060364
  96.3305008  73.5274320  17.5576955  93.1075786  67.5996619  13.3526248
  92.9100607  67.2911707  14.2369580  93.7175492  68.3258258  13.4824178
  87.0192594  79.9858359  24.8500013  87.9395604  80.1636958  25.0440060
  86.9842177  79.0414404  24.6979712  76.2374759  75.1796953  13.7753288
  75.9177543  74.3262261  13.4827662  75.6908187  75.3945531  14.5311255
  80.0154667  77.8959394  17.4922794  80.2340676  78.8276502  17.5110828
  80.4280440  77.5367368  18.2777598  88.8649433  67.4805526  11.1022779
  89.4180471  67.9000979  11.7612802  89.1019519  66.5541274  11.1445735
  84.8882532  73.4692599  26.8825543  84.7879259  74.4186956  26.8137634
  84.6704074  73.1410838  26.0101613  76.1063019  78.7999864  15.7446409
  75.4126491  78.3853817  15.2316364  76.8536010  78.8420401  15.1479828
  90.6931806  68.9911109  12.8122764  91.1931585  69.1027643  12.0037083
  91.3367414  68.6872162  13.4523572  84.7513802  76.8989738  25.6990605
  84.2680884  77.6990098  25.9054494  84.8374741  76.9097683  24.7458049
  78.0199762  78.7318118  13.6212424  77.9970450  78.8305805  12.6694307
  78.3300398  79.5783269  13.9429590  80.6787140  80.7894273  17.7359039
  81.6330393  80.7578215  17.6688970  80.4799663  80.3284897  18.5509265
  81.2686522  79.3595389  20.3029836  82.0879411  79.8539468  20.3264674
  81.5423329  78.4427357  20.2747404  76.5221436  73.6933523  21.0022033
  77.1680300  73.1832477  21.4909259  76.3138587  74.4302205  21.5765459
  89.0474828  80.7614370  26.5014174  89.9165988  80.9355023  26.1400809
  88.5681580  81.5808787  26.3789903  88.8577166  64.5516344  11.0091866
  88.0909562  63.9974831  11.1548549  89.2687871  64.6238213  11.8706018
  80.8618927  70.8401140  25.0997048  81.7250388  70.4837945  25.3100372
  80.2884338  70.5015035  25.7872452  93.4200428  84.2481857  26.0927019
  93.0267373  83.6948055  26.7674663  94.2366568  84.5592435  26.4833537
  91.3648415  88.0383546  23.0331682  91.9920454  87.6560623  23.6469206
  90.5076334  87.8197748  23.3987375  95.7276286  88.7984517  26.8825543
  95.6273013  89.7478874  26.8137634  95.5097829  88.4702756  26.0101613
  91.7012681  86.1693058  25.0997048  92.5644143  85.8129863  25.3100372
  91.1278092  85.8306952  25.7872452  58.4067507  14.1340973  11.3630724
  58.9507411  14.7470931  10.8685679  57.8254352  14.6920552  11.8797737
  61.7296302  13.5937027  10.6992046  60.9391845  13.5761166  10.1596545
  61.4929656  14.1325321  11.4541082  56.5293566  11.7800740  13.2259481
  57.3984726  11.9541392  12.8646116  56.0500317  12.5995157  13.1035210
  68.1886042  23.4889366   2.6304755  68.8264452  23.3696113   1.9268095
  68.0706885  24.4370210   2.6892707  65.4795531  24.5951646   8.5252486
  65.4684172  24.2004444   7.6532989  65.6416170  23.8617718   9.1186257
  62.2002792  27.3788758   7.4731670  61.9092658  28.2834388   7.3578336
  62.8359776  27.4205285   8.1875739  63.1258999  24.7565606   4.0633029
  63.7222571  24.5321628   3.3489992  63.1833970  24.0150352   4.6658477
  70.6661158  14.8637627   5.0685550  70.3344482  15.7333038   4.8446765
  70.0706771  14.5473911   5.7479581  67.1592677  27.0650173   4.4681463
  66.8593400  27.9675212   4.3597270  66.8143737  26.7982356   5.3202616
  62.1413457  33.8294493  -2.5647569  62.0637487  34.7802318  -2.4859089
  61.5375101  33.4840366  -1.9072643  64.6330687  21.0022359  10.0913798
  63.8564021  21.5616279  10.0816662  65.2721250  21.4879142  10.6128668
  72.4251467  17.7849152   3.9256774  71.7825848  18.0781685   3.2796569
  71.9206396  17.6702072   4.7309971  62.8877059  23.8107812   9.6531765
  63.6291743  24.3492856   9.3766588  62.1814044  24.4374101   9.8103317
  68.3632399  25.9536953   8.2503926  68.7715755  25.5119363   7.5058559
  67.6409660  25.3789580   8.5038119  64.7163469  20.8909559   5.6237483
  65.5624664  21.3148973   5.7672132  64.6562106  20.2343184   6.3176046
  68.6861213  26.5138143   2.0056215  68.0570076  26.6783857   1.3032283
  68.2986875  26.9279753   2.7767179  72.5650445  27.4492581  -0.6399421
  71.8801483  27.8291482  -1.1902388  72.6494294  28.0587908   0.0932527
  67.8662914  18.5513928   7.2818657  67.6223846  19.3055988   6.7452933
  68.1422845  18.9299275   8.1165904  69.8201377  25.0952540   5.9595922
  70.0318272  25.7384300   5.2830304  69.7731125  24.2614857   5.4917853
  61.1313256  25.7984033   2.2086064  61.7014613  26.2271301   1.5703548
  61.7221368  25.5166618   2.9070249  61.6238423  20.9647460  10.4547075
  60.9937083  21.6463741  10.6882472  61.5174511  20.8530542   9.5100213
  70.9347205  27.9724496   4.1318280  71.7564648  27.5704683   3.8500961
  70.9309608  27.8692730   5.0834396  64.7003808  27.5208539   6.2878990
  64.7648241  27.9828946   7.1237162  63.9914732  26.8905904   6.4161300
  60.9019165  15.2668226  12.8172326  60.5086111  14.7134425  13.4919970
  61.7185306  15.5778805  13.2078843  63.8187126  16.6826105  10.4092582
  64.5596840  17.2833258  10.3297045  64.0505049  15.9403743   9.8510625
  58.9628464  21.8682473   8.6870812  58.8481980  20.9667730   8.9877911
  58.1072982  22.1146169   8.3355629  66.0420302  29.8100213  10.2858313
  65.5984156  29.0236591   9.9679217  66.7037516  29.9979363   9.6202204
  60.8007423  31.3396014   4.8118991  61.3514849  31.2113078   4.0395985
  59.9618899  31.6390903   4.4613884  68.1401540  30.0903013   8.3139714
  68.1220016  30.9111894   7.8219983  69.0621460  29.9657088   8.5389855
  64.5974594  27.6047142   9.1563222  65.1302931  26.8435430   8.9262530
  64.0688676  27.3120794   9.8987377  70.9420153  24.9282155   1.7849081
  70.2843828  25.6181417   1.8729209  71.7460552  25.3178587   2.1283067
  70.5187408  28.2632529  -2.0367835  70.0649735  27.4223439  -1.9802644
  69.8881375  28.8993928  -1.6993055  68.9620347  30.1009026  -1.1018017
  69.2543322  30.6614083  -1.8205651  69.4718968  30.3937587  -0.3464858
  63.9253973  30.8789377  -0.0124564  63.8830151  31.1050223  -0.9416032
  64.8416671  30.6452752   0.1361238  67.3719606  21.3473445   6.8856066
  67.7268994  21.5744918   7.7450531  68.0191738  21.6791821   6.2633321
  73.1286723  26.5368408   2.6016666  73.5623230  26.4443697   3.4499720
  73.8418304  26.5125908   1.9636682  66.8614618  30.1370502   4.1349767
  66.9151640  30.7061438   4.9027483  65.9929399  30.3072387   3.7703804
  73.9902273  26.5792108   5.1349552  74.1838163  27.4837919   5.3808826
  73.8902891  26.1199527   5.9688137  65.6438583  16.4649999   7.6339879
  64.9966498  17.1639948   7.5404355  66.4139599  16.8986143   8.0016127
  69.0517381  26.7298851  10.7090432  68.9002888  26.5009403   9.7920516
  69.0422061  27.6869452  10.7221777  65.8202718  24.3030764   5.6936699
  66.7494778  24.4541923   5.5205666  65.3993748  24.3914785   4.8385345
  64.6191049  28.3281428   3.4635236  64.4802135  27.9600213   4.3361174
  63.8305646  28.8429068   3.2919194  66.1696265  27.7063031   0.8524074
  65.8346097  27.6663801   1.7481724  65.6700210  27.0407747   0.3794484
  60.1440508  23.1130661   6.3776655  60.0060306  22.3810900   6.9788194
  61.0545432  23.0239561   6.0960843  62.7722809  22.8250620   5.8660335
  63.4822428  22.1843812   5.8246953  62.7292117  23.0763515   6.7886516
  70.7609588  29.7617974   8.7866914  70.7022134  29.0777194   8.1197497
  71.1629106  30.5036964   8.3347540  61.4851743  19.8115838   7.6855974
  60.9489100  19.3606577   8.3377571  60.8968452  19.9461747   6.9426439
  59.7800287  36.5779887   1.5800633  60.0196885  37.2098412   2.2579651
  58.9369483  36.2267927   1.8665992  70.7626995  27.7257557   7.0180894
  69.8753774  27.3883479   7.1407293  71.3325546  26.9940589   7.2549659
  64.2928148  32.3859010   3.9842137  64.2198320  33.1913981   4.4961441
  63.8505542  32.5850976   3.1590158  64.0817928  31.6230780  -2.5055042
  63.2985450  32.1652460  -2.4116817  64.7810673  32.1404760  -2.1060800
  75.2444336  23.1365775   1.7797455  75.2334212  24.0190490   1.4091388
  74.3761715  22.7837326   1.5851992  66.7526832  32.2845844   6.1400296
  67.4654804  32.9193309   6.0676197  66.2616861  32.3809710   5.3240297
  61.8038746  30.0340287   6.9605866  62.5048205  30.6676770   7.1135261
  61.3333861  30.3755019   6.2001506  69.6040032  22.5884895   4.7858417
  68.9511482  22.8360802   4.1310869  69.9820411  21.7749033   4.4520894
  66.5647205  32.6244588  -1.1113413  66.7469600  31.8066244  -0.6485661
  67.3880191  32.8412280  -1.5488523  65.6527605  23.3304706  11.2724454
  64.9768242  23.2298835  11.9426829  66.4755238  23.1743920  11.7360451
  57.4006464  29.5676642   3.8936969  57.9859900  28.8220330   4.0264873
  57.2031302  29.8780599   4.7773633  60.2545119  32.6027890  -1.0900589
  59.5855494  33.0874017  -1.5736548  60.1157989  32.8497110  -0.1757210
  64.3950387  34.6371633   5.5082070  64.9468695  34.8003255   6.2731155
  64.7356581  35.2276071   4.8362095  58.8467153  19.0569916   9.7576989
  59.4739192  18.6746993  10.3714513  57.9895072  18.8384118  10.1232681
  69.2461262  29.4632891  11.3630724  69.7901166  30.0762849  10.8685679
  68.6648107  30.0212469  11.8797737  67.5318775  32.5853609   2.4945752
  67.4069914  31.7843349   1.9856697  68.1897866  33.0799802   2.0059722
  69.5953683  30.3862629   4.1225302  68.6484019  30.2667980   4.0503629
  69.9436456  29.4985127   4.2051563  61.9553256  16.2756768   7.9463544
  62.4787658  16.5219064   8.7089853  61.7365590  17.1076803   7.5266681
  66.6000116  30.1815345   0.3229654  66.4525079  29.2532053   0.5037224
  67.4253610  30.2035436  -0.1613270  70.2034238  31.0043904   1.4094527
  71.1280786  30.7986765   1.2718978  70.0349542  30.7560305   2.3183869
  69.9929554  31.5229571  -3.2343381  70.1666432  30.9575994  -3.9869529
  70.4858446  32.3230466  -3.4163892  56.5972536  22.6614137   7.7250334
  55.8554272  22.8096772   8.3114965  56.2765280  22.9222402   6.8617084
  64.5416199  32.2030115   7.5230724  64.8503325  31.9579262   8.3953424
  65.3391681  32.4076753   7.0349594  64.5636811  34.3568025  -0.2463899
  64.1241801  33.8644403   0.4468957  65.3144928  33.8140992  -0.4871824
  62.0110683  29.9006034   1.8258402  61.3890692  29.2376739   1.5260630
  62.6815550  29.9267165   1.1432050  62.0835210  18.3787822  11.4190908
  62.1323366  19.2549944  11.0368678  62.6257725  17.8365215  10.8462552
  72.5690056  28.9228945  10.6992046  71.7785600  28.9053084  10.1596545
  72.3323411  29.4617239  11.4541082  72.6887931  25.7721411   8.0124774
  72.7385936  25.6071419   8.9540297  72.5801854  24.9048670   7.6222655
  69.9791694  21.7552339   9.3284081  70.8801556  21.6158804   9.0368079
  70.0539668  21.9206794  10.2682258  64.3134499  19.1319194   8.1737267
  63.4437808  19.4252760   7.9019856  64.5493979  19.7159639   8.8944531
  74.1906128  28.1918353   8.2566796  73.8990936  28.5548333   9.0930257
  73.5778259  27.4785361   8.0780128  72.4393316  23.3150967   6.7246854
  72.9147438  23.5078614   5.9165705  71.5158882  23.3710153   6.4790237
  67.0173533  15.3498811   5.6902687  67.5355477  16.0859838   5.3649176
  66.6628665  15.6562804   6.5249447  71.1394985  20.1916727   4.9575159
  72.0912408  20.2914825   4.9787383  70.9698436  19.3994996   5.4673244
  69.1609365  17.2772311   5.1434560  68.5659297  17.5577323   4.4481049
  68.8759061  17.7666212   5.9151301  73.6183063  23.4122847   4.0717459
  73.5859383  22.4738848   4.2577143  74.2283687  23.4906884   3.3383284
  73.7677551  20.2033891   4.1175742  73.2516600  19.4192347   3.9305671
  74.6517500  19.8752607   4.2822261  77.5174910  22.6146717   3.8097947
  76.7908074  22.4802682   3.2014438  77.1022197  22.9223545   4.6154665
  65.3405086  26.3336646  11.5745320  66.2608096  26.5115245  11.7685366
  65.3054669  25.3892692  11.4225019  58.3367159  24.2437681   4.2168101
  58.5553169  25.1754789   4.2356135  58.7492933  23.8845655   5.0022905
  63.2095024  19.8170887  13.6070850  63.1091751  20.7665244  13.5382941
  62.9916566  19.4889126  12.7346920  63.0726294  23.2468026  12.4235912
  62.5893376  24.0468386  12.6299801  63.1587233  23.2575970  11.4703356
  58.9999632  27.1372560   4.4604345  59.9542885  27.1056503   4.3934277
  58.8012155  26.6763184   5.2754571  59.5899014  25.7073676   7.0275143
  60.4091903  26.2017755   7.0509980  59.8635822  24.7905644   6.9992711
  57.3549861  32.6792180   1.4774543  57.2204329  31.9192581   0.9112541
  56.9381923  33.4033080   1.0103332  60.5118986  33.5761497   1.6892986
  60.3951371  34.5206929   1.5871676  59.6911433  33.2735058   2.0778785
  67.3687320  27.1092658  13.2259481  68.2378480  27.2833310  12.8646116
  66.8894072  27.9287074  13.1035210  61.5373501  34.2289759   4.9048914
  62.4400747  34.2613369   5.2215409  61.3110871  33.2990210   4.9195250
  63.2927103  32.9820745   1.5658993  62.3422734  32.9822607   1.4523365
  63.5959589  32.2353480   1.0495028  59.1831419  17.1879427  11.8242354
  60.0462881  16.8316232  12.0345679  58.6096830  16.8493322  12.5117759
  79.0279796  38.8181284   2.6304755  79.6658206  38.6988031   1.9268095
  78.9100639  39.7662128   2.6892707  75.8369502  38.7708712   2.5666280
  75.4988014  38.6549776   1.6786815  76.7059271  38.3699877   2.5467286
  71.6956318  40.6244188  -1.4436829  71.1321183  40.5334125  -2.2120541
  71.5808713  39.8044093  -0.9634336  76.3189285  39.9243563   8.5252486
  76.3077926  39.5296362   7.6532989  76.4809925  39.1909636   9.1186257
  69.2420750  42.1195380   1.3947391  70.0342042  41.7786204   0.9793691
  69.4817400  42.2290355   2.3149545  77.2755877  44.2915156  -6.1322364
  76.6243857  44.8769236  -6.5188350  78.0700240  44.8221351  -6.0727327
  71.2011504  41.3804293  -5.7335230  71.9742380  40.8333280  -5.8722354
  71.5536903  42.2448542  -5.5220768  73.0396547  42.7080675   7.4731670
  72.7486412  43.6126306   7.3578336  73.6753531  42.7497203   8.1875739
  73.9652753  40.0857524   4.0633029  74.5616326  39.8613546   3.3489992
  74.0227725  39.3442269   4.6658477  78.5821065  36.5432737  -0.2942037
  79.3684154  36.1252161  -0.6451620  78.8459769  37.4478830  -0.1260388
  78.7531142  41.9805588  -5.5953380  78.1176975  42.0540214  -4.8832475
  78.4228548  42.5699187  -6.2734301  73.2574071  39.4425065  -5.8992405
  73.1410329  38.7669968  -5.2311321  73.3676330  38.9557439  -6.7160252
  75.6005611  38.9035212  -2.1945716  75.2363819  38.3765833  -1.4832794
  76.4572727  38.5133681  -2.3679230  81.5054912  30.1929545   5.0685550
  81.1738237  31.0624956   4.8446765  80.9100525  29.8765829   5.7479581
  77.9986432  42.3942091   4.4681463  77.6987155  43.2967130   4.3597270
  77.6537491  42.1274274   5.3202616  71.4498913  38.8455888   0.5018168
  70.5249410  38.7132102   0.7095859  71.6983326  39.6250107   0.9988110
  81.3983575  34.9124631   2.1478901  80.4900453  34.8440039   1.8537662
  81.3471171  35.3896576   2.9760726  75.2200319  36.3882769  -6.2137700
  75.0999944  36.8339820  -5.3752220  74.5252908  36.7368087  -6.7724162
  68.8107724  38.4889161   1.3361957  68.9400105  38.7423640   2.2501368
  68.1305175  39.0816869   1.0166612  72.9807211  49.1586411  -2.5647569
  72.9031241  50.1094236  -2.4859089  72.3768855  48.8132284  -1.9072643
  75.4724441  36.3314277  10.0913798  74.6957775  36.8908197  10.0816662
  76.1115004  36.8171059  10.6128668  83.2645222  33.1141069   3.9256774
  82.6219602  33.4073602   3.2796569  82.7600150  32.9993990   4.7309971
  73.7270813  39.1399730   9.6531765  74.4685498  39.6784774   9.3766588
  73.0207799  39.7666019   9.8103317  79.2026153  41.2828870   8.2503926
  79.6109509  40.8411281   7.5058559  78.4803415  40.7081498   8.5038119
  75.5557223  36.2201477   5.6237483  76.4018418  36.6440891   5.7672132
  75.4955861  35.5635101   6.3176046  79.5254968  41.8430061   2.0056215
  78.8963830  42.0075775   1.3032283  79.1380630  42.2571671   2.7767179
  83.4044200  42.7784499  -0.6399421  82.7195238  43.1583400  -1.1902388
  83.4888049  43.3879825   0.0932527  78.7056668  33.8805845   7.2818657
  78.4617600  34.6347906   6.7452933  78.9816599  34.2591193   8.1165904
  80.6595131  40.4244458   5.9595922  80.8712027  41.0676218   5.2830304
  80.6124880  39.5906774   5.4917853  78.2621360  33.0362278   2.8632495
  77.4005839  33.3343532   3.1549232  78.2883795  33.2532677   1.9313527
  75.0782930  41.5804469  -0.7293700  75.5421275  41.8592172  -1.5189077
  74.8139728  40.6787914  -0.9120609  71.9707011  41.1275951   2.2086064
  72.5408368  41.5563219   1.5703548  72.5615123  40.8458535   2.9070249
  74.0151816  37.7027621  -3.9204135  74.7175859  38.1548665  -3.4530208
  73.6832444  37.0611440  -3.2924241  72.4632177  36.2939378  10.4547075
  71.8330838  36.9755659  10.6882472  72.3568265  36.1822460   9.5100213
  67.7577150  35.9611174   1.3812999  66.9676204  36.2168703   0.9053110
  68.2488397  36.7759512   1.4865040  81.7740959  43.3016413   4.1318280
  82.5958403  42.8996601   3.8500961  81.7703362  43.1984647   5.0834396
  69.7091895  36.3255753  -1.6603524  68.9123058  36.4374448  -1.1420029
  69.4817487  36.6642406  -2.5262634  75.5397563  42.8500457   6.2878990
  75.6041995  43.3120864   7.1237162  74.8308487  42.2197821   6.4161300
  66.0414853  36.2141665   3.8127990  66.2922891  37.0988674   4.0785566
  66.5774401  36.0346266   3.0403082  75.2545580  44.5168564  -3.8442029
  75.1191255  45.3620100  -3.4157182  75.7955393  44.7187842  -4.6076096
  71.7412920  30.5960144  12.8172326  71.3479866  30.0426342  13.4919970
  72.5579060  30.9070722  13.2078843  68.7074978  42.0344002  -3.2714104
  69.2199498  42.8287252  -3.1208540  69.3597691  41.3370293  -3.3380503
  70.5169862  45.1509758  -1.1891351  70.6936491  46.0727723  -1.3770367
  71.3126696  44.8368178  -0.7596971  74.6580881  32.0118023  10.4092582
  75.3990594  32.6125176  10.3297045  74.8898804  31.2695661   9.8510625
  69.8022219  37.1974390   8.6870812  69.6875734  36.2959647   8.9877911
  68.9466737  37.4438087   8.3355629  76.8814057  45.1392131  10.2858313
  76.4377911  44.3528509   9.9679217  77.5431270  45.3271281   9.6202204
  71.6401178  46.6687932   4.8118991  72.1908603  46.5404995   4.0395985
  70.8012654  46.9682821   4.4613884  78.9795295  45.4194930   8.3139714
  78.9613770  46.2403812   7.8219983  79.9015215  45.2949006   8.5389855
  75.4368349  42.9339060   9.1563222  75.9696686  42.1727348   8.9262530
  74.9082430  42.6412712   9.8987377  78.6038044  28.0399126   4.6856864
  78.2602313  28.9300768   4.6095975  78.9717006  27.8500784   3.8226449
  66.6723894  40.3632656  -2.4954534  67.5099116  40.7729665  -2.7120826
  66.8502162  39.4232099  -2.5254340  76.1535438  32.8757438  -1.7485462
  75.2977034  32.4864288  -1.9279824  76.5662389  32.9549399  -2.6085677
  77.6834584  30.4103781   2.6506097  77.1799380  30.3733916   1.8373903
  77.9765191  31.3196524   2.7102754  73.9277470  30.4942511   1.6572279
  74.7930467  30.2985319   1.2978169  73.9954979  30.2652863   2.5841636
  76.8021062  42.0625052  -3.3317966  76.2742423  41.3277812  -3.6444728
  76.3008564  42.8399729  -3.5777997  81.7813908  40.2574073   1.7849081
  81.1237582  40.9473334   1.8729209  82.5854307  40.6470505   2.1283067
  71.5339789  32.7244719  -0.9711354  72.1083541  32.5019900  -1.7038161
  72.1210772  32.7933413  -0.2182753  80.5919366  38.6118446  -0.1646978
  81.1051248  39.2448437   0.3374732  81.2420590  38.0119641  -0.5303618
  73.8362457  29.5985968  -2.2436285  73.1826869  29.2834985  -2.8679670
  73.7942931  28.9761708  -1.5176462  77.0700197  36.0867901   2.0811363
  76.1522759  36.3082848   1.9233051  77.4860341  36.1614212   1.2223070
  77.8535245  37.4859317  -2.7885957  78.6007064  37.9980714  -3.0978835
  78.1226835  37.1643370  -1.9281563  76.1261895  39.9817858  -5.8059002
  75.2173115  39.6976890  -5.7086533  76.1556979  40.4016936  -6.6655696
  81.3581163  43.5924447  -2.0367835  80.9043490  42.7515357  -1.9802644
  80.7275129  44.2285845  -1.6993055  79.8014102  45.4300944  -1.1018017
  80.0937076  45.9906001  -1.8205651  80.3112722  45.7229505  -0.3464858
  66.6950066  37.7023372  -1.8243800  66.4974465  37.1092732  -2.5492734
  66.1396730  37.3975582  -1.1067862  74.6746789  37.5946478   0.2950793
  74.7295399  36.6420315   0.2193269  73.8637991  37.7505917   0.7792091
  72.6139149  36.2123538  -1.9458828  71.8007015  36.5117708  -1.5393636
  73.1098143  35.8179227  -1.2284346  74.7647727  46.2081295  -0.0124564
  74.7223906  46.4342141  -0.9416032  75.6810426  45.9744669   0.1361238
  78.2113361  36.6765362   6.8856066  78.5662749  36.9036836   7.7450531
  78.8585492  37.0083739   6.2633321  72.1053224  33.7841893   3.6702407
  72.7452603  33.6430653   2.9725370  71.2730755  33.4976407   3.2941009
  83.9680477  41.8660325   2.6016666  84.4016984  41.7735614   3.4499720
  84.6812058  41.8417826   1.9636682  72.8813528  43.0844324  -0.2162601
  73.6754126  42.5894644  -0.4180026  72.1705220  42.5562187  -0.5794895
  77.7008372  45.4662419   4.1349767  77.7545395  46.0353356   4.9027483
  76.8323154  45.6364304   3.7703804  69.1896291  37.2287406  -4.1402848
  68.2593879  37.1671861  -3.9232886  69.2853763  36.7063358  -4.9366207
  69.1081840  33.7542218  -1.5524607  69.3688658  34.6687552  -1.6615446
  69.9299013  33.2866661  -1.4027994  70.5806766  35.1679976   5.6174218
  71.2529819  34.9597338   4.9686867  69.7536552  34.9702062   5.1779450
  84.8296027  41.9084026   5.1349552  85.0231917  42.8129836   5.3808826
  84.7296645  41.4491445   5.9688137  76.4832338  31.7941917   7.6339879
  75.8360253  32.4931866   7.5404355  77.2533353  32.2278060   8.0016127
  79.8911136  42.0590769  10.7090432  79.7396642  41.8301320   9.7920516
  79.8815815  43.0161370  10.7221777  76.6596472  39.6322681   5.6936699
  77.5888532  39.7833841   5.5205666  76.2387502  39.7206702   4.8385345
  75.4584804  43.6573346   3.4635236  75.3195890  43.2892130   4.3361174
  74.6699400  44.1720985   3.2919194  76.0532956  48.7582442  -5.1939227
  76.2284712  48.2870486  -4.3793605  75.3665744  49.3848209  -4.9657967
  77.0090019  43.0354949   0.8524074  76.6739852  42.9955719   1.7481724
  76.5093965  42.3699664   0.3794484  70.9834263  38.4422579   6.3776655
  70.8454061  37.7102817   6.9788194  71.8939186  38.3531479   6.0960843
  73.6116564  38.1542538   5.8660335  74.3216182  37.5135730   5.8246953
  73.5685872  38.4055433   6.7886516  81.6003342  45.0909891   8.7866914
  81.5415888  44.4069111   8.1197497  82.0022861  45.8328881   8.3347540
  72.3245498  35.1407756   7.6855974  71.7882855  34.6898494   8.3377571
  71.7362206  35.2753665   6.9426439  70.6194041  51.9071805   1.5800633
  70.8590639  52.5390329   2.2579651  69.7763238  51.5559845   1.8665992
  81.6020750  43.0549475   7.0180894  80.7147528  42.7175397   7.1407293
  82.1719301  42.3232506   7.2549659  63.2549897  39.3873567   0.3423945
  63.9420937  39.0735297  -0.2455040  63.0998025  40.2914932   0.0691197
  68.0584619  34.2763763   4.7708969  67.9742808  33.6689433   4.0359379
  67.2367325  34.7672782   4.7718465  75.1321903  47.7150928   3.9842137
  75.0592074  48.5205899   4.4961441  74.6899296  47.9142893   3.1590158
  74.9211683  46.9522698  -2.5055042  74.1379204  47.4944378  -2.4116817
  75.6204428  47.4696677  -2.1060800  78.2308333  32.7617327   0.1379164
  78.7277032  32.0087289  -0.1819766  77.4595314  32.7981644  -0.4277627
  86.0838090  38.4657693   1.7797455  86.0727966  39.3482408   1.4091388
  85.2155470  38.1129243   1.5851992  77.5920587  47.6137762   6.1400296
  78.3048559  48.2485226   6.0676197  77.1010615  47.7101628   5.3240297
  79.3138113  41.5189014  -2.2882413  78.3794392  41.6390477  -2.4577708
  79.4914782  40.6161481  -2.5522403  74.8143301  34.9034710  -0.1349152
  74.4441089  34.3505750   0.5531754  75.3102394  34.2992843  -0.6874152
  72.6432500  45.3632205   6.9605866  73.3441960  45.9968688   7.1135261
  72.1727615  45.7046937   6.2001506  80.7686896  43.7050155  -4.7546227
  81.0446740  43.5906749  -3.8452353  79.8991395  43.3067640  -4.7934054
  80.6727328  29.7286920   2.2858523  79.7590407  29.9591147   2.4540730
  81.1020429  29.8125365   3.1372555  80.4433786  37.9176812   4.7858417
  79.7905236  38.1652720   4.1310869  80.8214166  37.1040951   4.4520894
  77.4040960  47.9536506  -1.1113413  77.5863354  47.1358162  -0.6485661
  78.2273946  48.1704198  -1.5488523  77.7383125  46.8804691  -3.8498364
  78.2670892  46.3697145  -4.4628202  78.0011345  46.5647221  -2.9852831
  76.4921359  38.6596624  11.2724454  75.8161996  38.5590753  11.9426829
  77.3148993  38.5035837  11.7360451  68.2400218  44.8968560   3.8936969
  68.8253655  44.1512248   4.0264873  68.0425057  45.2072517   4.7773633
  71.0938873  47.9319807  -1.0900589  70.4249249  48.4165935  -1.5736548
  70.9551743  48.1789028  -0.1757210  62.8317873  37.4674160   2.6141412
  62.8701972  36.9337751   3.4078530  62.3258166  36.9409366   1.9952389
  75.2344142  49.9663551   5.5082070  75.7862450  50.1295172   6.2731155
  75.5750335  50.5567989   4.8362095  70.2108635  32.3138701   6.1103955
  70.2749962  33.1753532   5.6981352  70.1475755  31.7012702   5.3776313
  69.6860908  34.3861833   9.7576989  70.3132946  34.0038911  10.3714513
  68.8288827  34.1676035  10.1232681  80.0855016  44.7924808  11.3630724
  80.6294920  45.4054767  10.8685679  79.5041861  45.3504387  11.8797737
  66.4626450  36.1938262  -4.3104656  66.7579891  35.2848941  -4.3637603
  65.5614486  36.1726002  -4.6323654  78.3712529  47.9145526   2.4945752
  78.2463669  47.1135266   1.9856697  79.0291620  48.4091720   2.0059722
  69.9920697  34.2694259   1.6722892  69.2707283  34.8830227   1.5330366
  70.7813953  34.8052024   1.5939538  80.4347438  45.7154547   4.1225302
  79.4877773  45.5959898   4.0503629  80.7830211  44.8277045   4.2051563
  72.7947011  31.6048686   7.9463544  73.3181413  31.8510982   8.7089853
  72.5759344  32.4368720   7.5266681  68.1914292  33.8752360  -4.1865331
  67.8626998  32.9949739  -4.3690225  68.5453663  33.8200029  -3.2988942
  77.4393871  45.5107263   0.3229654  77.2918833  44.5823970   0.5037224
  78.2647364  45.5327354  -0.1613270  71.3056115  34.1625330  -3.8189854
  71.6452188  34.6911251  -4.5411245  71.7528236  34.5005736  -3.0431287
  81.0427993  46.3335822   1.4094527  81.9674540  46.1278683   1.2718978
  80.8743296  46.0852223   2.3183869  73.9999556  32.5462381   5.6313214
  73.6596376  31.7470194   6.0333894  73.2938562  32.8464091   5.0590048
  74.6516028  29.6311693   4.0840538  75.4742097  29.1572171   3.9619428
  74.8954091  30.4102177   4.5839224  72.1754607  36.3230814   1.8932516
  72.0299187  36.6371117   2.7856798  71.6979810  36.9415714   1.3403415
  74.0350989  33.3133362   1.9413406  74.0212558  32.4174455   1.6045704
  74.7523418  33.3204025   2.5751692  75.8877120  33.7470702   3.9866533
  75.6294898  34.6687773   3.9850864  75.3562161  33.3501136   4.6766997
  80.8323309  46.8521489  -3.2343381  81.0060186  46.2867911  -3.9869529
  81.3252200  47.6522384  -3.4163892  66.6500269  38.8636158   4.8320177
  66.1053737  39.6395966   4.9640452  67.5279619  39.2106963   4.6739299
  73.4387885  32.1947742  -2.7899024  73.5603797  31.2664388  -2.5908137
  73.1489928  32.2086428  -3.7020709  76.3079076  29.8802652   0.3467696
  76.3300773  29.9441985  -0.6080325  76.7247135  29.0407161   0.5408202
  67.4366291  37.9906054   7.7250334  66.6948027  38.1388690   8.3114965
  67.1159035  38.2514320   6.8617084  75.3809953  47.5322033   7.5230724
  75.6897080  47.2871179   8.3953424  76.1785435  47.7368671   7.0349594
  75.4030565  49.6859942  -0.2463899  74.9635556  49.1936321   0.4468957
  76.1538682  49.1432910  -0.4871824  67.8822904  45.8771483  -0.2439271
  68.7080924  45.5775255  -0.6240628  67.5316956  45.1079105   0.2050517
  72.8504437  45.2297951   1.8258402  72.2284447  44.5668656   1.5260630
  73.5209304  45.2559083   1.1432050  66.0831509  43.7957810   0.7149662
  65.2463418  43.3679984   0.5333664  66.0555155  43.9890253   1.6520454
  72.9228965  33.7079739  11.4190908  72.9717120  34.5841862  11.0368678
  73.4651479  33.1657132  10.8462552  83.4083811  44.2520863  10.6992046
  82.6179354  44.2345001  10.1596545  83.1717165  44.7909156  11.4541082
  83.5281686  41.1013329   8.0124774  83.5779691  40.9363336   8.9540297
  83.4195609  40.2340588   7.6222655  72.4117944  43.7801875  -4.6983137
  72.5606065  44.4637339  -5.3516464  73.2184388  43.7606965  -4.1833681
  80.8185448  37.0844257   9.3284081  81.7195311  36.9450722   9.0368079
  80.8933423  37.2498712  10.2682258  75.1528253  34.4611112   8.1737267
  74.2831563  34.7544678   7.9019856  75.3887734  35.0451557   8.8944531
  85.0299882  43.5210270   8.2566796  84.7384691  43.8840251   9.0930257
  84.4172014  42.8077279   8.0780128  83.2787071  38.6442885   6.7246854
  83.7541192  38.8370531   5.9165705  82.3552636  38.7002071   6.4790237
  70.1670577  39.8067052  -3.6922068  69.9216619  38.9029382  -3.4941858
  70.3366492  39.8084203  -4.6342590  77.8567287  30.6790729   5.6902687
  78.3749231  31.4151756   5.3649176  77.5022420  30.9854722   6.5249447
  81.9788740  35.5208645   4.9575159  82.9306163  35.6206743   4.9787383
  81.8092190  34.7286914   5.4673244  80.0003119  32.6064228   5.1434560
  79.4053051  32.8869241   4.4481049  79.7152816  33.0958129   5.9151301
  84.4576817  38.7414765   4.0717459  84.4253138  37.8030766   4.2577143
  85.0677441  38.8198802   3.3383284  84.6071306  35.5325808   4.1175742
  84.0910355  34.7484265   3.9305671  85.4911255  35.2044525   4.2822261
  88.3568664  37.9438634   3.8097947  87.6301828  37.8094599   3.2014438
  87.9415951  38.2515463   4.6154665  76.1798841  41.6628564  11.5745320
  77.1001850  41.8407163  11.7685366  76.1448424  40.7184609  11.4225019
  65.3981006  36.8567158   0.4998594  65.0783790  36.0032466   0.2072968
  64.8514434  37.0715736   1.2556562  69.1760913  39.5729599   4.2168101
  69.3946923  40.5046706   4.2356135  69.5886687  39.2137573   5.0022905
  74.0488779  35.1462804  13.6070850  73.9485506  36.0957161  13.5382941
  73.8310321  34.8181043  12.7346920  65.2669266  40.4770069   2.4691716
  64.5732737  40.0624022   1.9561670  66.0142257  40.5190606   1.8725135
  73.9120049  38.5759943  12.4235912  73.4287131  39.3760303  12.6299801
  73.9980988  38.5867888  11.4703356  67.1806008  40.4088323   0.3457731
  67.1576697  40.5076010  -0.6060386  67.4906645  41.2553474   0.6674897
  69.8393386  42.4664478   4.4604345  70.7936640  42.4348420   4.3934277
  69.6405910  42.0055102   5.2754571  70.4292768  41.0365594   7.0275143
  71.2485657  41.5309673   7.0509980  70.7029576  40.1197562   6.9992711
  68.1943615  48.0084097   1.4774543  68.0598083  47.2484498   0.9112541
  67.7775677  48.7324997   1.0103332  71.3512741  48.9053414   1.6892986
  71.2345125  49.8498847   1.5871676  70.5305187  48.6026976   2.0778785
  65.6827683  35.3703728   7.7267340  66.3286546  34.8602682   8.2154565
  65.4744834  36.1072409   8.3010765  78.2081075  42.4384575  13.2259481
  79.0772234  42.6125228  12.8646116  77.7287826  43.2578992  13.1035210
  72.3767255  49.5581676   4.9048914  73.2794502  49.5905287   5.2215409
  72.1504625  48.6282127   4.9195250  74.1320857  48.3112663   1.5658993
  73.1816488  48.3114524   1.4523365  74.4353343  47.5645397   1.0495028
  70.0225174  32.5171345  11.8242354  70.8856635  32.1608150  12.0345679
  69.4490584  32.1785240  12.5117759  86.6763257  54.1000629   2.5666280
  86.3381768  53.9841694   1.6786815  87.5453025  53.6991794   2.5467286
  87.1583040  55.2535481   8.5252486  87.1471681  54.8588279   7.6532989
  87.3203679  54.5201554   9.1186257  80.0814505  57.4487297   1.3947391
  80.8735796  57.1078122   0.9793691  80.3211155  57.5582272   2.3149545
  83.8790301  58.0372593   7.4731670  83.5880167  58.9418224   7.3578336
  84.5147285  58.0789121   8.1875739  84.8046508  55.4149441   4.0633029
  85.4010080  55.1905464   3.3489992  84.8621479  54.6734187   4.6658477
  92.3448667  45.5221462   5.0685550  92.0131991  46.3916873   4.8446765
  91.7494280  45.2057746   5.7479581  82.2892668  54.1747805   0.5018168
  81.3643164  54.0424019   0.7095859  82.5377081  54.9542024   0.9988110
  92.2377330  50.2416549   2.1478901  91.3294207  50.1731957   1.8537662
  92.1864926  50.7188494   2.9760726  79.6501479  53.8181079   1.3361957
  79.7793860  54.0715558   2.2501368  78.9698930  54.4108787   1.0166612
  86.3118196  51.6606194  10.0913798  85.5351530  52.2200114  10.0816662
  86.9508759  52.1462977  10.6128668  94.1038976  48.4432987   3.9256774
  93.4613357  48.7365520   3.2796569  93.5993905  48.3285907   4.7309971
  84.5664568  54.4691648   9.6531765  85.3079252  55.0076692   9.3766588
  83.8601553  55.0957936   9.8103317  90.0419908  56.6120788   8.2503926
  90.4503264  56.1703199   7.5058559  89.3197169  56.0373416   8.5038119
  86.3950978  51.5493395   5.6237483  87.2412173  51.9732808   5.7672132
  86.3349615  50.8927019   6.3176046  89.5450423  49.2097763   7.2818657
  89.3011355  49.9639824   6.7452933  89.8210353  49.5883111   8.1165904
  91.4988886  55.7536376   5.9595922  91.7105781  56.3968135   5.2830304
  91.4518634  54.9198692   5.4917853  89.1015115  48.3654196   2.8632495
  88.2399594  48.6635450   3.1549232  89.1277549  48.5824595   1.9313527
  83.3025932  51.6231296  10.4547075  82.6724592  52.3047577  10.6882472
  83.1962020  51.5114377   9.5100213  78.5970904  51.2903092   1.3812999
  77.8069958  51.5460620   0.9053110  79.0882152  52.1051430   1.4865040
  86.3791317  58.1792374   6.2878990  86.4435750  58.6412781   7.1237162
  85.6702241  57.5489739   6.4161300  76.8808607  51.5433582   3.8127990
  77.1316646  52.4280592   4.0785566  77.4168156  51.3638184   3.0403082
  82.5806674  45.9252062  12.8172326  82.1873620  45.3718260  13.4919970
  83.3972815  46.2362640  13.2078843  85.4974635  47.3409941  10.4092582
  86.2384349  47.9417094  10.3297045  85.7292558  46.5987578   9.8510625
  80.6415973  52.5266308   8.6870812  80.5269489  51.6251565   8.9877911
  79.7860491  52.7730005   8.3355629  87.7207811  60.4684048  10.2858313
  87.2771665  59.6820427   9.9679217  88.3825025  60.6563199   9.6202204
  89.8189049  60.7486848   8.3139714  89.8007525  61.5695729   7.8219983
  90.7408969  60.6240923   8.5389855  86.2762103  58.2630978   9.1563222
  86.8090440  57.5019266   8.9262530  85.7476185  57.9704629   9.8987377
  89.4431798  43.3691044   4.6856864  89.0996068  44.2592685   4.6095975
  89.8110761  43.1792701   3.8226449  88.5228339  45.7395699   2.6506097
  88.0193134  45.7025834   1.8373903  88.8158946  46.6488441   2.7102754
  84.7671225  45.8234428   1.6572279  85.6324221  45.6277237   1.2978169
  84.8348734  45.5944780   2.5841636  82.3733544  48.0536636  -0.9711354
  82.9477296  47.8311818  -1.7038161  82.9604526  48.1225331  -0.2182753
  84.6756211  44.9277885  -2.2436285  84.0220624  44.6126902  -2.8679670
  84.6336686  44.3053626  -1.5176462  87.9093952  51.4159819   2.0811363
  86.9916513  51.6374766   1.9233051  88.3254095  51.4906129   1.2223070
  77.5343820  53.0315289  -1.8243800  77.3368220  52.4384650  -2.5492734
  76.9790484  52.7267500  -1.1067862  85.5140544  52.9238396   0.2950793
  85.5689154  51.9712232   0.2193269  84.7031746  53.0797835   0.7792091
  89.0507115  52.0057280   6.8856066  89.4056503  52.2328753   7.7450531
  89.6979247  52.3375657   6.2633321  82.9446978  49.1133811   3.6702407
  83.5846358  48.9722570   2.9725370  82.1124509  48.8268325   3.2941009
  79.9475595  49.0834136  -1.5524607  80.2082412  49.9979469  -1.6615446
  80.7692767  48.6158579  -1.4027994  81.4200520  50.4971893   5.6174218
  82.0923574  50.2889255   4.9686867  80.5930307  50.2993979   5.1779450
  87.3226092  47.1233834   7.6339879  86.6754007  47.8223784   7.5404355
  88.0927108  47.5569978   8.0016127  90.7304890  57.3882686  10.7090432
  90.5790397  57.1593238   9.7920516  90.7209570  58.3453288  10.7221777
  87.4990227  54.9614599   5.6936699  88.4282287  55.1125759   5.5205666
  87.0781257  55.0498620   4.8385345  81.8228017  53.7714496   6.3776655
  81.6847815  53.0394735   6.9788194  82.7332941  53.6823396   6.0960843
  84.4510318  53.4834456   5.8660335  85.1609937  52.8427648   5.8246953
  84.4079626  53.7347350   6.7886516  92.4397097  60.4201809   8.7866914
  92.3809643  59.7361029   8.1197497  92.8416615  61.1620799   8.3347540
  83.1639252  50.4699673   7.6855974  82.6276609  50.0190412   8.3377571
  82.5755961  50.6045582   6.9426439  92.4414504  58.3841393   7.0180894
  91.5541283  58.0467315   7.1407293  93.0113055  57.6524424   7.2549659
  74.0943651  54.7165485   0.3423945  74.7814691  54.4027215  -0.2455040
  73.9391780  55.6206849   0.0691197  78.8978373  49.6055681   4.7708969
  78.8136562  48.9981351   4.0359379  78.0761080  50.0964699   4.7718465
  89.0702087  48.0909245   0.1379164  89.5670787  47.3379207  -0.1819766
  88.2989069  48.1273561  -0.4277627  85.6537056  50.2326628  -0.1349152
  85.2834843  49.6797668   0.5531754  86.1496148  49.6284761  -0.6874152
  83.4826255  60.6924123   6.9605866  84.1835714  61.3260606   7.1135261
  83.0121370  61.0338854   6.2001506  91.5121082  45.0578838   2.2858523
  90.5984162  45.2883065   2.4540730  91.9414183  45.1417282   3.1372555
  91.2827540  53.2468730   4.7858417  90.6298991  53.4944638   4.1310869
  91.6607920  52.4332868   4.4520894  87.3315114  53.9888541  11.2724454
  86.6555751  53.8882671  11.9426829  88.1542747  53.8327755  11.7360451
  79.0793973  60.2260478   3.8936969  79.6647409  59.4804166   4.0264873
  78.8818811  60.5364434   4.7773633  73.6711627  52.7966078   2.6141412
  73.7095727  52.2629669   3.4078530  73.1651920  52.2701283   1.9952389
  81.0502390  47.6430618   6.1103955  81.1143716  48.5045449   5.6981352
  80.9869510  47.0304620   5.3776313  80.5254662  49.7153751   9.7576989
  81.1526701  49.3330828  10.3714513  79.6682581  49.4967953  10.1232681
  90.9248771  60.1216726  11.3630724  91.4688675  60.7346684  10.8685679
  90.3435616  60.6796305  11.8797737  80.8314452  49.5986177   1.6722892
  80.1101038  50.2122144   1.5330366  81.6207708  50.1343942   1.5939538
  83.6340765  46.9340603   7.9463544  84.1575167  47.1802900   8.7089853
  83.4153099  47.7660638   7.5266681  79.0308046  49.2044278  -4.1865331
  78.7020753  48.3241657  -4.3690225  79.3847417  49.1491946  -3.2988942
  84.8393310  47.8754298   5.6313214  84.4990131  47.0762111   6.0333894
  84.1332317  48.1756009   5.0590048  85.4909782  44.9603611   4.0840538
  86.3135852  44.4864089   3.9619428  85.7347846  45.7394094   4.5839224
  83.0148361  51.6522731   1.8932516  82.8692942  51.9663034   2.7856798
  82.5373565  52.2707632   1.3403415  84.8744744  48.6425279   1.9413406
  84.8606313  47.7466373   1.6045704  85.5917172  48.6495943   2.5751692
  86.7270875  49.0762620   3.9866533  86.4688652  49.9979690   3.9850864
  86.1955915  48.6793054   4.6766997  77.4894023  54.1928076   4.8320177
  76.9447491  54.9687884   4.9640452  78.3673373  54.5398880   4.6739299
  87.1472830  45.2094570   0.3467696  87.1694527  45.2733903  -0.6080325
  87.5640889  44.3699079   0.5408202  78.2760045  53.3197972   7.7250334
  77.5341781  53.4680607   8.3114965  77.9552789  53.5806238   6.8617084
  86.2203708  62.8613950   7.5230724  86.5290834  62.6163097   8.3953424
  87.0179190  63.0660589   7.0349594  76.9225264  59.1249727   0.7149662
  76.0857172  58.6971902   0.5333664  76.8948909  59.3182171   1.6520454
  83.7622719  49.0371657  11.4190908  83.8110875  49.9133780  11.0368678
  84.3045234  48.4949050  10.8462552  94.2477565  59.5812780  10.6992046
  93.4573109  59.5636919  10.1596545  94.0110920  60.1201074  11.4541082
  94.3675440  56.4305247   8.0124774  94.4173445  56.2655254   8.9540297
  94.2589363  55.5632506   7.6222655  91.6579203  52.4136175   9.3284081
  92.5589065  52.2742639   9.0368079  91.7327177  52.5790629  10.2682258
  85.9922008  49.7903029   8.1737267  85.1225317  50.0836595   7.9019856
  86.2281488  50.3743474   8.8944531  95.8693637  58.8502188   8.2566796
  95.5778445  59.2132169   9.0930257  95.2565768  58.1369196   8.0780128
  94.1180825  53.9734803   6.7246854  94.5934947  54.1662449   5.9165705
  93.1946391  54.0293989   6.4790237  88.6961042  46.0082646   5.6902687
  89.2142986  46.7443673   5.3649176  88.3416174  46.3146640   6.5249447
  92.8182494  50.8500563   4.9575159  93.7699917  50.9498661   4.9787383
  92.6485945  50.0578831   5.4673244  90.8396874  47.9356146   5.1434560
  90.2446806  48.2161159   4.4481049  90.5546570  48.4250047   5.9151301
  95.4465060  50.8617726   4.1175742  94.9304109  50.0776183   3.9305671
  96.3305009  50.5336443   4.2822261  87.0192595  56.9920482  11.5745320
  87.9395605  57.1699081  11.7685366  86.9842178  56.0476527  11.4225019
  76.2374760  52.1859075   0.4998594  75.9177545  51.3324383   0.2072968
  75.6908189  52.4007653   1.2556562  80.0154668  54.9021516   4.2168101
  80.2340678  55.8338624   4.2356135  80.4280442  54.5429491   5.0022905
  84.8882533  50.4754722  13.6070850  84.7879260  51.4249079  13.5382941
  84.6704075  50.1472961  12.7346920  76.1063020  55.8061987   2.4691716
  75.4126492  55.3915940   1.9561670  76.8536011  55.8482523   1.8725135
  84.7513803  53.9051861  12.4235912  84.2680885  54.7052221  12.6299801
  84.8374742  53.9159806  11.4703356  78.0199763  55.7380241   0.3457731
  77.9970451  55.8367928  -0.6060386  78.3300399  56.5845391   0.6674897
  80.6787141  57.7956396   4.4604345  81.6330394  57.7640338   4.3934277
  80.4799664  57.3347019   5.2754571  81.2686523  56.3657512   7.0275143
  82.0879412  56.8601590   7.0509980  81.5423331  55.4489480   6.9992711
  76.5221437  50.6995646   7.7267340  77.1680301  50.1894599   8.2154565
  76.3138588  51.4364327   8.3010765  89.0474829  57.7676493  13.2259481
  89.9165989  57.9417145  12.8646116  88.5681581  58.5870910  13.1035210
  80.8618928  47.8463263  11.8242354  81.7250390  47.4900067  12.0345679
  80.2884339  47.5077157  12.5117759  93.4200429  61.2543979  12.8172326
  93.0267374  60.7010178  13.4919970  94.2366569  61.5654558  13.2078843
  91.3648417  65.0445669   9.7576989  91.9920455  64.6622746  10.3714513
  90.5076335  64.8259871  10.1232681  95.7276288  65.8046640  13.6070850
  95.6273015  66.7540997  13.5382941  95.5097830  65.4764879  12.7346920
  91.7012683  63.1755180  11.8242354  92.5644144  62.8191985  12.0345679
  91.1278093  62.8369075  12.5117759   3.1496910  77.9684960  66.8576715
   2.3960618  77.3992358  66.7020719   3.2844451  77.9347625  67.8047350
   3.5603325  78.1260570  69.5896959   4.2906714  77.8645858  70.1504663
   2.9510271  77.3889292  69.6299027   1.6418622  76.2668433  70.1871411
   0.9151786  76.1324398  69.5787902   1.2265909  76.5745262  70.9928129
   1.5667490  75.7946486  66.3148263   1.0067048  75.8639675  67.0879825
   0.9610993  75.6187471  65.5947760   2.7064777  90.1954454  66.0831427
   3.4927866  89.7773877  65.7321844   2.9703481  91.1000546  66.2513075
   8.1073204  90.1329687  66.9864406   8.8398376  89.5628904  67.2202235
   7.3512560  89.7451287  67.4270911   5.6298624  83.8451261  71.4459014
   5.2981949  84.7146672  71.2220229   5.0344238  83.5287545  72.1253045
   5.5227288  88.5646347  68.5252364   4.6144165  88.4961756  68.2311125
   5.4714883  89.0418292  69.3534190   7.3888934  86.7662786  70.3030238
   6.7463314  87.0595319  69.6570033   6.8843863  86.6515706  71.1083435
   5.0429098  90.5125959  60.9916097   5.9546954  90.7453346  60.8163795
   4.5338745  91.0963003  60.4291176   2.8300381  87.5327562  73.6592121
   2.5861313  88.2869622  73.1226396   3.1060311  87.9112909  74.4939368
   2.3865073  86.6883995  69.2405958   1.5249552  86.9865248  69.5322696
   2.4127507  86.9054394  68.3086991  13.9890665  93.2976878  66.8576715
  13.2354373  92.7284276  66.7020719  14.1238206  93.2639543  67.8047350
   2.7281756  81.6920842  71.0630328   2.3846026  82.5822484  70.9869438
   3.0960719  81.5022500  70.1999913   2.6932039  91.6829453  59.5702763
   2.1778662  92.4534058  59.8091150   2.4209347  91.0094589  60.1935824
   1.8078297  84.0625497  69.0279561   1.3043092  84.0255633  68.2147366
   2.1008903  84.9718240  69.0876218   7.6666313  94.4361808  61.5055936
   6.8895756  94.0972967  61.0611099   8.3457794  94.4414431  60.8310901
   2.4818342  89.5556545  61.3962544   2.1768478  89.8702695  62.2472687
   3.4348784  89.6337965  61.4389877   4.7163079  92.2640162  66.2126486
   5.2294960  92.8970154  66.7148196   5.3664303  91.6641357  65.8469846
   1.9778957  91.1381033  63.5887507   2.7250776  91.6502430  63.2794629
   2.2470547  90.8165086  64.4491901   4.4257795  88.1738149  65.5706296
   3.6880551  87.6615536  65.9016539   4.6784568  87.7338531  64.7589573
   4.5269422  80.9514401  66.1648066   4.8328299  80.0911765  65.8773981
   5.2522027  81.5432022  65.9647059   2.3357073  90.3287079  73.2629529
   2.6906461  90.5558552  74.1223995   2.9829204  90.6605455  72.6406785
   8.0654810  93.4505515  63.9678858   7.9272709  93.6407111  63.0400048
   7.7091029  94.2124897  64.4246910   2.3552045  86.4139043  66.5152628
   2.8520745  85.6609006  66.1953698   1.5839027  86.4503360  65.9495837
  10.2081802  92.1179409  68.1570919  10.1971679  93.0004124  67.7864852
   9.3399182  91.7650960  67.9625456   6.8254377  91.0128050  64.6241085
   7.2914829  91.8456041  64.5501388   7.2761878  90.5473031  65.3286344
   4.7971040  83.3808637  68.6631986   3.8834120  83.6112864  68.8314193
   5.2264141  83.4647081  69.5146019   4.5677498  91.5698529  71.1631880
   3.9148949  91.8174436  70.5084333   4.9457878  90.7562667  70.8294358
   1.5599097  87.0166817  61.6935235   1.7762712  87.8991455  61.3924063
   1.0793165  86.6253030  60.9640877  10.8106412  93.2679628  64.7620382
  11.2537558  92.5186953  64.3639505   9.9332923  93.2589765  64.3794114
   7.6525398  94.7535045  74.3898238   7.7023403  94.5885053  75.3313761
   7.5439321  93.8862304  73.9996119   4.9429160  90.7365973  75.7057544
   5.8439023  90.5972438  75.4141542   5.0177135  90.9020428  76.6455722
  10.3539277  94.7384867  67.1542830  11.1886168  95.1774671  67.3180390
  10.4898406  94.2623520  66.3351075   7.4030783  92.2964601  73.1020317
   7.8784905  92.4892248  72.2939169   6.4796348  92.3523787  72.8563701
   1.9810999  84.3312445  72.0676151   2.4992943  85.0673472  71.7422640
   1.6266132  84.6376438  72.9022910   2.2323594  80.7512727  67.5877048
   2.5125347  80.0835917  68.2137474   3.0174201  80.9441823  67.0751712
   6.1032452  89.1730361  71.3348623   7.0549875  89.2728459  71.3560847
   5.9335902  88.3808630  71.8446707   4.1246831  86.2585945  71.5208024
   3.5296764  86.5390957  70.8254512   3.8396528  86.7479846  72.2924765
   8.5820530  92.3936481  70.4490923   8.5496850  91.4552482  70.6350606
   9.1921153  92.4720518  69.7156747   8.7315018  89.1847525  70.4949206
   8.2154067  88.4005981  70.3079135   9.6154967  88.8566241  70.6595725
   6.3925745  82.9288540  66.4545018   6.1950566  82.6203628  67.3388350
   7.0025451  83.6550179  66.5842948  14.3997080  93.4552488  69.5896959
  15.1300468  93.1937776  70.1504663  13.7904025  92.7181210  69.6299027
  12.4812377  91.5960351  70.1871411  11.7545540  91.4616316  69.5787902
  12.0659664  91.9037179  70.9928129   2.1499392  82.8097447  64.2041550
   2.7030430  83.2292900  64.8631573   2.3869478  81.8833195  64.2464506
   5.5278199  84.9197972  63.7120214   4.9476868  85.5782776  63.3298266
   5.2614132  84.0975317  63.3007632   3.9781765  84.3203030  65.9141534
   4.4781544  84.4319564  65.1055853   4.6217373  84.0164083  66.5542343
   4.3103077  87.0798063  62.7676562   3.4228932  87.3647713  62.5496757
   4.7257066  86.9191826  61.9203839   7.6617613  87.1044584  66.4830902
   8.4378003  87.5941036  66.7555518   6.9365747  87.5302638  66.9402771
  10.0990172  87.8172203  67.5404842  10.6934662  87.5767939  66.8298150
  10.1716755  87.0979333  68.1678378   4.2844101  92.5952599  62.9826852
   4.2279302  93.0521150  62.1434485   4.8372443  91.8343283  62.8049695
   8.0948907  88.3842330  63.8076972   7.8385841  87.9838966  64.6385180
   7.4701775  89.0986124  63.6827111  12.4061244  91.1238404  66.3148263
  11.8460802  91.1931593  67.0879825  11.8004748  90.9479388  65.5947760
   2.1427125  79.8808265  64.1110637   1.3759521  79.3266752  64.2567319
   2.5537830  79.9530134  64.9724788  15.3663176  96.2806319  66.1648066
  15.6722053  95.4203683  65.8773981  16.0915781  96.8723939  65.9647059
  13.0717348  96.0804645  67.5877048  13.3519102  95.4127834  68.2137474
  13.8567955  96.2733741  67.0751712  12.9820879  95.2100183  64.1110637
  12.2153275  94.6558670  64.2567319  13.3931584  95.2822052  64.9724788
   3.1496911  54.9747083  53.5822022   2.3960620  54.4054481  53.4266026
   3.2844453  54.9409747  54.5292656   3.5603326  55.1322693  56.3142266
   4.2906715  54.8707981  56.8749969   2.9510272  54.3951415  56.3544334
   1.6418624  53.2730556  56.9116717   0.9151787  53.1386520  56.3033209
   1.2265910  53.5807384  57.7173435   1.5667491  52.8008609  53.0393570
   1.0067049  52.8701798  53.8125132   0.9610995  52.6249593  52.3193066
   3.1523510  69.4765122  55.7323526   3.7901920  69.3571870  55.0286866
   3.0344353  70.4245966  55.7911478   1.3999590  74.9498995  46.9696406
   0.7487570  75.5353075  46.5830420   2.1943953  75.4805190  47.0291444
   2.7064778  67.2016576  52.8076734   3.4927867  66.7836000  52.4567151
   2.9703482  68.1062669  52.9758382   2.8774855  72.6389427  47.5065391
   2.2420688  72.7124053  48.2186295   2.5472262  73.2283025  46.8284470
   8.1073205  67.1391810  53.7109712   8.8398377  66.5691026  53.9447542
   7.3512561  66.7513410  54.1516218   5.6298626  60.8513384  58.1704321
   5.2981950  61.7208795  57.9465536   5.0344239  60.5349668  58.8498351
   2.1230145  73.0525930  57.5700234   1.8230868  73.9550968  57.4616041
   1.7781205  72.7858113  58.4221386   5.5227289  65.5708470  55.2497671
   4.6144166  65.5023878  54.9556432   5.4714885  66.0480415  56.0779496
   7.3888935  63.7724908  57.0275545   6.7463316  64.0657441  56.3815339
   6.8843864  63.6577829  57.8328741   5.0429099  67.5188081  47.7161404
   5.9546955  67.7515468  47.5409102   4.5338746  68.1025126  47.1536483
   3.3269867  71.9412709  61.3522697   3.7353223  71.4995120  60.6077329
   2.6047128  71.3665337  61.6056890   3.6498681  72.5013900  55.1074986
   3.0207544  72.6659614  54.4051053   3.2624343  72.9155509  55.8785950
   7.5287913  73.4368338  52.4619349   6.8438951  73.8167239  51.9116383
   7.6131763  74.0463664  53.1951297   2.8300382  64.5389684  60.3837427
   2.5861314  65.2931745  59.8471703   3.1060313  64.9175032  61.2184674
   4.7838845  71.0828297  59.0614693   4.9955740  71.7260057  58.3849074
   4.7368593  70.2490613  58.5936623   2.3865074  63.6946117  55.9651265
   1.5249553  63.9927371  56.2568003   2.4127508  63.9116516  55.0332298
   5.8984673  73.9600252  57.2337050   6.7202116  73.5580439  56.9519732
   5.8947076  73.8568486  58.1853166  13.9890666  70.3039001  53.5822022
  13.2354374  69.7346399  53.4266026  14.1238207  70.2701665  54.5292656
   1.0057770  75.7975969  63.3877083   0.5621624  75.0112348  63.0697988
   1.6674984  75.9855120  62.7220974   3.1039008  76.0778769  61.4158484
   3.0857484  76.8987650  60.9238754   4.0258928  75.9532845  61.6408626
   2.7281757  58.6982965  57.7875634   2.3846027  59.5884607  57.7114745
   3.0960720  58.5084622  56.9245219   2.6932040  68.6891576  46.2948070
   2.1778664  69.4596181  46.5336457   2.4209349  68.0156712  46.9181131
   1.8078298  61.0687620  55.7524868   1.3043093  61.0317755  54.9392673
   2.1008905  61.9780363  55.8121524   7.6666314  71.4423931  48.2301243
   6.8895757  71.1035090  47.7856405   8.3457795  71.4476554  47.5556208
   2.4818343  66.5618668  48.1207851   2.1768479  66.8764817  48.9717994
   3.4348785  66.6400088  48.1635184   5.9057621  70.9157912  54.8867851
   5.2481296  71.6057173  54.9747980   6.7098020  71.3054344  55.2301837
   4.7163080  69.2702285  52.9371793   5.2294962  69.9032276  53.4393503
   5.3664304  68.6703480  52.5715153   1.9785454  79.2486609  45.6932464
   1.3047153  79.5518306  46.3017422   2.3651276  80.0515689  45.3437921
   1.9778959  68.1443156  50.3132814   2.7250778  68.6564553  50.0039936
   2.2470548  67.8227208  51.1737207   5.4824876  74.2508286  51.0650935
   5.0287203  73.4099196  51.1216126   4.8518843  74.8869684  51.4025716
   4.4257796  65.1800272  52.2951603   3.6880553  64.6677658  52.6261845
   4.6784569  64.7400654  51.4834880   3.9257815  76.0884783  52.0000754
   4.2180790  76.6489840  51.2813119   4.4356436  76.3813344  52.7553913
   4.5269423  57.9576524  52.8893372   4.8328300  57.0973887  52.6019287
   5.2522028  58.5494144  52.6892366   2.3357074  67.3349201  59.9874836
   2.6906462  67.5620674  60.8469302   2.9829206  67.6667578  59.3652091
   8.0654811  70.4567637  50.6924165   7.9272710  70.6469233  49.7645354
   7.7091030  71.2187020  51.1492216   8.0924191  72.5244164  55.7035437
   8.5260698  72.4319453  56.5518491   8.8055772  72.5001665  55.0655453
   1.8252086  76.1246258  57.2368537   1.8789108  76.6937195  58.0046253
   0.9566867  76.2948143  56.8722574   8.9539741  72.5667865  58.2368322
   9.1475631  73.4713675  58.4827597   8.8540359  72.1075284  59.0706907
   4.0154849  72.7174608  63.8109203   3.8640356  72.4885159  62.8939286
   4.0059529  73.6745209  63.8240548   1.1333733  73.6938787  53.9542844
   0.7983565  73.6539557  54.8500494   0.6337678  73.0283503  53.4813255
   4.0692924  71.0394822  44.2279904   3.4522095  70.3141650  44.1312957
   3.6009413  71.8004182  43.8846978   5.7247056  75.7493730  61.8885684
   5.6659602  75.0652950  61.2216267   6.1266574  76.4912720  61.4366310
   5.7264463  73.7133314  60.1199664   4.8391242  73.3759236  60.2426063
   6.2963014  72.9816345  60.3568429   2.3552046  63.4201166  53.2397934
   2.8520746  62.6671128  52.9199004   1.5839028  63.4565483  52.6741144
  10.2081804  69.1241531  54.8816226  10.1971680  70.0066247  54.5110159
   9.3399183  68.7713082  54.6870763   1.7164300  78.2721600  59.2419066
   2.4292272  78.9069065  59.1694967   1.2254329  78.3685466  58.4259068
   3.4381827  72.1772853  50.8136358   2.5038106  72.2974316  50.6441062
   3.6158495  71.2745320  50.5496367   6.8254378  68.0190172  51.3486392
   7.2914831  68.8518164  51.2746694   7.2761879  67.5535154  52.0531650
   4.8930609  74.3633994  48.3472544   5.1690453  74.2490588  49.2566418
   4.0235108  73.9651479  48.3084717   4.7971041  60.3870759  55.3877293
   3.8834121  60.6174986  55.5559500   5.2264143  60.4709203  56.2391325
   4.5677500  68.5760651  57.8877187   3.9148950  68.8236559  57.2329640
   4.9457879  67.7624790  57.5539664   1.5284673  78.6120345  51.9905357
   1.7107068  77.7942000  52.4533110   2.3517659  78.8288037  51.5530247
   1.8626839  77.5388530  49.2520406   2.3914605  77.0280984  48.6390568
   2.1255059  77.2231060  50.1165939   4.2098730  75.4508647  64.4649495
   4.7538634  76.0638606  63.9704449   3.6285575  76.0088226  64.9816508
   2.4956243  78.5729365  55.5964522   2.3707382  77.7719105  55.0875468
   3.1535334  79.0675559  55.1078492   4.5591151  76.3738385  57.2244072
   3.6121487  76.2543737  57.1522399   4.9073924  75.4860884  57.3070334
   1.5637584  76.1691102  53.4248425   1.4162547  75.2407809  53.6055995
   2.3891078  76.1911192  52.9405500   5.1671706  76.9919660  54.5113297
   6.0918254  76.7862522  54.3737749   4.9987010  76.7436062  55.4202639
   1.5599099  64.0228939  48.4180542   1.7762713  64.9053577  48.1169370
   1.0793166  63.6315153  47.6886184   4.9567022  77.5105328  49.8675389
   5.1303900  76.9451750  49.1149241   5.4495914  78.3106223  49.6854879
  10.8106414  70.2741751  51.4865689  11.2537560  69.5249076  51.0884812
   9.9332924  70.2651887  51.1039421   5.9442195  76.8272092  46.9672287
   6.6393100  77.4478785  47.1859602   6.2865345  75.9767444  47.2424665
   7.8433618  74.2771798  48.4959618   8.3684942  74.6159071  47.7708938
   7.7555971  73.3418813  48.3122753   7.5327524  74.9104701  63.8010816
   6.7423068  74.8928840  63.2615315   7.2960879  75.4492995  64.5559852
   7.6525399  71.7597168  61.1143544   7.7023404  71.5947175  62.0559067
   7.5439323  70.8924427  60.7241425   4.9429162  67.7428096  62.4302851
   5.8439024  67.6034561  62.1386849   5.0177136  67.9082551  63.3701029
   9.1543596  74.1794109  61.3585566   8.8628404  74.5424090  62.1949027
   8.5415727  73.4661118  61.1798898  10.3539278  71.7446989  53.8788136
  11.1886170  72.1836793  54.0425697  10.4898407  71.2685642  53.0596382
   7.4030784  69.3026724  59.8265624   7.8784906  69.4954370  59.0184475
   6.4796350  69.3585910  59.5809008   1.9811001  61.3374568  58.7921458
   2.4992945  62.0735594  58.4667946   1.6266134  61.6438561  59.6268217
   2.2323595  57.7574850  54.3122354   2.5125349  57.0898039  54.9382781
   3.0174202  57.9503946  53.7997018   6.1032453  66.1792484  58.0593930
   7.0549876  66.2790582  58.0806154   5.9335904  65.3870753  58.5692014
   4.1246833  63.2648067  58.2453330   3.5296765  63.5453080  57.5499819
   3.8396529  63.7541968  59.0170072   3.2554323  77.2170994  47.0055963
   4.1884996  77.1516556  47.2088839   3.1677536  78.0527261  46.5470496
   5.8842340  76.5336864  43.9659911   5.8055971  76.1996728  44.8595668
   6.7052007  77.0258632  43.9651383   8.5820531  69.3998604  57.1736229
   8.5496851  68.4614604  57.3595913   9.1921155  69.4782640  56.4402054
   8.7315020  66.1909647  57.2194512   8.2154068  65.4068104  57.0324441
   9.6154968  65.8628364  57.3841032   6.3925746  59.9350663  53.1790325
   6.1950568  59.6265751  54.0633657   7.0025452  60.6612302  53.3088255
  14.3997081  70.4614611  56.3142266  15.1300469  70.1999899  56.8749969
  13.7904026  69.7243333  56.3544334  12.4812378  68.6022473  56.9116717
  11.7545542  68.4678438  56.3033209  12.0659665  68.9099302  57.7173435
   2.1499393  59.8159570  50.9286856   2.7030432  60.2355023  51.5876879
   2.3869479  58.8895318  50.9709812   5.5278200  61.9260095  50.4365521
   4.9476869  62.5844899  50.0543573   5.2614133  61.1037439  50.0252938
   3.9781767  61.3265153  52.6386841   4.4781545  61.4381687  51.8301160
   4.6217374  61.0226205  53.2787649   4.3103078  64.0860185  49.4921869
   3.4228933  64.3709836  49.2742064   4.7257067  63.9253949  48.6449146
   7.6617614  64.1106706  53.2076208   8.4378004  64.6003159  53.4800825
   6.9365748  64.5364760  53.6648078  10.0990173  64.8234325  54.2650149
  10.6934664  64.5830061  53.5543457  10.1716757  64.1041456  54.8923685
   3.4546292  73.8504860  43.5869889   4.1582142  74.0554862  44.2027545
   2.7308940  74.4181622  43.8518972   4.2844102  69.6014721  49.7072159
   4.2279303  70.0583273  48.8679791   4.8372444  68.8405406  49.5295002
   8.0948908  65.3904453  50.5322279   7.8385842  64.9901089  51.3630486
   7.4701776  66.1048247  50.4072418  12.4061246  68.1300526  53.0393570
  11.8460804  68.1993716  53.8125132  11.8004749  67.9541511  52.3193066
   5.3632989  74.2887389  45.6368349   6.1978593  73.8568588  45.4545824
   5.2017332  74.1169403  46.5645243   5.0178881  70.7919502  47.0024688
   4.9627685  70.6263774  46.0613132   4.3924936  71.4995535  47.1586878
   2.3324788  73.0968414  66.3278251   3.2015948  73.2709067  65.9664886
   1.8531540  73.9162831  66.2053980   2.1427126  56.8870388  50.8355943
   1.3759522  56.3328875  50.9812626   2.5537831  56.9592257  51.6970095
  13.9917264  84.8057040  55.7323526  14.6295674  84.6863788  55.0286866
  13.8738107  85.7537884  55.7911478  10.8006970  84.7584468  55.6685050
  10.4625482  84.6425533  54.7805585  11.6696739  84.3575633  55.6486057
   6.6593786  86.6119945  51.6581941   6.0958651  86.5209882  50.8898229
   6.5446181  85.7919849  52.1384434  11.2826753  85.9119320  61.6271256
  11.2715394  85.5172118  60.7551760  11.4447393  85.1785393  62.2205027
   4.2058218  88.1071136  54.4966162   4.9979510  87.7661961  54.0812461
   4.4454868  88.2166111  55.4168315  12.2393345  90.2790912  46.9696406
  11.5881325  90.8644993  46.5830420  13.0337708  90.8097107  47.0291444
   6.1648972  87.3680050  47.3683541   6.9379848  86.8209037  47.2296416
   6.5174371  88.2324299  47.5798002   8.0034015  88.6956432  60.5750440
   7.7123881  89.6002063  60.4597106   8.6390999  88.7372959  61.2894509
   8.9290221  86.0733280  57.1651800   9.5253794  85.8489303  56.4508762
   8.9865193  85.3318026  57.7677247   8.5015250  83.5272716  45.0001991
   8.7540770  83.0054237  44.2385454   7.5639809  83.3638861  45.1028674
  13.5458533  82.5308494  52.8076734  14.3321622  82.1127917  52.4567151
  13.8097237  83.4354586  52.9758382  13.7168610  87.9681344  47.5065391
  13.0814443  88.0415971  48.2186295  13.3866016  88.5574943  46.8284470
  18.9466960  82.4683727  53.7109712  19.6792132  81.8982944  53.9447542
  18.1906315  82.0805328  54.1516218   8.2211539  85.4300822  47.2026365
   8.1047797  84.7545725  47.8707450   8.3313798  84.9433196  46.3858519
  10.5643079  84.8910969  50.9073055  10.2001287  84.3641590  51.6185976
  11.4210195  84.5009438  50.7339540  16.4692380  76.1805301  58.1704321
  16.1375705  77.0500712  57.9465536  15.8737993  75.8641585  58.8498351
  10.2048566  79.9200868  45.9034403  10.3722969  80.7881105  46.2704874
  10.0145736  80.0828150  44.9795692  12.9623900  88.3817847  57.5700234
  12.6624623  89.2842886  57.4616041  12.6174959  88.1150031  58.4221386
   6.4136381  84.8331644  53.6036938   5.4886878  84.7007858  53.8114630
   6.6620794  85.6125863  54.1006880  16.3621043  80.9000388  55.2497671
  15.4537921  80.8315796  54.9556432  16.3108639  81.3772332  56.0779496
  10.1837787  82.3758526  46.8881070  10.0637413  82.8215577  47.7266550
   9.4890376  82.7243844  46.3294608   3.7745192  84.4764918  54.4380727
   3.9037573  84.7299397  55.3520139   3.0942643  85.0692626  54.1185382
  10.4361909  82.3190033  63.1932568   9.6595243  82.8783953  63.1835433
  11.0752472  82.8046816  63.7147438  18.2282690  79.1016826  57.0275545
  17.5857070  79.3949359  56.3815339  17.7237618  78.9869746  57.8328741
  15.8822853  82.8479999  47.7161404  16.7940710  83.0807386  47.5409102
  15.3732501  83.4317043  47.1536483   8.6908282  85.1275486  62.7550535
   9.4322966  85.6660530  62.4785359   7.9845267  85.7541775  62.9122087
  14.1663621  87.2704627  61.3522697  14.5746977  86.8287037  60.6077329
  13.4440883  86.6957254  61.6056890  10.5194691  82.2077234  58.7256254
  11.3655886  82.6316647  58.8690903  10.4593329  81.5510858  59.4194817
  14.4892436  87.8305818  55.1074986  13.8601298  87.9951532  54.4051053
  14.1018098  88.2447427  55.8785950  18.3681668  88.7660255  52.4619349
  17.6832706  89.1459157  51.9116383  18.4525517  89.3755582  53.1951297
  13.6694137  79.8681602  60.3837427  13.4255068  80.6223663  59.8471703
  13.9454067  80.2466950  61.2184674  15.6232599  86.4120214  59.0614693
  15.8349495  87.0551974  58.3849074  15.5762348  85.5782531  58.5936623
  13.2258828  79.0238035  55.9651265  12.3643307  79.3219289  56.2568003
  13.2521263  79.2408434  55.0332298  10.0420398  87.5680226  52.3725071
  10.5058743  87.8467929  51.5829693   9.7777196  86.6663670  52.1898161
   6.9344479  87.1151707  55.3104834   7.5045836  87.5438976  54.6722318
   7.5252591  86.8334292  56.0089020   8.9789284  83.6903378  49.1814636
   9.6813327  84.1424422  49.6488562   8.6469912  83.0487197  49.8094529
   7.4269645  82.2815135  63.5565845   6.7968306  82.9631415  63.7901242
   7.3205733  82.1698216  62.6118983   2.7214618  81.9486931  54.4831769
   1.9313672  82.2044459  54.0071880   3.2125865  82.7635269  54.5883810
  16.7378427  89.2892170  57.2337050  17.5595871  88.8872357  56.9519732
  16.7340830  89.1860404  58.1853166   4.6729363  82.3131510  51.4415246
   3.8760526  82.4250204  51.9598742   4.4454955  82.6518162  50.5756137
  10.5035031  88.8376213  59.3897761  10.5679463  89.2996620  60.2255933
   9.7945955  88.2073578  59.5180071   1.0052321  82.2017421  56.9146760
   1.2560359  83.0864431  57.1804336   1.5411869  82.0222023  56.1421852
  24.8284420  85.6330918  53.5822022  24.0748129  85.0638316  53.4266026
  24.9631962  85.5993583  54.5292656  10.2183048  90.5044321  49.2576741
  10.0828723  91.3495856  49.6861589  10.7592861  90.7063598  48.4942675
   6.7050388  76.5835900  65.9191096   6.3117334  76.0302099  66.5938740
   7.5216528  76.8946479  66.3097614   3.6712446  88.0219759  49.8304666
   4.1836966  88.8163009  49.9810231   4.3235159  87.3246049  49.7638268
   5.4807330  91.1385515  51.9127419   5.6573959  92.0603480  51.7248403
   6.2764164  90.8243934  52.3421799   9.6218349  77.9993780  63.5111353
  10.3628062  78.6000933  63.4315815   9.8536272  77.2571417  62.9529395
   4.7659687  83.1850147  61.7889582   4.6513202  82.2835404  62.0896681
   3.9104205  83.4313844  61.4374399  11.8451525  91.1267887  63.3877083
  11.4015379  90.3404266  63.0697988  12.5068738  91.3147038  62.7220974
   6.6038646  92.6563689  57.9137762   7.1546071  92.5280752  57.1414756
   5.7650122  92.9558578  57.5632654  13.9432763  91.4070687  61.4158484
  13.9251238  92.2279568  60.9238754  14.8652683  91.2824762  61.6408626
  10.4005817  88.9214817  62.2581993  10.9334154  88.1603105  62.0281301
   9.8719898  88.6288468  63.0006147  13.5675512  74.0274883  57.7875634
  13.2239781  74.9176524  57.7114745  13.9354475  73.8376540  56.9245219
   1.6361363  86.3508413  50.6064237   2.4736585  86.7605421  50.3897944
   1.8139630  85.4107855  50.5764431  13.5325795  84.0183494  46.2948070
  13.0172418  84.7888098  46.5336457  13.2603103  83.3448630  46.9181131
  11.1172906  78.8633194  51.3533308  10.2614502  78.4740045  51.1738947
  11.5299857  78.9425155  50.4933093  12.6472052  76.3979538  55.7524868
  12.1436848  76.3609673  54.9392673  12.9402659  77.3072280  55.8121524
   8.8914938  76.4818267  54.7591049   9.7567935  76.2861076  54.3996939
   8.9592447  76.2528619  55.6860406  18.5060069  86.7715848  48.2301243
  17.7289512  86.4327008  47.7856405  19.1851550  86.7768471  47.5556208
  13.3212098  81.8910586  48.1207851  13.0162233  82.2056735  48.9717994
  14.2742540  81.9692006  48.1635184  11.7658530  88.0500809  49.7700805
  11.2379891  87.3153569  49.4574042  11.2646032  88.8275485  49.5240773
  16.7451376  86.2449830  54.8867851  16.0875050  86.9349091  54.9747980
  17.5491775  86.6346261  55.2301837   6.4977257  78.7120475  52.1307416
   7.0721009  78.4895657  51.3980609   7.0848240  78.7809170  52.8836018
  15.5556834  84.5994202  52.9371793  16.0688716  85.2324194  53.4393503
  16.2058058  83.9995398  52.5715153   6.8246844  80.7424936  46.1503302
   5.9884157  81.0799623  46.4712576   6.6851614  80.6073916  45.2130439
   8.7999925  75.5861724  50.8582486   8.1464337  75.2710741  50.2339100
   8.7580399  74.9637465  51.5842309   9.9111130  85.8681019  42.7735778
   9.0038192  85.6370273  42.9726927  10.4082162  85.0718639  42.9609759
  12.8179209  94.5778526  45.6932464  12.1440907  94.8810223  46.3017422
  13.2045031  95.3807607  45.3437921  12.0337665  82.0743658  55.1830133
  11.1160227  82.2958605  55.0251821  12.4497809  82.1489968  54.3241841
  12.8172713  83.4735073  50.3132814  13.5644532  83.9856471  50.0039936
  13.0864303  83.1519126  51.1737207  11.0899363  85.9693614  47.2959768
  10.1810583  85.6852647  47.3932238  11.1194447  86.3892693  46.4363075
  16.3218631  89.5800204  51.0650935  15.8680958  88.7391114  51.1216126
  15.6912597  90.2161602  51.4025716  15.2651550  80.5092190  52.2951603
  14.5274307  79.9969576  52.6261845  15.5178324  80.0692571  51.4834880
  14.7651570  91.4176700  52.0000754  15.0574544  91.9781757  51.2813119
  15.2750191  91.7105261  52.7553913  15.3663178  73.2868442  52.8893372
  15.6722054  72.4265805  52.6019287  16.0915782  73.8786062  52.6892366
   1.6587534  83.6899128  51.2774970   1.4611933  83.0968489  50.5526037
   1.1034198  83.3851338  51.9950909   9.6384257  83.5822235  53.3969563
   9.6932867  82.6296071  53.3212040   8.8275459  83.7381674  53.8810862
  10.7875451  87.5102358  44.6347846  10.3494881  86.7938217  44.1753484
  11.5285892  87.7378473  44.0732938   7.5776617  82.1999294  51.1559942
   6.7644483  82.4993465  51.5625134   8.0735611  81.8054983  51.8734424
   9.7285195  92.1957051  53.0894207   9.6861374  92.4217898  52.1602739
  10.6447894  91.9620426  53.2380008  13.1750829  82.6641119  59.9874836
  13.5300217  82.8912592  60.8469302  13.8222960  82.9959496  59.3652091
  18.9048566  85.7859555  50.6924165  18.7666464  85.9761151  49.7645354
  18.5484785  86.5478938  51.1492216   7.0690692  79.7717650  56.7721177
   7.7090071  79.6306409  56.0744140   6.2368223  79.4852163  56.3959779
  18.9317945  87.8536082  55.7035437  19.3654452  87.7611371  56.5518491
  19.6449526  87.8293582  55.0655453   7.8450996  89.0720080  52.8856170
   8.6391594  88.5770401  52.6838744   7.1342688  88.5437944  52.5223875
  12.6645840  91.4538176  57.2368537  12.7182863  92.0229112  58.0046253
  11.7960622  91.6240061  56.8722574   4.1533759  83.2163162  48.9615922
   3.2231347  83.1547618  49.1785884   4.2491231  82.6939115  48.1652563
   4.0719308  79.7417975  51.5494164   4.3326126  80.6563308  51.4403324
   4.8936481  79.2742418  51.6990777   5.5444234  81.1555732  58.7192988
   6.2167287  80.9473094  58.0705637   4.7174020  80.9577818  58.2798221
  19.7933495  87.8959783  58.2368322  19.9869385  88.8005593  58.4827597
  19.6934113  87.4367202  59.0706907  11.4469806  77.7817673  60.7358649
  10.7997721  78.4807623  60.6423126  12.2170821  78.2153817  61.1034897
  14.8548604  88.0466525  63.8109203  14.7034110  87.8177077  62.8939286
  14.8453283  89.0037127  63.8240548  11.6233940  85.6198438  58.7955469
  12.5526000  85.7709598  58.6224436  11.2024970  85.7082459  57.9404115
  10.4222272  89.6449102  56.5654007  10.2833358  89.2767887  57.4379945
   9.6336868  90.1596742  56.3937964  11.0170424  94.7458199  47.9079543
  11.1922180  94.2746242  48.7225166  10.3303212  95.3723965  48.1360804
  11.9727487  89.0230705  53.9542844  11.6377320  88.9831475  54.8500494
  11.4731433  88.3575421  53.4813255   5.9471731  84.4298335  59.4795426
   5.8091529  83.6978574  60.0806965   6.8576654  84.3407235  59.1979613
  14.9086679  86.3686739  44.2279904  14.2915849  85.6433568  44.1312957
  14.4403167  87.1296100  43.8846978   8.5754032  84.1418294  58.9679105
   9.2853650  83.5011487  58.9265724   8.5323340  84.3931189  59.8905286
  16.5640810  91.0785648  61.8885684  16.5053357  90.3944868  61.2216267
  16.9660329  91.8204638  61.4366310   7.2882966  81.1283512  60.7874745
   6.7520323  80.6774251  61.4396341   6.6999674  81.2629421  60.0445209
   6.6985225  80.5872164  43.3501208   5.8214691  80.4660965  42.9863455
   7.1742978  79.7958242  43.0980097  16.5658218  89.0425232  60.1199664
  15.6784996  88.7051154  60.2426063  17.1356769  88.3108263  60.3568429
   3.0222087  80.2639520  57.8727739   2.9380276  79.6565190  57.1378149
   2.2004793  80.7548538  57.8737235  10.0959371  93.7026684  57.0860907
  10.0229542  94.5081656  57.5980212   9.6536764  93.9018650  56.2608929
   9.8849151  92.9398454  50.5963729   9.1016673  93.4820134  50.6901953
  10.5841896  93.4572434  50.9957970  13.1945801  78.7493084  53.2397934
  13.6914500  77.9963046  52.9199004  12.4232782  78.7857400  52.6741144
  21.0475558  84.4533449  54.8816226  21.0365434  85.3358165  54.5110159
  20.1792938  84.1005000  54.6870763  12.5558055  93.6013518  59.2419066
  13.2686027  94.2360983  59.1694967  12.0648083  93.6977384  58.4259068
  14.2775581  87.5064771  50.8136358  13.3431860  87.6266233  50.6441062
  14.4552250  86.6037238  50.5496367   9.7780770  80.8910467  52.9669619
   9.4078557  80.3381507  53.6550524  10.2739862  80.2868600  52.4144619
  17.6648133  83.3482090  51.3486392  18.1308585  84.1810082  51.2746694
  18.1155633  82.8827072  52.0531650   7.6069968  91.3507962  60.0624637
   8.3079428  91.9844445  60.2154031   7.1365083  91.6922693  59.3020276
  15.7324364  89.6925911  48.3472544  16.0084208  89.5782506  49.2566418
  14.8628863  89.2943396  48.3084717  15.6364796  75.7162677  55.3877293
  14.7227875  75.9466904  55.5559500  16.0657897  75.8001121  56.2391325
  15.4071254  83.9052569  57.8877187  14.7542704  84.1528476  57.2329640
  15.7851634  83.0916707  57.5539664  12.3678428  93.9412262  51.9905357
  12.5500822  93.1233918  52.4533110  13.1911414  94.1579954  51.5530247
  12.7020593  92.8680447  49.2520406  13.2308360  92.3572902  48.6390568
  12.9648813  92.5522978  50.1165939  11.4558827  84.6472380  64.3743224
  10.7799464  84.5466509  65.0445599  12.2786461  84.4911594  64.8379221
   3.2037686  90.8844317  56.9955739   3.7891123  90.1388005  57.1283644
   3.0062525  91.1948273  57.8792403   5.1746103  78.3014457  59.2122725
   5.2387430  79.1629288  58.8000123   5.1113223  77.6888459  58.4795083
   4.6498376  80.3737590  62.8595759   5.2770415  79.9914667  63.4733283
   3.7926295  80.1551792  63.2251452  15.0492484  90.7800565  64.4649495
  15.5932388  91.3930523  63.9704449  14.4679329  91.3380143  64.9816508
   1.4263918  82.1814019  48.7914114   1.7217360  81.2724697  48.7381168
   0.5251954  82.1601758  48.4695116  13.3349997  93.9021283  55.5964522
  13.2101137  93.1011023  55.0875468  13.9929088  94.3967476  55.1078492
   4.9558165  80.2570016  54.7741663   4.2344751  80.8705983  54.6349136
   5.7451421  80.7927780  54.6958309  15.3984906  91.7030303  57.2244072
  14.4515241  91.5835654  57.1522399  15.7467679  90.8152801  57.3070334
   7.7584479  77.5924442  61.0482314   8.2818881  77.8386739  61.8108624
   7.5396812  78.4244477  60.6285452   3.1551760  79.8628117  48.9153439
   2.8264466  78.9825496  48.7328545   3.5091131  79.8075785  49.8029828
  12.4031339  91.4983019  53.4248425  12.2556301  90.5699727  53.6055995
  13.2284832  91.5203110  52.9405500   6.2693583  80.1501086  49.2828917
   6.6089656  80.6787008  48.5607525   6.7165704  80.4881493  50.0587483
  16.0065461  92.3211578  54.5113297  16.9312008  92.1154439  54.3737749
  15.8380764  92.0727979  55.4202639   8.9637024  78.5338137  58.7331985
   8.6233844  77.7345950  59.1352665   8.2576030  78.8339848  58.1608818
   9.6153496  75.6187450  57.1859308  10.4379565  75.1447928  57.0638198
   9.8591559  76.3977933  57.6857994   8.2561730  78.6475708  47.4822210
   8.9770093  79.0256961  46.9785926   7.6327034  79.3664585  47.5857188
  12.3992853  79.3520857  48.4180542  12.6156468  80.2345495  48.1169370
  11.9186920  78.9607070  47.6886184   7.1392075  82.3106570  54.9951286
   6.9936655  82.6246873  55.8875568   6.6617278  82.9291471  54.4422185
   8.9988457  79.3009118  55.0432176   8.9850026  78.4050212  54.7064474
   9.7160886  79.3079782  55.6770462  10.8514588  79.7346458  57.0885303
  10.5932366  80.6563529  57.0869634  10.3199629  79.3376893  57.7785768
  15.7960777  92.8397246  49.8675389  15.9697654  92.2743668  49.1149241
  16.2889668  93.6398140  49.6854879   1.6137737  84.8511915  57.9338948
   1.0691205  85.6271723  58.0659222   2.4917087  85.1982719  57.7758069
   8.4025353  78.1823499  50.3119746   8.5241265  77.2540145  50.5110634
   8.1127396  78.1962184  49.3998062  11.2716544  75.8678409  53.4486466
  11.2938241  75.9317742  52.4938446  11.6884603  75.0282918  53.6426972
  21.6500168  85.6033669  51.4865689  22.0931314  84.8540994  51.0884812
  20.7726678  85.5943805  51.1039421  16.7835949  92.1564010  46.9672287
  17.4786854  92.7770703  47.1859602  17.1259100  91.3059361  47.2424665
   2.4003759  83.9781811  60.8269105   1.6585495  84.1264446  61.4133735
   2.0796503  84.2390077  59.9635854  18.6827373  89.6063716  48.4959618
  19.2078697  89.9450988  47.7708938  18.5949725  88.6710731  48.3122753
  10.3447421  93.5197789  60.6249495  10.6534548  93.2746936  61.4972194
  11.1422903  93.7244428  60.1368365  10.3668033  95.6735699  52.8554871
   9.9273024  95.1812077  53.5487728  11.1176150  95.1308666  52.6146946
   2.8460372  91.8647240  52.8579499   3.6718392  91.5651012  52.4778143
   2.4954424  91.0954862  53.3069288   7.8141905  91.2173708  54.9277173
   7.1921915  90.5544413  54.6279401   8.4846772  91.2434840  54.2450821
   7.8866433  79.6955496  64.5209679   7.9354588  80.5717619  64.1387448
   8.4288947  79.1532889  63.9481322  18.3721279  90.2396619  63.8010816
  17.5816822  90.2220758  63.2615315  18.1354633  90.7784913  64.5559852
  18.4919154  87.0889086  61.1143544  18.5417159  86.9239093  62.0559067
  18.3833077  86.2216345  60.7241425   7.3755412  89.7677631  48.4035633
   7.5243533  90.4513096  47.7502306   8.1821856  89.7482721  48.9185089
  15.7822916  83.0720014  62.4302851  16.6832779  82.9326478  62.1386849
  15.8570891  83.2374468  63.3701029  10.1165721  80.4486868  61.2756037
   9.2469031  80.7420434  61.0038626  10.3525202  81.0327313  61.9963301
  19.9937351  89.5086027  61.3585566  19.7022159  89.8716008  62.1949027
  19.3809482  88.7953035  61.1798898  21.1933033  87.0738907  53.8788136
  22.0279924  87.5128711  54.0425697  21.3292162  86.5977560  53.0596382
  18.2424539  84.6318642  59.8265624  18.7178660  84.8246288  59.0184475
  17.3190104  84.6877827  59.5809008   5.1308045  85.7942809  49.4096702
   4.8854087  84.8905139  49.6076912   5.3003960  85.7959959  48.4676180
  12.8204755  76.6666485  58.7921458  13.3386699  77.4027512  58.4667946
  12.4659888  76.9730479  59.6268217   4.4003693  81.5271166  46.9082864
   3.7072938  81.6015521  46.2522900   4.1555445  80.7631510  47.4304381
  13.0717349  73.0866768  54.3122354  13.3519103  72.4189957  54.9382781
  13.8567956  73.2795863  53.7997018  10.8750818  92.2625762  45.8747381
  10.3024785  92.8815949  45.4217853  11.4483612  92.8125123  46.4087303
  16.9426208  81.5084402  58.0593930  17.8943631  81.6082499  58.0806154
  16.7729658  80.7162670  58.5692014  14.9640587  78.5939985  58.2453330
  14.3690519  78.8744998  57.5499819  14.6790284  79.0833886  59.0170072
  14.0948078  92.5462912  47.0055963  15.0278751  92.4808473  47.2088839
  14.0071291  93.3819179  46.5470496  16.7236094  91.8628782  43.9659911
  16.6449726  91.5288646  44.8595668  17.5445761  92.3550550  43.9651383
  19.4214286  84.7290521  57.1736229  19.3890606  83.7906522  57.3595913
  20.0314909  84.8074558  56.4402054  11.2597616  83.5986574  43.2163433
  12.2056721  83.4692783  43.2851851  10.8811861  82.8601236  43.6932861
  19.5708774  81.5201565  57.2194512  19.0547823  80.7360022  57.0324441
  20.4548723  81.1920281  57.3841032  17.2319501  75.2642580  53.1790325
  17.0344322  74.9557669  54.0633657  17.8419207  75.9904219  53.3088255
  25.2390835  85.7906528  56.3142266  25.9694224  85.5291816  56.8749969
  24.6297781  85.0535250  56.3544334  23.3206133  83.9314391  56.9116717
  22.5939296  83.7970356  56.3033209  22.9053419  84.2391219  57.7173435
  11.1436309  87.6504321  64.6764090  12.0639318  87.8282920  64.8704137
  11.1085892  86.7060366  64.5243789   9.4440534  81.5236551  43.1518318
   8.5371989  81.2269664  43.2281032   9.7216515  81.2266369  42.2852605
   4.1398381  85.5605355  57.3186871   4.3584391  86.4922463  57.3374905
   4.5524155  85.2013330  58.1041675  11.0602599  76.0673441  49.3062560
  10.2503328  75.7220525  49.6817806  11.7487016  75.7580984  49.8950171
  12.9893148  75.1451487  50.9286856  13.5424186  75.5646941  51.5876879
  13.2263234  74.2187235  50.9709812   9.0126247  81.1338561  66.7089620
   8.9122974  82.0832918  66.6401711   8.7947789  80.8056800  65.8365690
   8.2139318  78.3823486  43.2930298   9.0758482  78.7078384  43.5526115
   8.3989662  77.5954982  42.7803363  16.3671955  77.2552012  50.4365521
  15.7870624  77.9136817  50.0543573  16.1007887  76.4329357  50.0252938
  14.8175521  76.6557070  52.6386841  15.3175299  76.7673605  51.8301160
  15.4611129  76.3518123  53.2787649   8.8757517  84.5635700  65.5254682
   8.3924599  85.3636060  65.7318571   8.9618456  84.5743645  64.5722126
   2.1443476  86.3964079  53.4476501   2.1214165  86.4951767  52.4958384
   2.4544113  87.2429230  53.7693667   4.8030854  88.4540235  57.5623116
   5.7574108  88.4224177  57.4953047   4.6043378  87.9930858  58.3773342
   5.3930236  87.0241351  60.1293913   6.2123125  87.5185429  60.1528751
   5.6667044  86.1073319  60.1011481  15.1496833  79.4152103  49.4921869
  14.2622688  79.7001753  49.2742064  15.5650822  79.2545866  48.6449146
  18.5011369  79.4398624  53.2076208  19.2771759  79.9295076  53.4800825
  17.7759503  79.8656678  53.6648078  20.9383927  80.1526243  54.2650149
  21.5328418  79.9121979  53.5543457  21.0110511  79.4333374  54.8923685
  14.2940046  89.1796778  43.5869889  14.9975896  89.3846780  44.2027545
  13.5702695  89.7473539  43.8518972  15.1237856  84.9306639  49.7072159
  15.0673058  85.3875190  48.8679791  15.6766199  84.1697323  49.5295002
  18.9342662  80.7196371  50.5322279  18.6779597  80.3193006  51.3630486
  18.3095530  81.4340165  50.4072418  23.2455000  83.4592444  53.0393570
  22.6854558  83.5285633  53.8125132  22.6398504  83.2833429  52.3193066
  16.2026744  89.6179307  45.6368349  17.0372347  89.1860505  45.4545824
  16.0411086  89.4461320  46.5645243  15.8572636  86.1211420  47.0024688
  15.8021440  85.9555691  46.0613132  15.2318691  86.8287453  47.1586878
  13.1718543  88.4260332  66.3278251  14.0409703  88.6000984  65.9664886
  12.6925294  89.2454749  66.2053980   9.1668761  75.6219529  46.5810007
   9.1547431  76.5661369  46.7378278  10.0592183  75.4389674  46.2869468
   9.0958325  94.2988419  54.6677763   8.1453956  94.2990281  54.5542136
   9.3990811  93.5521154  54.1513798  12.9820881  72.2162306  50.8355943
  12.2153276  71.6620792  50.9812626  13.3931586  72.2884174  51.6970095
   4.9862642  78.5047101  64.9261125   5.8494103  78.1483906  65.1364449
   4.4128052  78.1660996  65.6136529  19.3409004  98.8564633  45.0001991
  19.5934525  98.3346155  44.2385454  18.4033563  98.6930779  45.1028674
  24.3852287  97.8600412  52.8076734  25.1715376  97.4419835  52.4567151
  24.6490991  98.7646504  52.9758382  29.7860714  97.7975645  53.7109712
  30.5185886  97.2274862  53.9447542  29.0300070  97.4097245  54.1516218
  27.3086135  91.5097219  58.1704321  26.9769459  92.3792630  57.9465536
  26.7131748  91.1933503  58.8498351  21.0442321  95.2492786  45.9034403
  21.2116723  96.1173022  46.2704874  20.8539490  95.4120068  44.9795692
  27.2014798  96.2292305  55.2497671  26.2931675  96.1607714  54.9556432
  27.1502394  96.7064250  56.0779496  21.0231542  97.7050444  46.8881070
  20.9031167  98.1507494  47.7266550  20.3284130  98.0535761  46.3294608
  21.2755664  97.6481951  63.1932568  20.4988998  98.2075871  63.1835433
  21.9146227  98.1338734  63.7147438  29.0676444  94.4308744  57.0275545
  28.4250825  94.7241277  56.3815339  28.5631373  94.3161664  57.8328741
  26.7216608  98.1771917  47.7161404  27.6334464  98.4099304  47.5409102
  26.2126255  98.7608961  47.1536483  21.3588446  97.5369151  58.7256254
  22.2049641  97.9608565  58.8690903  21.2987083  96.8802776  59.4194817
  24.5087891  95.1973520  60.3837427  24.2648823  95.9515580  59.8471703
  24.7847822  95.5758867  61.2184674  24.0652583  94.3529953  55.9651265
  23.2037062  94.6511206  56.2568003  24.0915017  94.5700352  55.0332298
  19.8183038  99.0195296  49.1814636  20.5207082  99.4716339  49.6488562
  19.4863667  98.3779115  49.8094529  18.2663400  97.6107052  63.5565845
  17.6362060  98.2923333  63.7901242  18.1599488  97.4990134  62.6118983
  35.6678175 100.9622836  53.5822022  34.9141883 100.3930234  53.4266026
  35.8025716 100.9285500  54.5292656  17.5444142  91.9127818  65.9191096
  17.1511088  91.3594017  66.5938740  18.3610283  92.2238397  66.3097614
  20.4612103  93.3285697  63.5111353  21.2021817  93.9292850  63.4315815
  20.6930026  92.5863335  62.9529395  24.4069266  89.3566800  57.7875634
  24.0633536  90.2468442  57.7114745  24.7748229  89.1668458  56.9245219
  24.3719549  99.3475411  46.2948070  23.8566173 100.1180016  46.5336457
  24.0996858  98.6740547  46.9181131  21.9566660  94.1925112  51.3533308
  21.1008256  93.8031962  51.1738947  22.3693612  94.2717073  50.4933093
  23.4865807  91.7271455  55.7524868  22.9830602  91.6901590  54.9392673
  23.7796414  92.6364198  55.8121524  19.7308693  91.8110185  54.7591049
  20.5961689  91.6152994  54.3996939  19.7986202  91.5820537  55.6860406
  29.3453823 102.1007766  48.2301243  28.5683266 101.7618925  47.7856405
  30.0245304 102.1060389  47.5556208  24.1605852  97.2202503  48.1207851
  23.8555988  97.5348653  48.9717994  25.1136294  97.2983923  48.1635184
  17.3371012  94.0412393  52.1307416  17.9114764  93.8187574  51.3980609
  17.9241994  94.1101087  52.8836018  26.3950589  99.9286120  52.9371793
  26.9082471 100.5616112  53.4393503  27.0451813  99.3287315  52.5715153
  17.6640599  96.0716854  46.1503302  16.8277911  96.4091541  46.4712576
  17.5245369  95.9365834  45.2130439  19.6393679  90.9153642  50.8582486
  18.9858092  90.6002659  50.2339100  19.5974154  90.2929382  51.5842309
  22.8731420  97.4035575  55.1830133  21.9553981  97.6250522  55.0251821
  23.2891563  97.4781886  54.3241841  23.6566468  98.8026991  50.3132814
  24.4038287  99.3148388  50.0039936  23.9258057  98.4811044  51.1737207
  26.1045305  95.8384107  52.2951603  25.3668062  95.3261494  52.6261845
  26.3572078  95.3984489  51.4834880  26.2056932  88.6160359  52.8893372
  26.5115809  87.7557723  52.6019287  26.9309537  89.2077980  52.6892366
  20.4778012  98.9114152  53.3969563  20.5326622  97.9587989  53.3212040
  19.6669214  99.0673592  53.8810862  18.4170372  97.5291212  51.1559942
  17.6038237  97.8285383  51.5625134  18.9129366  97.1346901  51.8734424
  24.0144583  97.9933037  59.9874836  24.3693971  98.2204510  60.8469302
  24.6616715  98.3251413  59.3652091  29.7442320 101.1151473  50.6924165
  29.6060219 101.3053069  49.7645354  29.3878539 101.8770855  51.1492216
  17.9084446  95.1009568  56.7721177  18.5483826  94.9598327  56.0744140
  17.0761977  94.8144081  56.3959779  14.9113063  95.0709893  51.5494164
  15.1719880  95.9855226  51.4403324  15.7330235  94.6034335  51.6990777
  16.3837988  96.4847650  58.7192988  17.0561042  96.2765012  58.0705637
  15.5567775  96.2869736  58.2798221  22.2863560  93.1109591  60.7358649
  21.6391475  93.8099540  60.6423126  23.0564576  93.5445735  61.1034897
  18.1276720  96.4575430  60.7874745  17.5914077  96.0066168  61.4396341
  17.5393429  96.5921339  60.0445209  17.5378979  95.9164081  43.3501208
  16.6608445  95.7952882  42.9863455  18.0136732  95.1250160  43.0980097
  13.8615841  95.5931438  57.8727739  13.7774030  94.9857107  57.1378149
  13.0398548  96.0840456  57.8737235  24.0339555  94.0785001  53.2397934
  24.5308255  93.3254964  52.9199004  23.2626537  94.1149318  52.6741144
  31.8869313  99.7825367  54.8816226  31.8759189 100.6650082  54.5110159
  31.0186692  99.4296918  54.6870763  20.6174524  96.2202384  52.9669619
  20.2472312  95.6673425  53.6550524  21.1133616  95.6160518  52.4144619
  28.5041887  98.6774008  51.3486392  28.9702339  99.5101999  51.2746694
  28.9549388  98.2118989  52.0531650  26.4758550  91.0454595  55.3877293
  25.5621630  91.2758822  55.5559500  26.9051651  91.1293039  56.2391325
  26.2465009  99.2344487  57.8877187  25.5936459  99.4820394  57.2329640
  26.6245388  98.4208625  57.5539664  22.2952582  99.9764298  64.3743224
  21.6193219  99.8758427  65.0445599  23.1180215  99.8203512  64.8379221
  16.0139858  93.6306375  59.2122725  16.0781184  94.4921206  58.8000123
  15.9506978  93.0180377  58.4795083  15.4892130  95.7029508  62.8595759
  16.1164169  95.3206585  63.4733283  14.6320049  95.4843710  63.2251452
  15.7951920  95.5861933  54.7741663  15.0738506  96.1997901  54.6349136
  16.5845176  96.1219698  54.6958309  18.5978233  92.9216360  61.0482314
  19.1212635  93.1678656  61.8108624  18.3790567  93.7536395  60.6285452
  13.9945515  95.1920034  48.9153439  13.6658221  94.3117413  48.7328545
  14.3484885  95.1367703  49.8029828  17.1087338  95.4793004  49.2828917
  17.4483410  96.0078925  48.5607525  17.5559458  95.8173410  50.0587483
  19.8030779  93.8630055  58.7331985  19.4627599  93.0637868  59.1352665
  19.0969785  94.1631766  58.1608818  20.4547250  90.9479367  57.1859308
  21.2773320  90.4739845  57.0638198  20.6985314  91.7269851  57.6857994
  19.0955485  93.9767626  47.4822210  19.8163847  94.3548879  46.9785926
  18.4720789  94.6956503  47.5857188  23.2386608  94.6812775  48.4180542
  23.4550222  95.5637413  48.1169370  22.7580675  94.2898988  47.6886184
  17.9785829  97.6398488  54.9951286  17.8330410  97.9538791  55.8875568
  17.5011033  98.2583388  54.4422185  19.8382212  94.6301036  55.0432176
  19.8243781  93.7342129  54.7064474  20.5554640  94.6371700  55.6770462
  21.6908343  95.0638376  57.0885303  21.4326121  95.9855447  57.0869634
  21.1593383  94.6668811  57.7785768  19.2419108  93.5115416  50.3119746
  19.3635019  92.5832062  50.5110634  18.9521150  93.5254102  49.3998062
  22.1110298  91.1970327  53.4486466  22.1331995  91.2609660  52.4938446
  22.5278357  90.3574835  53.6426972  32.4893923 100.9325586  51.4865689
  32.9325069 100.1832911  51.0884812  31.6120433 100.9235723  51.1039421
  18.7260187  95.0247414  64.5209679  18.7748343  95.9009536  64.1387448
  19.2682702  94.4824807  63.9481322  29.3312908 102.4181003  61.1143544
  29.3810913 102.2531011  62.0559067  29.2226832 101.5508262  60.7241425
  26.6216671  98.4011931  62.4302851  27.5226533  98.2618396  62.1386849
  26.6964645  98.5666386  63.3701029  20.9559476  95.7778786  61.2756037
  20.0862785  96.0712352  61.0038626  21.1918956  96.3619231  61.9963301
  32.0326787 102.4030824  53.8788136  32.8673679 102.8420629  54.0425697
  32.1685916 101.9269478  53.0596382  29.0818293  99.9610559  59.8265624
  29.5572415 100.1538206  59.0184475  28.1583859 100.0169745  59.5809008
  23.6598510  91.9958403  58.7921458  24.1780454  92.7319430  58.4667946
  23.3053642  92.3022396  59.6268217  15.2397447  96.8563084  46.9082864
  14.5466692  96.9307439  46.2522900  14.9949199  96.0923428  47.4304381
  23.9111104  88.4158685  54.3122354  24.1912858  87.7481874  54.9382781
  24.6961711  88.6087781  53.7997018  27.7819962  96.8376319  58.0593930
  28.7337385  96.9374417  58.0806154  27.6123413  96.0454588  58.5692014
  25.8034342  93.9231903  58.2453330  25.2084274  94.2036915  57.5499819
  25.5184038  94.4125804  59.0170072  30.2608040 100.0582439  57.1736229
  30.2284360  99.1198440  57.3595913  30.8708664 100.1366476  56.4402054
  22.0991371  98.9278492  43.2163433  23.0450476  98.7984700  43.2851851
  21.7205616  98.1893154  43.6932861  30.4102529  96.8493483  57.2194512
  29.8941577  96.0651939  57.0324441  31.2942477  96.5212199  57.3841032
  28.0713255  90.5934498  53.1790325  27.8738077  90.2849586  54.0633657
  28.6812961  91.3196137  53.3088255  36.0784590 101.1198446  56.3142266
  36.8087978 100.8583734  56.8749969  35.4691535 100.3827168  56.3544334
  34.1599887  99.2606309  56.9116717  33.4333051  99.1262273  56.3033209
  33.7447174  99.5683137  57.7173435  20.2834288  96.8528468  43.1518318
  19.3765743  96.5561581  43.2281032  20.5610269  96.5558287  42.2852605
  21.8996354  91.3965358  49.3062560  21.0897082  91.0512443  49.6817806
  22.5880771  91.0872902  49.8950171  23.8286902  90.4743405  50.9286856
  24.3817941  90.8938858  51.5876879  24.0656988  89.5479153  50.9709812
  19.8520001  96.4630479  66.7089620  19.7516728  97.4124836  66.6401711
  19.6341543  96.1348718  65.8365690  19.0533073  93.7115404  43.2930298
  19.9152237  94.0370302  43.5526115  19.2383417  92.9246900  42.7803363
  27.2065709  92.5843930  50.4365521  26.6264378  93.2428734  50.0543573
  26.9401642  91.7621275  50.0252938  25.6569276  91.9848988  52.6386841
  26.1569054  92.0965522  51.8301160  26.3004883  91.6810041  53.2787649
  25.9890587  94.7444021  49.4921869  25.1016442  95.0293671  49.2742064
  26.4044576  94.5837784  48.6449146  29.3405123  94.7690542  53.2076208
  30.1165513  95.2586994  53.4800825  28.6153257  95.1948596  53.6648078
  31.7777682  95.4818161  54.2650149  32.3722173  95.2413897  53.5543457
  31.8504266  94.7625291  54.8923685  25.9631611 100.2598556  49.7072159
  25.9066812 100.7167108  48.8679791  26.5159953  99.4989241  49.5295002
  29.7736417  96.0488288  50.5322279  29.5173351  95.6484924  51.3630486
  29.1489285  96.7632082  50.4072418  34.0848755  98.7884362  53.0393570
  33.5248313  98.8577551  53.8125132  33.4792258  98.6125346  52.3193066
  20.0062516  90.9511447  46.5810007  19.9941185  91.8953287  46.7378278
  20.8985938  90.7681592  46.2869468  23.8214635  87.5454223  50.8355943
  23.0547031  86.9912710  50.9812626  24.2325340  87.6176092  51.6970095
  15.8256396  93.8339019  64.9261125  16.6887858  93.4775824  65.1364449
  15.2521807  93.4952914  65.6136529  37.0450687 103.9452277  52.8893372
  37.3509563 103.0849640  52.6019287  37.7703291 104.5369897  52.6892366
  34.7504858 103.7450603  54.3122354  35.0306612 103.0773792  54.9382781
  35.5355465 103.9379699  53.7997018  34.6608390 102.8746141  50.8355943
  33.8940785 102.3204628  50.9812626  35.0719095 102.9468010  51.6970095
   3.1496913  31.9809206  40.3067328   2.3960621  31.4116604  40.1511333
   3.2844454  31.9471870  41.2537963   3.5603328  32.1384816  43.0387573
   4.2906716  31.8770104  43.5995276   2.9510273  31.4013537  43.0789641
   1.6418625  30.2792678  43.6362024   0.9151788  30.1448643  43.0278515
   1.2265912  30.5869507  44.4418742   1.5667492  29.8070731  39.7638877
   1.0067050  29.8763920  40.5370439   0.9610996  29.6311716  39.0438373
   3.1523511  46.4827245  42.4568832   3.7901921  46.3633992  41.7532172
   3.0344354  47.4308089  42.5156784   1.3999592  51.9561117  33.6941713
   0.7487571  52.5415198  33.3075727   2.1943954  52.4867312  33.7536750
   2.7064779  44.2078699  39.5322040   3.4927869  43.7898122  39.1812457
   2.9703484  45.1124791  39.7003689   2.8774857  49.6451549  34.2310697
   2.2420690  49.7186176  34.9431602   2.5472263  50.2345148  33.5529776
   8.1073207  44.1453932  40.4355019   8.8398378  43.5753149  40.6692848
   7.3512562  43.7575533  40.8761524   5.6298627  37.8575506  44.8949627
   5.2981952  38.7270917  44.6710842   5.0344240  37.5411790  45.5743658
   2.1230146  50.0588052  44.2945540   1.8230869  50.9613091  44.1861347
   1.7781206  49.7920235  45.1466693   5.5227290  42.5770592  41.9742978
   4.6144168  42.5086001  41.6801739   5.4714886  43.0542537  42.8024803
   7.3888937  40.7787031  43.7520851   6.7463317  41.0719564  43.1060646
   6.8843865  40.6639951  44.5574048   5.0429100  44.5250204  34.4406711
   5.9546956  44.7577591  34.2654408   4.5338747  45.1087248  33.8781789
   3.3269868  48.9474832  48.0768003   3.7353224  48.5057242  47.3322636
   2.6047129  48.3727459  48.3302196   3.6498683  49.5076022  41.8320292
   3.0207545  49.6721737  41.1296360   3.2624345  49.9217632  42.6031256
   7.5287914  50.4430460  39.1864656   6.8438953  50.8229362  38.6361689
   7.6131764  51.0525787  39.9196604   2.8300383  41.5451807  47.1082734
   2.5861315  42.2993867  46.5717010   3.1060314  41.9237155  47.9429981
   4.7838846  48.0890419  45.7859999   4.9955741  48.7322179  45.1094381
   4.7368594  47.2552736  45.3181930   2.3865075  40.7008240  42.6896572
   1.5249554  40.9989494  42.9813309   2.4127510  40.9178639  41.7577604
   5.8984674  50.9662375  43.9582357   6.7202118  50.5642562  43.6765038
   5.8947077  50.8630609  44.9098473  13.9890667  47.3101123  40.3067328
  13.2354375  46.7408521  40.1511333  14.1238208  47.2763788  41.2537963
   1.0057771  52.8038092  50.1122390   0.5621626  52.0174471  49.7943294
   1.6674985  52.9917243  49.4466281   3.1039010  53.0840892  48.1403791
   3.0857485  53.9049773  47.6484060   4.0258930  52.9594967  48.3653932
   2.7281759  35.7045087  44.5120941   2.3846028  36.5946729  44.4360052
   3.0960721  35.5146745  43.6490526   2.6932041  45.6953699  33.0193376
   2.1778665  46.4658303  33.2581764   2.4209350  45.0218835  33.6426438
   1.8078299  38.0749743  42.4770174   1.3043095  38.0379878  41.6637980
   2.1008906  38.9842485  42.5366831   7.6666316  48.4486053  34.9546550
   6.8895758  48.1097213  34.5101712   8.3457797  48.4538676  34.2801515
   2.4818345  43.5680791  34.8453157   2.1768480  43.8826940  35.6963301
   3.4348787  43.6462211  34.8880490   5.9057622  47.9220034  41.6113158
   5.2481297  48.6119296  41.6993286   6.7098022  48.3116466  41.9547144
   4.7163081  46.2764407  39.6617099   5.2294963  46.9094399  40.1638809
   5.3664305  45.6765603  39.2960459   1.9785455  56.2548731  32.4177771
   1.3047154  56.5580428  33.0262728   2.3651277  57.0577812  32.0683228
   1.9778960  45.1505278  37.0378120   2.7250779  45.6626676  36.7285242
   2.2470549  44.8289331  37.8982514   5.4824877  51.2570409  37.7896242
   5.0287205  50.4161318  37.8461433   4.8518844  51.8931807  38.1271022
   4.4257797  42.1862395  39.0196910   3.6880554  41.6739781  39.3507152
   4.6784571  41.7462776  38.2080186   3.9257817  53.0946905  38.7246060
   4.2180791  53.6551962  38.0058426   4.4356437  53.3875466  39.4799219
   4.5269424  34.9638647  39.6138679   4.8328301  34.1036010  39.3264594
   5.2522029  35.5556267  39.4137673   2.3357076  44.3411324  46.7120143
   2.6906463  44.5682797  47.5714608   2.9829207  44.6729701  46.0897398
   8.0654813  47.4629760  37.4169472   7.9272711  47.6531356  36.4890661
   7.7091031  48.2249143  37.8737523   8.0924192  49.5306287  42.4280743
   8.5260699  49.4381576  43.2763797   8.8055773  49.5063787  41.7900759
   1.8252087  53.1308381  43.9613844   1.8789109  53.6999317  44.7291560
   0.9566869  53.3010266  43.5967881   8.9539742  49.5729987  44.9613629
   9.1475632  50.4775798  45.2072903   8.8540360  49.1137407  45.7952214
   4.0154850  49.7236730  50.5354509   3.8640357  49.4947282  49.6184593
   4.0059530  50.6807332  50.5485854   1.1333734  50.7000910  40.6788151
   0.7983566  50.6601680  41.5745801   0.6337679  50.0345626  40.2058561
   4.0692925  48.0456944  30.9525211   3.4522096  47.3203773  30.8558263
   3.6009414  48.8066305  30.6092285   5.7247057  52.7555853  48.6130991
   5.6659603  52.0715073  47.9461574   6.1266575  53.4974843  48.1611617
   5.7264464  50.7195437  46.8444971   4.8391243  50.3821358  46.9671370
   6.2963015  49.9878468  47.0813736   2.3552048  40.4263289  39.9643241
   2.8520747  39.6733251  39.6444311   1.5839029  40.4627605  39.3986450
  10.2081805  46.1303654  41.6061532  10.1971681  47.0128369  41.2355465
   9.3399184  45.7775205  41.4116069   1.7164301  55.2783723  45.9664373
   2.4292274  55.9131188  45.8940274   1.2254330  55.3747589  45.1504374
   3.4381828  49.1834976  37.5381664   2.5038107  49.3036438  37.3686369
   3.6158497  48.2807443  37.2741674   6.8254380  45.0252295  38.0731698
   7.2914832  45.8580287  37.9992001   7.2761880  44.5597277  38.7776957
   4.8930611  51.3696116  35.0717850   5.1690455  51.2552711  35.9811724
   4.0235109  50.9713601  35.0330024   4.7971042  37.3932882  42.1122600
   3.8834122  37.6237109  42.2804807   5.2264144  37.4771326  42.9636632
   4.5677501  45.5822774  44.6122494   3.9148951  45.8298681  43.9574947
   4.9457881  44.7686912  44.2784971   1.5284675  55.6182467  38.7150664
   1.7107069  54.8004123  39.1778416   2.3517661  55.8350159  38.2775554
   1.8626840  54.5450652  35.9765713   2.3914607  54.0343107  35.3635875
   2.1255060  54.2293182  36.8411246   4.2098731  52.4570770  51.1894801
   4.7538635  53.0700728  50.6949756   3.6285576  53.0150348  51.7061814
   2.4956244  55.5791488  42.3209829   2.3707383  54.7781228  41.8120774
   3.1535335  56.0737681  41.8323799   4.5591152  53.3800508  43.9489379
   3.6121488  53.2605859  43.8767706   4.9073925  52.4923006  44.0315641
   1.5637586  53.1753224  40.1493731   1.4162548  52.2469932  40.3301301
   2.3891079  53.1973315  39.6650807   5.1671708  53.9981783  41.2358604
   6.0918255  53.7924644  41.0983055   4.9987011  53.7498184  42.1447946
   1.5599100  41.0291062  35.1425849   1.7762714  41.9115700  34.8414677
   1.0793167  40.6377275  34.4131491   4.9567024  54.5167450  36.5920696
   5.1303901  53.9513873  35.8394548   5.4495915  55.3168345  36.4100185
  10.8106415  47.2803873  38.2110995  11.2537561  46.5311199  37.8130119
   9.9332925  47.2714010  37.8284727   5.9442196  53.8334215  33.6917594
   6.6393101  54.4540908  33.9104908   6.2865346  52.9829566  33.9669972
   7.8433619  51.2833920  35.2204925   8.3684943  51.6221193  34.4954245
   7.7555972  50.3480936  35.0368059   7.5327525  51.9166824  50.5256123
   6.7423069  51.8990963  49.9860622   7.2960880  52.4555118  51.2805159
   7.6525400  48.7659290  47.8388851   7.7023405  48.6009298  48.7804374
   7.5439324  47.8986549  47.4486732   4.9429163  44.7490218  49.1548158
   5.8439026  44.6096683  48.8632156   5.0177137  44.9144673  50.0946335
   9.1543597  51.1856232  48.0830873   8.8628406  51.5486213  48.9194334
   8.5415729  50.4723240  47.9044205  10.3539280  48.7509112  40.6033443
  11.1886171  49.1898916  40.7671003  10.4898408  48.2747765  39.7841689
   7.4030786  46.3088847  46.5510931   7.8784907  46.5016493  45.7429782
   6.4796351  46.3648032  46.3054314   1.9811002  38.3436690  45.5166764
   2.4992946  39.0797717  45.1913253   1.6266135  38.6500683  46.3513524
   2.2323596  34.7636973  41.0367661   2.5125350  34.0960162  41.6628088
   3.0174203  34.9566068  40.5242325   6.1032455  43.1854607  44.7839236
   7.0549877  43.2852704  44.8051460   5.9335905  42.3932875  45.2937321
   4.1246834  40.2710190  44.9698637   3.5296766  40.5515203  44.2745126
   3.8396531  40.7604091  45.7415378   3.2554324  54.2233117  33.7301270
   4.1884998  54.1578678  33.9334145   3.1677537  55.0589384  33.2715802
   5.8842341  53.5398987  30.6905217   5.8055973  53.2058851  31.5840975
   6.7052008  54.0320755  30.6896690   8.5820532  46.4060726  43.8981536
   8.5496852  45.4676727  44.0841220   9.1921156  46.4844763  43.1647361
   8.7315021  43.1971770  43.9439819   8.2154069  42.4130226  43.7569748
   9.6154969  42.8690486  44.1086338   6.3925748  36.9412785  39.9035632
   6.1950569  36.6327874  40.7878964   7.0025453  37.6674424  40.0333562
  14.3997082  47.4676733  43.0387573  15.1300471  47.2062021  43.5995276
  13.7904028  46.7305455  43.0789641  12.4812379  45.6084596  43.6362024
  11.7545543  45.4740561  43.0278515  12.0659666  45.9161424  44.4418742
   2.1499394  36.8221692  37.6532163   2.7030433  37.2417146  38.3122186
   2.3869481  35.8957440  37.6955119   5.5278201  38.9322217  37.1610827
   4.9476870  39.5907021  36.7788880   5.2614134  38.1099562  36.7498245
   3.9781768  38.3327275  39.3632148   4.4781546  38.4443810  38.5546466
   4.6217376  38.0288328  40.0032956   4.3103079  41.0922308  36.2167176
   3.4228934  41.3771958  35.9987370   4.7257069  40.9316071  35.3694452
   7.6617616  41.1168829  39.9321515   8.4378006  41.6065281  40.2046132
   6.9365750  41.5426883  40.3893384  10.0990174  41.8296448  40.9895455
  10.6934665  41.5892184  40.2788764  10.1716758  41.1103579  41.6168992
   3.4546293  50.8566982  30.3115196   4.1582143  51.0616985  30.9272851
   2.7308942  51.4243744  30.5764279   4.2844103  46.6076844  36.4317466
   4.2279305  47.0645395  35.5925098   4.8372446  45.8467528  36.2540308
   8.0948909  42.3966576  37.2567585   7.8385843  41.9963211  38.0875793
   7.4701777  43.1110370  37.1317724  12.4061247  45.1362649  39.7638877
  11.8460805  45.2055838  40.5370439  11.8004750  44.9603633  39.0438373
   5.3632990  51.2949512  32.3613656   6.1978594  50.8630710  32.1791130
   5.2017333  51.1231525  33.2890550   5.0178882  47.7981625  33.7269995
   4.9627686  47.6325896  32.7858439   4.3924938  48.5057658  33.8832185
   2.3324790  50.1030537  53.0523558   3.2015949  50.2771189  52.6910193
   1.8531541  50.9224954  52.9299287   2.1427127  33.8932511  37.5601250
   1.3759523  33.3390997  37.7057932   2.5537832  33.9654379  38.4215402
  13.9917265  61.8119163  42.4568832  14.6295675  61.6925910  41.7532172
  13.8738108  62.7600007  42.5156784  10.8006972  61.7646591  42.3930357
  10.4625483  61.6487656  41.5050892  11.6696740  61.3637756  42.3731363
   6.6593787  63.6182067  38.3827248   6.0958653  63.5272004  37.6143536
   6.5446182  62.7981972  38.8629741  11.2826755  62.9181443  48.3516563
  11.2715395  62.5234241  47.4797066  11.4447394  62.1847515  48.9450334
   4.2058219  65.1133259  41.2211468   4.9979511  64.7724084  40.8057768
   4.4454869  65.2228234  42.1413622  12.2393346  67.2853035  33.6941713
  11.5881326  67.8707115  33.3075727  13.0337709  67.8159230  33.7536750
   6.1648973  64.3742172  34.0928847   6.9379849  63.8271159  33.9541723
   6.5174372  65.2386421  34.3043309   8.0034016  65.7018554  47.2995747
   7.7123882  66.6064185  47.1842413   8.6391000  65.7435082  48.0139816
   8.9290223  63.0795403  43.8897106   9.5253795  62.8551425  43.1754069
   8.9865194  62.3380148  44.4922554   8.5015251  60.5334838  31.7247297
   8.7540772  60.0116360  30.9630760   7.5639810  60.3700984  31.8273981
  13.5458534  59.5370617  39.5322040  14.3321623  59.1190040  39.1812457
  13.8097238  60.4416709  39.7003689  13.7168611  64.9743467  34.2310697
  13.0814444  65.0478093  34.9431602  13.3866018  65.5637066  33.5529776
  18.9466961  59.4745850  40.4355019  19.6792133  58.9045067  40.6692848
  18.1906317  59.0867450  40.8761524   8.2211540  62.4362944  33.9271672
   8.1047798  61.7607848  34.5952756   8.3313800  61.9495318  33.1103825
  10.5643081  61.8973091  37.6318361  10.2001288  61.3703712  38.3431283
  11.4210197  61.5071560  37.4584847  16.4692381  53.1867424  44.8949627
  16.1375706  54.0562835  44.6710842  15.8737995  52.8703708  45.5743658
  10.2048568  56.9262991  32.6279710  10.3722970  57.7943227  32.9950181
  10.0145737  57.0890273  31.7040999  12.9623901  65.3879970  44.2945540
  12.6624624  66.2905009  44.1861347  12.6174960  65.1212153  45.1466693
   6.4136382  61.8393767  40.3282245   5.4886879  61.7069981  40.5359936
   6.6620796  62.6187986  40.8252187  16.3621045  57.9062510  41.9742978
  15.4537922  57.8377919  41.6801739  16.3108640  58.3834455  42.8024803
  10.1837789  59.3820649  33.6126377  10.0637414  59.8277699  34.4511857
   9.4890377  59.7305966  33.0539915   3.7745193  61.4827040  41.1626034
   3.9037575  61.7361519  42.0765445   3.0942645  62.0754748  40.8430689
   7.9444681  72.1524290  37.2616508   7.8668710  73.1032115  37.3404988
   7.3406324  71.8070163  37.9191434  10.4361910  59.3252156  49.9177875
   9.6595245  59.8846076  49.9080739  11.0752474  59.8108939  50.4392745
  18.2282691  56.1078948  43.7520851  17.5857071  56.4011482  43.1060646
  17.7237620  55.9931869  44.5574048  15.8822855  59.8542122  34.4406711
  16.7940711  60.0869508  34.2654408  15.3732502  60.4379166  33.8781789
   8.6908283  62.1337609  49.4795842   9.4322967  62.6722653  49.2030665
   7.9845268  62.7603898  49.6367394  14.1663622  64.2766750  48.0768003
  14.5746978  63.8349160  47.3322636  13.4440884  63.7019377  48.3302196
  10.5194692  59.2139356  45.4501560  11.3655888  59.6378770  45.5936209
  10.4593330  58.5572981  46.1440123  14.4892437  64.8367940  41.8320292
  13.8601299  65.0013654  41.1296360  14.1018099  65.2509550  42.6031256
  18.3681669  65.7722378  39.1864656  17.6832707  66.1521279  38.6361689
  18.4525518  66.3817705  39.9196604  13.6694138  56.8743725  47.1082734
  13.4255070  57.6285785  46.5717010  13.9454068  57.2529072  47.9429981
  15.6232601  63.4182337  45.7859999  15.8349496  64.0614097  45.1094381
  15.5762349  62.5844654  45.3181930  13.2258830  56.0300158  42.6896572
  12.3643309  56.3281411  42.9813309  13.2521264  56.2470557  41.7577604
  10.0420399  64.5742348  39.0970377  10.5058744  64.8530051  38.3075000
   9.7777197  63.6725793  38.9143468   6.9344480  64.1213830  42.0350141
   7.5045837  64.5501098  41.3967625   7.5252592  63.8396414  42.7334326
   8.9789285  60.6965501  35.9059942   9.6813328  61.1486544  36.3733869
   8.6469913  60.0549319  36.5339836   7.4269647  59.2877257  50.2811152
   6.7968307  59.9693538  50.5146549   7.3205734  59.1760339  49.3364290
   2.7214619  58.9549053  41.2077076   1.9313673  59.2106582  40.7317187
   3.2125866  59.7697391  41.3129117  16.7378429  66.2954292  43.9582357
  17.5595872  65.8934480  43.6765038  16.7340831  66.1922527  44.9098473
   4.6729364  59.3193633  38.1660553   3.8760528  59.4312327  38.6844048
   4.4454957  59.6580285  37.3001443  10.5035032  65.8438336  46.1143067
  10.5679464  66.3058743  46.9501239   9.7945956  65.2135701  46.2425377
   1.0052322  59.2079544  43.6392067   1.2560360  60.0926554  43.9049643
   1.5411870  59.0284145  42.8667159  24.8284422  62.6393041  40.3067328
  24.0748130  62.0700439  40.1511333  24.9631963  62.6055705  41.2537963
  10.2183050  67.5106443  35.9822048  10.0828724  68.3557979  36.4106895
  10.7592862  67.7125721  35.2187981   6.7050389  53.5898023  52.6436403
   6.3117335  53.0364222  53.3184047   7.5216530  53.9008602  53.0342920
   3.6712447  65.0281881  36.5549973   4.1836968  65.8225132  36.7055537
   4.3235160  64.3308172  36.4883574   5.4807332  68.1447638  38.6372726
   5.6573960  69.0665602  38.4493710   6.2764165  67.8306057  39.0667106
   9.6218350  55.0055902  50.2356659  10.3628064  55.6063055  50.1561122
   9.8536273  54.2633540  49.6774702   4.7659688  60.1912269  48.5134889
   4.6513203  59.2897527  48.8141988   3.9104206  60.4375966  48.1619706
  11.8451526  68.1330010  50.1122390  11.4015380  67.3466388  49.7943294
  12.5068740  68.3209160  49.4466281   6.6038647  69.6625811  44.6383068
   7.1546072  69.5342875  43.8660062   5.7650123  69.9620700  44.2877961
  13.9432764  68.4132810  48.1403791  13.9251239  69.2341691  47.6484060
  14.8652684  68.2886885  48.3653932  10.4005818  65.9276939  48.9827299
  10.9334155  65.1665227  48.7526607   9.8719899  65.6350591  49.7251454
  13.5675513  51.0337005  44.5120941  13.2239783  51.9238647  44.4360052
  13.9354476  50.8438663  43.6490526   1.6361364  63.3570536  37.3309543
   2.4736586  63.7667544  37.1143251   1.8139631  62.4169978  37.3009737
  13.5325796  61.0245616  33.0193376  13.0172419  61.7950221  33.2581764
  13.2603104  60.3510752  33.6426438  11.1172907  55.8695317  38.0778615
  10.2614503  55.4802167  37.8984253  11.5299859  55.9487278  37.2178400
  12.6472054  53.4041660  42.4770174  12.1436849  53.3671795  41.6637980
  12.9402660  54.3134403  42.5366831   8.8914939  53.4880390  41.4836356
   9.7567936  53.2923199  41.1242246   8.9592448  53.2590742  42.4105713
  18.5060070  63.7777971  34.9546550  17.7289513  63.4389130  34.5101712
  19.1851551  63.7830594  34.2801515  13.3212099  58.8972708  34.8453157
  13.0162235  59.2118857  35.6963301  14.2742541  58.9754128  34.8880490
  11.7658531  65.0562932  36.4946111  11.2379892  64.3215691  36.1819349
  11.2646034  65.8337608  36.2486080  16.7451377  63.2511952  41.6113158
  16.0875051  63.9411214  41.6993286  17.5491776  63.6408384  41.9547144
   6.4977259  55.7182598  38.8552723   7.0721010  55.4957779  38.1225916
   7.0848241  55.7871292  39.6081324  15.5556836  61.6056325  39.6617099
  16.0688717  62.2386317  40.1638809  16.2058060  61.0057520  39.2960459
   6.8246846  57.7487059  32.8748608   5.9884158  58.0861745  33.1957883
   6.6851615  57.6136039  31.9375745   8.7999926  52.5923847  37.5827792
   8.1464339  52.2772864  36.9584407   8.7580400  51.9699587  38.3087615
   9.9111131  62.8743142  29.4981084   9.0038193  62.6432395  29.6972233
  10.4082163  62.0780761  29.6855066  12.8179210  71.5840649  32.4177771
  12.1440909  71.8872346  33.0262728  13.2045032  72.3869729  32.0683228
  12.0337667  59.0805780  41.9075440  11.1160228  59.3020727  41.7497128
  12.4497810  59.1552091  41.0487147  12.8172714  60.4797196  37.0378120
  13.5644533  60.9918593  36.7285242  13.0864304  60.1581249  37.8982514
  11.0899365  62.9755737  34.0205075  10.1810584  62.6914770  34.1177544
  11.1194448  63.3954815  33.1608381  16.3218632  66.5862326  37.7896242
  15.8680959  65.7453236  37.8461433  15.6912599  67.2223725  38.1271022
  15.2651552  57.5154312  39.0196910  14.5274308  57.0031698  39.3507152
  15.5178325  57.0754694  38.2080186  14.7651571  68.4238823  38.7246060
  15.0574546  68.9843880  38.0058426  15.2750192  68.7167384  39.4799219
  15.3663179  50.2930564  39.6138679  15.6722056  49.4327928  39.3264594
  16.0915784  50.8848184  39.4137673   1.6587535  60.6961251  38.0020277
   1.4611935  60.1030612  37.2771343   1.1034199  60.3913461  38.7196216
   9.6384259  60.5884357  40.1214870   9.6932868  59.6358194  40.0457346
   8.8275461  60.7443796  40.6056168  10.7875452  64.5164480  31.3593153
  10.3494882  63.8000339  30.8998790  11.5285893  64.7440595  30.7978244
   7.5776618  59.2061417  37.8805249   6.7644484  59.5055588  38.2870441
   8.0735613  58.8117106  38.5979731   9.7285196  69.2019174  39.8139513
   9.6861375  69.4280020  38.8848045  10.6447895  68.9682549  39.9625315
  13.1750830  59.6703242  46.7120143  13.5300218  59.8974715  47.5714608
  13.8222961  60.0021618  46.0897398  18.9048567  62.7921677  37.4169472
  18.7666466  62.9823273  36.4890661  18.5484786  63.5541060  37.8737523
   7.0690693  56.7779773  43.4966484   7.7090073  56.6368532  42.7989447
   6.2368224  56.4914286  43.1205086  18.9317947  64.8598204  42.4280743
  19.3654453  64.7673494  43.2763797  19.6449527  64.8355705  41.7900759
   7.8450997  66.0782203  39.6101476   8.6391596  65.5832523  39.4084051
   7.1342690  65.5500066  39.2469182  12.6645842  68.4600299  43.9613844
  12.7182864  69.0291235  44.7291560  11.7960623  68.6302184  43.5967881
   4.1533761  60.2225285  35.6861229   3.2231349  60.1609740  35.9031191
   4.2491233  59.7001238  34.8897870   4.0719310  56.7480098  38.2739470
   4.3326127  57.6625431  38.1648631   4.8936482  56.2804540  38.4236083
   5.5444235  58.1617855  45.4438295   6.2167288  57.9535217  44.7950944
   4.7174022  57.9639941  45.0043527  19.7933496  64.9021905  44.9613629
  19.9869386  65.8067716  45.2072903  19.6934114  64.4429324  45.7952214
  11.4469807  54.7879796  47.4603956  10.7997722  55.4869745  47.3668432
  12.2170822  55.2215940  47.8280204  14.8548605  65.0528648  50.5354509
  14.7034111  64.8239200  49.6184593  14.8453284  66.0099249  50.5485854
  11.6233941  62.6260561  45.5200776  12.5526001  62.7771720  45.3469743
  11.2024971  62.7144581  44.6649422  10.4222273  66.6511225  43.2899313
  10.2833359  66.2830009  44.1625251   9.6336869  67.1658864  43.1183271
  11.0170425  71.7520321  34.6324850  11.1922181  71.2808365  35.4470472
  10.3303213  72.3786088  34.8606110  11.9727488  66.0292828  40.6788151
  11.6377321  65.9893598  41.5745801  11.4731434  65.3637544  40.2058561
   5.9471732  61.4360458  46.2040732   5.8091530  60.7040697  46.8052271
   6.8576656  61.3469358  45.9224920  14.9086680  63.3748862  30.9525211
  14.2915851  62.6495690  30.8558263  14.4403168  64.1358222  30.6092285
   8.5754033  61.1480417  45.6924412   9.2853651  60.5073609  45.6511030
   8.5323341  61.3993312  46.6150593  16.5640812  68.0847770  48.6130991
  16.5053358  67.4006991  47.9461574  16.9660330  68.8266760  48.1611617
   7.2882967  58.1345635  47.5120051   6.7520324  57.6836373  48.1641648
   6.6999675  58.2691544  46.7690516   5.5831510  74.9009684  41.4064710
   5.8228109  75.5328208  42.0843728   4.7400707  74.5497724  41.6930069
   6.6985226  57.5934286  30.0746515   5.8214692  57.4723087  29.7108762
   7.1742979  56.8020365  29.8225404  16.5658219  66.0487354  46.8444971
  15.6784998  65.7113276  46.9671370  17.1356770  65.3170386  47.0813736
   3.0222088  57.2701643  44.5973046   2.9380277  56.6627312  43.8623456
   2.2004795  57.7610661  44.5982542  10.0959372  70.7088807  43.8106214
  10.0229544  71.5143778  44.3225518   9.6536765  70.9080773  42.9854235
   9.8849152  69.9460577  37.3209035   9.1016674  70.4882257  37.4147260
  10.5841897  70.4634556  37.7203277  13.1945802  55.7555206  39.9643241
  13.6914502  55.0025169  39.6444311  12.4232784  55.7919523  39.3986450
  21.0475559  61.4595572  41.6061532  21.0365436  62.3420287  41.2355465
  20.1792939  61.1067123  41.4116069  12.5558056  70.6075641  45.9664373
  13.2686028  71.2423106  45.8940274  12.0648084  70.7039507  45.1504374
  14.2775583  64.5126893  37.5381664  13.3431861  64.6328356  37.3686369
  14.4552251  63.6099360  37.2741674   9.7780771  57.8972589  39.6914925
   9.4078558  57.3443630  40.3795831  10.2739863  57.2930723  39.1389925
  17.6648134  60.3544213  38.0731698  18.1308586  61.1872204  37.9992001
  18.1155635  59.8889194  38.7776957   7.6069969  68.3570084  46.7869943
   8.3079429  68.9906567  46.9399338   7.1365084  68.6984816  46.0265583
  15.7324365  66.6988034  35.0717850  16.0084209  66.5844629  35.9811724
  14.8628864  66.3005519  35.0330024  15.6364797  52.7224800  42.1122600
  14.7227877  52.9529027  42.2804807  16.0657898  52.8063244  42.9636632
  15.4071255  60.9114692  44.6122494  14.7542706  61.1590599  43.9574947
  15.7851635  60.0978830  44.2784971  12.3678429  70.9474385  38.7150664
  12.5500824  70.1296041  39.1778416  13.1911415  71.1642077  38.2775554
  12.7020595  69.8742570  35.9765713  13.2308361  69.3635025  35.3635875
  12.9648814  69.5585100  36.8411246  11.4558828  61.6534503  51.0988531
  10.7799465  61.5528632  51.7690906  12.2786462  61.4973716  51.5624528
   3.2037687  67.8906439  43.7201046   3.7891124  67.1450127  43.8528950
   3.0062526  68.2010396  44.6037710   6.0576343  70.9257687  38.7363488
   5.3886718  71.4103814  38.2527529   5.9189212  71.1726907  39.6506867
  10.1981611  72.9601430  45.3346147  10.7499919  73.1233052  46.0995232
  10.5387805  73.5505868  44.6626172   5.1746104  55.3076580  45.9368032
   5.2387431  56.1691411  45.5245429   5.1113225  54.6950582  45.2040390
   4.6498377  57.3799713  49.5841066   5.2770416  56.9976790  50.1978590
   3.7926296  57.1613914  49.9496758  15.0492486  67.7862688  51.1894801
  15.5932389  68.3992646  50.6949756  14.4679330  68.3442266  51.7061814
   1.4263920  59.1876142  35.5159421   1.7217361  58.2786820  35.4626474
   0.5251955  59.1663881  35.1940423  13.3349998  70.9083406  42.3209829
  13.2101138  70.1073146  41.8120774  13.9929090  71.4029599  41.8323799
   4.9558167  57.2632138  41.4986969   4.2344752  57.8768106  41.3594443
   5.7451422  57.7989903  41.4203615  15.3984907  68.7092426  43.9489379
  14.4515242  68.5897777  43.8767706  15.7467680  67.8214924  44.0315641
   7.7584480  54.5986565  47.7727621   8.2818882  54.8448861  48.5353930
   7.5396813  55.4306599  47.3530758   3.1551761  56.8690239  35.6398746
   2.8264467  55.9887618  35.4573852   3.5091132  56.8137908  36.5275135
  12.4031340  68.5045142  40.1493731  12.2556303  67.5761849  40.3301301
  13.2284834  68.5265233  39.6650807   6.2693584  57.1563209  36.0074223
   6.6089657  57.6849130  35.2852832   6.7165705  57.4943615  36.7832790
  16.0065462  69.3273701  41.2358604  16.9312009  69.1216562  41.0983055
  15.8380765  69.0790102  42.1447946   8.9637025  55.5400260  45.4577291
   8.6233846  54.7408073  45.8597971   8.2576032  55.8401971  44.8854125
   9.6153497  52.6249572  43.9104615  10.4379566  52.1510050  43.7883505
   9.8591561  53.4040056  44.4103301   8.2561732  55.6537831  34.2067516
   8.9770094  56.0319083  33.7031233   7.6327036  56.3726707  34.3102494
  12.3992854  56.3582980  35.1425849  12.6156469  57.2407618  34.8414677
  11.9186922  55.9669193  34.4131491   7.1392076  59.3168693  41.7196593
   6.9936657  59.6308996  42.6120875   6.6617279  59.9353593  41.1667492
   8.9988459  56.3071241  41.7677483   8.9850027  55.4112334  41.4309781
   9.7160887  56.3141905  42.4015769  10.8514589  56.7408581  43.8130610
  10.5932367  57.6625652  43.8114941  10.3199630  56.3439016  44.5031074
  15.7960778  69.8459368  36.5920696  15.9697656  69.2805791  35.8394548
  16.2889669  70.6460263  36.4100185   1.6137738  61.8574037  44.6584254
   1.0691206  62.6333845  44.7904529   2.4917088  62.2044842  44.5003376
   8.4025355  55.1885621  37.0365053   8.5241266  54.2602267  37.2355940
   8.1127397  55.2024307  36.1243368  11.2716545  52.8740532  40.1731773
  11.2938242  52.9379865  39.2183752  11.6884604  52.0345040  40.3672279
  21.6500169  62.6095791  38.2110995  22.0931315  61.8603116  37.8130119
  20.7726680  62.6005927  37.8284727  16.7835951  69.1626133  33.6917594
  17.4786855  69.7832825  33.9104908  17.1259101  68.3121484  33.9669972
   2.4003760  60.9843934  47.5514411   1.6585496  61.1326569  48.1379042
   2.0796504  61.2452199  46.6881161  18.6827374  66.6125838  35.2204925
  19.2078698  66.9513111  34.4954245  18.5949726  65.6772853  35.0368059
  10.3447423  70.5259912  47.3494801  10.6534549  70.2809059  48.2217501
  11.1422905  70.7306550  46.8613671  10.3668035  72.6797821  39.5800178
   9.9273025  72.1874200  40.2733034  11.1176152  72.1370789  39.3392253
   2.8460374  68.8709362  39.5824806   3.6718393  68.5713134  39.2023449
   2.4954426  68.1016985  40.0314594   7.8141907  68.2235830  41.6522479
   7.1921916  67.5606535  41.3524707   8.4846774  68.2496962  40.9696127
   7.8866434  56.7017618  51.2454985   7.9354590  57.5779741  50.8632755
   8.4288948  56.1595012  50.6726629  18.3721280  67.2458742  50.5256123
  17.5816824  67.2282881  49.9860622  18.1354634  67.7847035  51.2805159
  18.4919155  64.0951208  47.8388851  18.5417160  63.9301216  48.7804374
  18.3833078  63.2278467  47.4486732   7.3755414  66.7739754  35.1280940
   7.5243534  67.4575218  34.4747613   8.1821857  66.7544844  35.6430396
  15.7822917  60.0782136  49.1548158  16.6832780  59.9388601  48.8632156
  15.8570892  60.2436591  50.0946335  10.1165723  57.4548991  48.0001344
   9.2469032  57.7482557  47.7283933  10.3525203  58.0389436  48.7208608
  19.9937352  66.5148150  48.0830873  19.7022160  66.8778130  48.9194334
  19.3809483  65.8015158  47.9044205  21.1933034  64.0801029  40.6033443
  22.0279925  64.5190833  40.7671003  21.3292163  63.6039683  39.7841689
  18.2424540  61.6380764  46.5510931  18.7178662  61.8308411  45.7429782
  17.3190105  61.6939950  46.3054314   5.1308047  62.8004931  36.1342009
   4.8854089  61.8967261  36.3322219   5.3003961  62.8022082  35.1921487
  12.8204756  53.6728608  45.5166764  13.3386700  54.4089635  45.1913253
  12.4659889  53.9792601  46.3513524   4.4003694  58.5333289  33.6328170
   3.7072939  58.6077644  32.9768206   4.1555446  57.7693633  34.1549687
  13.0717351  50.0928890  41.0367661  13.3519104  49.4252079  41.6628088
  13.8567958  50.2857986  40.5242325  10.8750819  69.2687884  32.5992687
  10.3024786  69.8878071  32.1463159  11.4483613  69.8187246  33.1332609
  16.9426209  58.5146524  44.7839236  17.8943632  58.6144622  44.8051460
  16.7729659  57.7224793  45.2937321  14.9640588  55.6002108  44.9698637
  14.3690521  55.8807120  44.2745126  14.6790285  56.0896008  45.7415378
  14.0948079  69.5525034  33.7301270  15.0278752  69.4870596  33.9334145
  14.0071292  70.3881301  33.2715802  16.7236096  68.8690905  30.6905217
  16.6449727  68.5350768  31.5840975  17.5445762  69.3612673  30.6896690
  19.4214287  61.7352644  43.8981536  19.3890607  60.7968645  44.0841220
  20.0314910  61.8136681  43.1647361  11.2597618  60.6048697  29.9408740
  12.2056722  60.4754905  30.0097158  10.8811863  59.8663359  30.4178168
  19.5708775  58.5263687  43.9439819  19.0547824  57.7422144  43.7569748
  20.4548724  58.1982404  44.1086338  17.2319502  52.2704703  39.9035632
  17.0344323  51.9619791  40.7878964  17.8419208  52.9966342  40.0333562
  25.2390837  62.7968651  43.0387573  25.9694225  62.5353939  43.5995276
  24.6297782  62.0597373  43.0789641  23.3206134  60.9376513  43.6362024
  22.5939297  60.8032478  43.0278515  22.9053421  61.2453342  44.4418742
  11.1436310  64.6566443  51.4009397  12.0639320  64.8345042  51.5949443
  11.1085893  63.7122488  51.2489096   9.4440535  58.5298673  29.8763625
   8.5371990  58.2331786  29.9526339   9.7216516  58.2328491  29.0097911
   4.1398383  62.5667478  44.0432178   4.3584393  63.4984586  44.0620212
   4.5524157  62.2075452  44.8286982  11.0602601  53.0735563  36.0307866
  10.2503329  52.7282648  36.4063112  11.7487017  52.7643107  36.6195478
  12.9893149  52.1513610  37.6532163  13.5424187  52.5709063  38.3122186
  13.2263235  51.2249358  37.6955119   9.0126248  58.1400684  53.4334927
   8.9122975  59.0895041  53.3647018   8.7947790  57.8118922  52.5610997
   8.2139319  55.3885609  30.0175604   9.0758483  55.7140507  30.2771422
   8.3989664  54.6017105  29.5048670  16.3671956  54.2614135  37.1610827
  15.7870625  54.9198939  36.7788880  16.1007889  53.4391480  36.7498245
  14.8175522  53.6619193  39.3632148  15.3175301  53.7735727  38.5546466
  15.4611130  53.3580246  40.0032956   8.8757518  61.5697822  52.2499989
   8.3924600  62.3698183  52.4563878   8.9618457  61.5805767  51.2967433
   2.1443478  63.4026202  40.1721808   2.1214166  63.5013889  39.2203691
   2.4544114  64.2491353  40.4938974   4.8030856  65.4602357  44.2868422
   5.7574109  65.4286299  44.2198354   4.6043379  64.9992981  45.1018648
   5.3930238  64.0303473  46.8539220   6.2123127  64.5247552  46.8774057
   5.6667045  63.1135441  46.8256788  15.1496834  56.4214225  36.2167176
  14.2622689  56.7063876  35.9987370  15.5650823  56.2607989  35.3694452
  18.5011370  56.4460746  39.9321515  19.2771760  56.9357199  40.2046132
  17.7759504  56.8718801  40.3893384  20.9383929  57.1588366  40.9895455
  21.5328419  56.9184102  40.2788764  21.0110512  56.4395496  41.6168992
   3.1581084  71.0021977  41.3038620   3.0235552  70.2422377  40.7376618
   2.7413147  71.7262876  40.8367409  14.2940047  66.1858900  30.3115196
  14.9975898  66.3908903  30.9272851  13.5702696  66.7535662  30.5764279
  15.1237858  61.9368761  36.4317466  15.0673059  62.3937313  35.5925098
  15.6766200  61.1759446  36.2540308  18.9342664  57.7258493  37.2567585
  18.6779598  57.3255129  38.0875793  18.3095532  58.4402287  37.1317724
  23.2455001  60.4654567  39.7638877  22.6854559  60.5347756  40.5370439
  22.6398505  60.2895551  39.0438373   6.3150210  71.8991294  41.5157063
   6.1982594  72.8436726  41.4135753   5.4942657  71.5964855  41.9042862
  16.2026745  66.6241429  32.3613656  17.0372349  66.1922628  32.1791130
  16.0411088  66.4523443  33.2890550  15.8572637  63.1273543  33.7269995
  15.8021441  62.9617814  32.7858439  15.2318692  63.8349576  33.8832185
  13.1718544  65.4322454  53.0523558  14.0409704  65.6063107  52.6910193
  12.6925296  66.2516871  52.9299287   9.1668762  52.6281652  33.3055313
   9.1547432  53.5723492  33.4623584  10.0592184  52.4451797  33.0114774
   7.3404724  72.5519556  44.7312991   8.2431971  72.5843166  45.0479486
   7.1142094  71.6220006  44.7459327   9.0958326  71.3050542  41.3923070
   8.1453957  71.3052404  41.2787442   9.3990813  70.5583277  40.8759105
  12.9820882  49.2224428  37.5601250  12.2153278  48.6682915  37.7057932
  13.3931587  49.2946297  38.4215402   4.9862643  55.5109224  51.6506431
   5.8494105  55.1546029  51.8609756   4.4128054  55.1723119  52.3381836
  24.8311020  77.1411080  42.4568832  25.4689430  77.0217828  41.7532172
  24.7131863  78.0891924  42.5156784  21.6400726  77.0938509  42.3930357
  21.3019238  76.9779573  41.5050892  22.5090494  76.6929674  42.3731363
  17.4987542  78.9473985  38.3827248  16.9352407  78.8563922  37.6143536
  17.3839937  78.1273889  38.8629741  22.1220509  78.2473360  48.3516563
  22.1109150  77.8526159  47.4797066  22.2841149  77.5139433  48.9450334
  15.0451974  80.4425177  41.2211468  15.8373266  80.1016001  40.8057768
  15.2848624  80.5520152  42.1413622  23.0787101  82.6144953  33.6941713
  22.4275080  83.1999033  33.3075727  23.8731463  83.1451148  33.7536750
  17.0042728  79.7034090  34.0928847  17.7773604  79.1563077  33.9541723
  17.3568127  80.5678339  34.3043309  18.8427770  81.0310472  47.2995747
  18.5517636  81.9356103  47.1842413  19.4784755  81.0727000  48.0139816
  19.7683977  78.4087321  43.8897106  20.3647549  78.1843343  43.1754069
  19.8258949  77.6672066  44.4922554  19.3409006  75.8626756  31.7247297
  19.5934526  75.3408277  30.9630760  18.4033565  75.6992901  31.8273981
  24.3852288  74.8662534  39.5322040  25.1715378  74.4481957  39.1812457
  24.6490993  75.7708626  39.7003689  24.5562366  80.3035385  34.2310697
  23.9208199  80.3770011  34.9431602  24.2259772  80.8928983  33.5529776
  29.7860716  74.8037767  40.4355019  30.5185887  74.2336984  40.6692848
  29.0300071  74.4159368  40.8761524  19.0605294  77.7654862  33.9271672
  18.9441552  77.0899765  34.5952756  19.1707554  77.2787236  33.1103825
  21.4036835  77.2265009  37.6318361  21.0395042  76.6995630  38.3431283
  22.2603951  76.8363478  37.4584847  27.3086136  68.5159342  44.8949627
  26.9769461  69.3854753  44.6710842  26.7131749  68.1995626  45.5743658
  21.0442322  72.2554909  32.6279710  21.2116725  73.1235145  32.9950181
  20.8539491  72.4182190  31.7040999  23.8017655  80.7171888  44.2945540
  23.5018378  81.6196926  44.1861347  23.4568715  80.4504071  45.1466693
  17.2530137  77.1685684  40.3282245  16.3280633  77.0361899  40.5359936
  17.5014550  77.9479904  40.8252187  27.2014799  73.2354428  41.9742978
  26.2931677  73.1669836  41.6801739  27.1502395  73.7126373  42.8024803
  21.0231543  74.7112566  33.6126377  20.9031168  75.1569617  34.4511857
  20.3284131  75.0597884  33.0539915  14.6138948  76.8118958  41.1626034
  14.7431329  77.0653437  42.0765445  13.9336399  77.4046666  40.8430689
  18.7838435  87.4816208  37.2616508  18.7062465  88.4324033  37.3404988
  18.1800079  87.1362080  37.9191434  21.2755665  74.6544073  49.9177875
  20.4988999  75.2137994  49.9080739  21.9146228  75.1400856  50.4392745
  29.0676446  71.4370866  43.7520851  28.4250826  71.7303399  43.1060646
  28.5631374  71.3223787  44.5574048  26.7216609  75.1834039  34.4406711
  27.6334465  75.4161426  34.2654408  26.2126256  75.7671084  33.8781789
  19.5302037  77.4629527  49.4795842  20.2716722  78.0014571  49.2030665
  18.8239023  78.0895815  49.6367394  25.0057377  79.6058667  48.0768003
  25.4140733  79.1641078  47.3322636  24.2834638  79.0311295  48.3302196
  21.3588447  74.5431274  45.4501560  22.2049642  74.9670688  45.5936209
  21.2987085  73.8864898  46.1440123  25.3286192  80.1659858  41.8320292
  24.6995054  80.3305572  41.1296360  24.9411854  80.5801467  42.6031256
  29.2075423  81.1014296  39.1864656  28.5226462  81.4813197  38.6361689
  29.2919273  81.7109622  39.9196604  24.5087892  72.2035642  47.1082734
  24.2648824  72.9577703  46.5717010  24.7847823  72.5820990  47.9429981
  26.4626355  78.7474255  45.7859999  26.6743250  79.3906015  45.1094381
  26.4156103  77.9136571  45.3181930  24.0652584  71.3592075  42.6896572
  23.2037063  71.6573329  42.9813309  24.0915019  71.5762474  41.7577604
  20.8814153  79.9034266  39.0970377  21.3452499  80.1821969  38.3075000
  20.6170952  79.0017710  38.9143468  17.7738234  79.4505747  42.0350141
  18.3439592  79.8793016  41.3967625  18.3646346  79.1688332  42.7334326
  19.8183039  76.0257418  35.9059942  20.5207083  76.4778462  36.3733869
  19.4863668  75.3841237  36.5339836  18.2663401  74.6169175  50.2811152
  17.6362062  75.2985456  50.5146549  18.1599489  74.5052257  49.3364290
  13.5608373  74.2840971  41.2077076  12.7707427  74.5398499  40.7317187
  14.0519621  75.0989309  41.3129117  27.5772183  81.6246210  43.9582357
  28.3989627  81.2226397  43.6765038  27.5734586  81.5214444  44.9098473
  15.5123119  74.6485550  38.1660553  14.7154282  74.7604244  38.6844048
  15.2848711  74.9872202  37.3001443  21.3428786  81.1730253  46.1143067
  21.4073219  81.6350661  46.9501239  20.6339710  80.5427618  46.2425377
  11.8446076  74.5371461  43.6392067  12.0954115  75.4218471  43.9049643
  12.3805625  74.3576063  42.8667159  35.6678176  77.9684959  40.3067328
  34.9141884  77.3992357  40.1511333  35.8025717  77.9347623  41.2537963
  21.0576804  82.8398361  35.9822048  20.9222479  83.6849897  36.4106895
  21.5986617  83.0417639  35.2187981  17.5444144  68.9189941  52.6436403
  17.1511089  68.3656139  53.3184047  18.3610284  69.2300519  53.0342920
  14.5106201  80.3573799  36.5549973  15.0230722  81.1517049  36.7055537
  15.1628914  79.6600089  36.4883574  16.3201086  83.4739555  38.6372726
  16.4967715  84.3957520  38.4493710  17.1157920  83.1597974  39.0667106
  20.4612105  70.3347820  50.2356659  21.2021818  70.9354973  50.1561122
  20.6930028  69.5925458  49.6774702  15.6053443  75.5204187  48.5134889
  15.4906958  74.6189444  48.8141988  14.7497960  75.7667884  48.1619706
  22.6845280  83.4621927  50.1122390  22.2409135  82.6758306  49.7943294
  23.3462494  83.6501078  49.4466281  17.4432402  84.9917729  44.6383068
  17.9939827  84.8634792  43.8660062  16.6043878  85.2912618  44.2877961
  24.7826519  83.7424727  48.1403791  24.7644994  84.5633608  47.6484060
  25.7046439  83.6178803  48.3653932  21.2399573  81.2568857  48.9827299
  21.7727909  80.4957145  48.7526607  20.7113654  80.9642509  49.7251454
  24.4069268  66.3628923  44.5120941  24.0633537  67.2530564  44.4360052
  24.7748230  66.1730580  43.6490526  12.4755118  78.6862453  37.3309543
  13.3130340  79.0959462  37.1143251  12.6533386  77.7461895  37.3009737
  24.3719550  76.3537534  33.0193376  23.8566174  77.1242139  33.2581764
  24.0996859  75.6802670  33.6426438  21.9566661  71.1987235  38.0778615
  21.1008258  70.8094085  37.8984253  22.3693613  71.2779195  37.2178400
  23.4865808  68.7333578  42.4770174  22.9830604  68.6963713  41.6637980
  23.7796415  69.6426321  42.5366831  19.7308694  68.8172308  41.4836356
  20.5961691  68.6215116  41.1242246  19.7986203  68.5882659  42.4105713
  29.3453825  79.1069889  34.9546550  28.5683267  78.7681048  34.5101712
  30.0245305  79.1122512  34.2801515  24.1605854  74.2264626  34.8453157
  23.8555989  74.5410775  35.6963301  25.1136296  74.3046046  34.8880490
  22.6052285  80.3854849  36.4946111  22.0773647  79.6507609  36.1819349
  22.1039788  81.1629526  36.2486080  27.5845131  78.5803870  41.6113158
  26.9268806  79.2703131  41.6993286  28.3885531  78.9700302  41.9547144
  17.3371013  71.0474516  38.8552723  17.9114765  70.8249697  38.1225916
  17.9241995  71.1163210  39.6081324  26.3950590  76.9348242  39.6617099
  26.9082472  77.5678234  40.1638809  27.0451814  76.3349438  39.2960459
  17.6640600  73.0778977  32.8748608  16.8277912  73.4153663  33.1957883
  17.5245370  72.9427956  31.9375745  19.6393681  67.9215764  37.5827792
  18.9858093  67.6064782  36.9584407  19.5974155  67.2991505  38.3087615
  20.7504886  78.2035060  29.4981084  19.8431947  77.9724313  29.6972233
  21.2475918  77.4072679  29.6855066  23.6572964  86.9132567  32.4177771
  22.9834663  87.2164264  33.0262728  24.0438786  87.7161647  32.0683228
  22.8731421  74.4097698  41.9075440  21.9553982  74.6312645  41.7497128
  23.2891565  74.4844008  41.0487147  23.6566469  75.8089114  37.0378120
  24.4038288  76.3210511  36.7285242  23.9258058  75.4873166  37.8982514
  21.9293119  78.3047654  34.0205075  21.0204338  78.0206687  34.1177544
  21.9588203  78.7246733  33.1608381  27.1612386  81.9154244  37.7896242
  26.7074714  81.0745154  37.8461433  26.5306353  82.5515642  38.1271022
  26.1045306  72.8446230  39.0196910  25.3668063  72.3323616  39.3507152
  26.3572080  72.4046612  38.2080186  25.6045326  83.7530741  38.7246060
  25.8968300  84.3135798  38.0058426  26.1143946  84.0459302  39.4799219
  26.2056933  65.6222482  39.6138679  26.5115810  64.7619845  39.3264594
  26.9309538  66.2140102  39.4137673  12.4981289  76.0253169  38.0020277
  12.3005689  75.4322529  37.2771343  11.9427953  75.7205379  38.7196216
  20.4778013  75.9176275  40.1214870  20.5326623  74.9650111  40.0457346
  19.6669215  76.0735714  40.6056168  21.6269207  79.8456398  31.3593153
  21.1888637  79.1292257  30.8998790  22.3679648  80.0732513  30.7978244
  18.4170373  74.5353335  37.8805249  17.6038239  74.8347505  38.2870441
  18.9129367  74.1409024  38.5979731  20.5678951  84.5311092  39.8139513
  20.5255130  84.7571938  38.8848045  21.4841650  84.2974466  39.9625315
  24.0144585  74.9995159  46.7120143  24.3693972  75.2266632  47.5714608
  24.6616716  75.3313536  46.0897398  29.7442322  78.1213595  37.4169472
  29.6060220  78.3115191  36.4890661  29.3878540  78.8832978  37.8737523
  17.9084448  72.1071690  43.4966484  18.5483827  71.9660449  42.7989447
  17.0761978  71.8206204  43.1205086  29.7711701  80.1890122  42.4280743
  30.2048208  80.0965411  43.2763797  30.4843282  80.1647623  41.7900759
  18.6844752  81.4074121  39.6101476  19.4785350  80.9124441  39.4084051
  17.9736444  80.8791984  39.2469182  23.5039596  83.7892216  43.9613844
  23.5576618  84.3583153  44.7291560  22.6354377  83.9594101  43.5967881
  14.9927515  75.5517202  35.6861229  14.0625103  75.4901658  35.9031191
  15.0884987  75.0293155  34.8897870  14.9113064  72.0772015  38.2739470
  15.1719881  72.9917349  38.1648631  15.7330236  71.6096458  38.4236083
  16.3837989  73.4909772  45.4438295  17.0561043  73.2827135  44.7950944
  15.5567776  73.2931858  45.0043527  30.6327251  80.2313823  44.9613629
  30.8263141  81.1359633  45.2072903  30.5327869  79.7721242  45.7952214
  22.2863562  70.1171713  47.4603956  21.6391477  70.8161663  47.3668432
  23.0564577  70.5507857  47.8280204  25.6942359  80.3820566  50.5354509
  25.5427866  80.1531117  49.6184593  25.6847039  81.3391167  50.5485854
  22.4627696  77.9552478  45.5200776  23.3919756  78.1063638  45.3469743
  22.0418726  78.0436499  44.6649422  21.2616028  81.9803143  43.2899313
  21.1227113  81.6121927  44.1625251  20.4730624  82.4950782  43.1183271
  21.8564180  87.0812239  34.6324850  22.0315935  86.6100282  35.4470472
  21.1696968  87.7078005  34.8606110  22.8121243  81.3584745  40.6788151
  22.4771075  81.3185515  41.5745801  22.3125188  80.6929461  40.2058561
  16.7865487  76.7652375  46.2040732  16.6485285  76.0332614  46.8052271
  17.6970410  76.6761276  45.9224920  25.7480434  78.7040780  30.9525211
  25.1309605  77.9787608  30.8558263  25.2796923  79.4650140  30.6092285
  19.4147787  76.4772335  45.6924412  20.1247406  75.8365527  45.6511030
  19.3717096  76.7285230  46.6150593  27.4034566  83.4139688  48.6130991
  27.3447112  82.7298908  47.9461574  27.8054084  84.1558678  48.1611617
  18.1276721  73.4637553  47.5120051  17.5914078  73.0128291  48.1641648
  17.5393430  73.5983461  46.7690516  16.4225265  90.2301602  41.4064710
  16.6621863  90.8620126  42.0843728  15.5794461  89.8789642  41.6930069
  17.5378980  72.9226204  30.0746515  16.6608447  72.8015005  29.7108762
  18.0136733  72.1312282  29.8225404  27.4051973  81.3779272  46.8444971
  26.5178752  81.0405194  46.9671370  27.9750524  80.6462303  47.0813736
   9.0581120  77.7103364  40.1688022   9.7452160  77.3965094  39.5809037
   8.9029249  78.6144728  39.8955274  13.8615843  72.5993560  44.5973046
  13.7774031  71.9919230  43.8623456  13.0398549  73.0902579  44.5982542
  20.9353127  86.0380724  43.8106214  20.8623298  86.8435696  44.3225518
  20.4930520  86.2372690  42.9854235  20.7242906  85.2752494  37.3209035
  19.9410428  85.8174175  37.4147260  21.4235652  85.7926474  37.7203277
  24.0339556  71.0847124  39.9643241  24.5308256  70.3317086  39.6444311
  23.2626538  71.1211441  39.3986450  31.8869314  76.7887489  41.6061532
  31.8759190  77.6712205  41.2355465  31.0186693  76.4359040  41.4116069
  23.3951810  85.9367558  45.9664373  24.1079782  86.5715023  45.8940274
  22.9041839  86.0331424  45.1504374  25.1169337  79.8418811  37.5381664
  24.1825616  79.9620274  37.3686369  25.2946006  78.9391278  37.2741674
  20.6174525  73.2264507  39.6914925  20.2472313  72.6735547  40.3795831
  21.1133618  72.6222640  39.1389925  28.5041889  75.6836130  38.0731698
  28.9702341  76.5164122  37.9992001  28.9549389  75.2181112  38.7776957
  18.4463724  83.6862002  46.7869943  19.1473183  84.3198485  46.9399338
  17.9758839  84.0276733  46.0265583  26.5718120  82.0279952  35.0717850
  26.8477964  81.9136546  35.9811724  25.7022618  81.6297437  35.0330024
  26.4758551  68.0516717  42.1122600  25.5621631  68.2820944  42.2804807
  26.9051653  68.1355161  42.9636632  26.2465010  76.2406609  44.6122494
  25.5936460  76.4882517  43.9574947  26.6245390  75.4270748  44.2784971
  23.2072184  86.2766303  38.7150664  23.3894578  85.4587958  39.1778416
  24.0305170  86.4933995  38.2775554  23.5414349  85.2034488  35.9765713
  24.0702116  84.6926942  35.3635875  23.8042569  84.8877018  36.8411246
  22.2952583  76.9826420  51.0988531  21.6193220  76.8820550  51.7690906
  23.1180217  76.8265634  51.5624528  14.0431442  83.2198357  43.7201046
  14.6284879  82.4742045  43.8528950  13.8456280  83.5302314  44.6037710
  16.8970097  86.2549604  38.7363488  16.2280472  86.7395732  38.2527529
  16.7582967  86.5018825  39.6506867   8.6349097  75.7903957  42.4405489
   8.6733196  75.2567548  43.2342607   8.1289389  75.2639163  41.8216466
  21.0375366  88.2893348  45.3346147  21.5893674  88.4524969  46.0995232
  21.3781559  88.8797786  44.6626172  16.0139859  70.6368498  45.9368032
  16.0781185  71.4983329  45.5245429  15.9506979  70.0242499  45.2040390
  15.4892131  72.7091630  49.5841066  16.1164170  72.3268707  50.1978590
  14.6320050  72.4905832  49.9496758  25.8886240  83.1154605  51.1894801
  26.4326144  83.7284564  50.6949756  25.3073085  83.6734184  51.7061814
  12.2657674  74.5168059  35.5159421  12.5611115  73.6078738  35.4626474
  11.3645710  74.4955799  35.1940423  24.1743753  86.2375323  42.3209829
  24.0494892  85.4365063  41.8120774  24.8322844  86.7321517  41.8323799
  15.7951921  72.5924056  41.4986969  15.0738507  73.2060024  41.3594443
  16.5845177  73.1281821  41.4203615  26.2378661  84.0384343  43.9489379
  25.2908997  83.9189695  43.8767706  26.5861434  83.1506841  44.0315641
  18.5978235  69.9278482  47.7727621  19.1212637  70.1740779  48.5353930
  18.3790568  70.7598517  47.3530758  13.9945516  72.1982157  35.6398746
  13.6658222  71.3179536  35.4573852  14.3484886  72.1429826  36.5275135
  23.2425095  83.8337060  40.1493731  23.0950057  82.9053767  40.3301301
  24.0678588  83.8557150  39.6650807  17.1087339  72.4855127  36.0074223
  17.4483411  73.0141048  35.2852832  17.5559459  72.8235533  36.7832790
  26.8459216  84.6565618  41.2358604  27.7705764  84.4508480  41.0983055
  26.6774520  84.4082020  42.1447946  19.8030780  70.8692177  45.4577291
  19.4627600  70.0699991  45.8597971  19.0969786  71.1693888  44.8854125
  20.4547252  67.9541490  43.9104615  21.2773321  67.4801968  43.7883505
  20.6985315  68.7331974  44.4103301  19.0955486  70.9829748  34.2067516
  19.8163849  71.3611001  33.7031233  18.4720790  71.7018625  34.3102494
  23.2386609  71.6874897  35.1425849  23.4550223  72.5699535  34.8414677
  22.7580676  71.2961111  34.4131491  17.9785830  74.6460611  41.7196593
  17.8330411  74.9600914  42.6120875  17.5011034  75.2645511  41.1667492
  19.8382213  71.6363159  41.7677483  19.8243782  70.7404252  41.4309781
  20.5554641  71.6433822  42.4015769  21.6908344  72.0700499  43.8130610
  21.4326122  72.9917569  43.8114941  21.1593384  71.6730933  44.5031074
  26.6354533  85.1751286  36.5920696  26.8091410  84.6097708  35.8394548
  27.1283424  85.9752181  36.4100185  12.4531492  77.1865955  44.6584254
  11.9084961  77.9625763  44.7904529  13.3310842  77.5336759  44.5003376
  19.2419109  70.5177539  37.0365053  19.3635020  69.5894185  37.2355940
  18.9521152  70.5316225  36.1243368  22.1110300  68.2032449  40.1731773
  22.1331996  68.2671782  39.2183752  22.5278359  67.3636958  40.3672279
  32.4893924  77.9387709  38.2110995  32.9325070  77.1895034  37.8130119
  31.6120434  77.9297845  37.8284727  27.6229705  84.4918050  33.6917594
  28.3180610  85.1124743  33.9104908  27.9652855  83.6413401  33.9669972
  13.2397514  76.3135851  47.5514411  12.4979250  76.4618487  48.1379042
  12.9190259  76.5744117  46.6881161  29.5221128  81.9417756  35.2204925
  30.0472452  82.2805029  34.4954245  29.4343481  81.0064771  35.0368059
  21.1841177  85.8551829  47.3494801  21.4928303  85.6100976  48.2217501
  21.9816659  86.0598468  46.8613671  21.2061789  88.0089739  39.5800178
  20.7666779  87.5166118  40.2733034  21.9569906  87.4662707  39.3392253
  13.6854128  84.2001280  39.5824806  14.5112148  83.9005052  39.2023449
  13.3348180  83.4308902  40.0314594  18.6535661  83.5527748  41.6522479
  18.0315670  82.8898453  41.3524707  19.3240528  83.5788880  40.9696127
  11.8862733  82.1187606  40.5413739  11.0494641  81.6909781  40.3597741
  11.8586379  82.3120050  41.4784531  18.7260189  72.0309536  51.2454985
  18.7748344  72.9071659  50.8632755  19.2682703  71.4886929  50.6726629
  29.2115034  82.5750659  50.5256123  28.4210578  82.5574798  49.9860622
  28.9748389  83.1138953  51.2805159  29.3312909  79.4243126  47.8388851
  29.3810914  79.2593133  48.7804374  29.2226833  78.5570385  47.4486732
  18.2149168  82.1031671  35.1280940  18.3637288  82.7867136  34.4747613
  19.0215612  82.0836762  35.6430396  26.6216672  75.4074054  49.1548158
  27.5226535  75.2680519  48.8632156  26.6964646  75.5728509  50.0946335
  20.9559477  72.7840909  48.0001344  20.0862787  73.0774475  47.7283933
  21.1918957  73.3681354  48.7208608  30.8331106  81.8440067  48.0830873
  30.5415915  82.2070048  48.9194334  30.2203238  81.1307076  47.9044205
  32.0326789  79.4092947  40.6033443  32.8673680  79.8482751  40.7671003
  32.1685917  78.9331600  39.7841689  29.0818294  76.9672682  46.5510931
  29.5572416  77.1600328  45.7429782  28.1583860  77.0231868  46.3054314
  15.9701801  78.1296849  36.1342009  15.7247843  77.2259179  36.3322219
  16.1397716  78.1314000  35.1921487  23.6598511  69.0020525  45.5166764
  24.1780455  69.7381552  45.1913253  23.3053644  69.3084519  46.3513524
  15.2397449  73.8625207  33.6328170  14.5466694  73.9369562  32.9768206
  14.9949201  73.0985550  34.1549687  23.9111105  65.4220808  41.0367661
  24.1912859  64.7543997  41.6628088  24.6961712  65.6149904  40.5242325
  21.7144574  84.5979802  32.5992687  21.1418541  85.2169989  32.1463159
  22.2877367  85.1479164  33.1332609  27.7819963  73.8438442  44.7839236
  28.7337386  73.9436540  44.8051460  27.6123414  73.0516711  45.2937321
  25.8034343  70.9294025  44.9698637  25.2084275  71.2099038  44.2745126
  25.5184040  71.4187926  45.7415378  24.9341833  84.8816952  33.7301270
  25.8672507  84.8162514  33.9334145  24.8465046  85.7173219  33.2715802
  27.5629850  84.1982822  30.6905217  27.4843482  83.8642686  31.5840975
  28.3839517  84.6904590  30.6896690  30.2608041  77.0644562  43.8981536
  30.2284361  76.1260562  44.0841220  30.8708665  77.1428598  43.1647361
  22.0991372  75.9340615  29.9408740  23.0450477  75.8046823  30.0097158
  21.7205617  75.1955277  30.4178168  30.4102530  73.8555605  43.9439819
  29.8941578  73.0714062  43.7569748  31.2942478  73.5274322  44.1086338
  28.0713257  67.5996621  39.9035632  27.8738078  67.2911709  40.7878964
  28.6812962  68.3258260  40.0333562  36.0784591  78.1260569  43.0387573
  36.8087980  77.8645857  43.5995276  35.4691537  77.3889290  43.0789641
  34.1599888  76.2668431  43.6362024  33.4333052  76.1324396  43.0278515
  33.7447175  76.5745260  44.4418742  21.9830065  79.9858361  51.4009397
  22.9033074  80.1636960  51.5949443  21.9479648  79.0414406  51.2489096
  20.2834289  73.8590591  29.8763625  19.3765745  73.5623704  29.9526339
  20.5610270  73.5620409  29.0097911  11.2012230  75.1796954  40.3262671
  10.8815014  74.3262263  40.0337045  10.6545658  75.3945533  41.0820639
  14.9792137  77.8959395  44.0432178  15.1978147  78.8276503  44.0620212
  15.3917911  77.5367370  44.8286982  21.8996355  68.4027481  36.0307866
  21.0897083  68.0574566  36.4063112  22.5880772  68.0935025  36.6195478
  23.8286903  67.4805528  37.6532163  24.3817942  67.9000981  38.3122186
  24.0656990  66.5541276  37.6955119  19.8520003  73.4692601  53.4334927
  19.7516729  74.4186958  53.3647018  19.6341545  73.1410840  52.5610997
  19.0533074  70.7177526  30.0175604  19.9152238  71.0432425  30.2771422
  19.2383418  69.9309022  29.5048670  11.0700490  78.7999866  42.2955793
  10.3763961  78.3853819  41.7825747  11.8173481  78.8420402  41.6989212
  27.2065710  69.5906053  37.1610827  26.6264379  70.2490857  36.7788880
  26.9401643  68.7683397  36.7498245  25.6569277  68.9911110  39.3632148
  26.1569055  69.1027645  38.5546466  26.3004885  68.6872163  40.0032956
  19.7151273  76.8989740  52.2499989  19.2318354  77.6990100  52.4563878
  19.8012212  76.9097685  51.2967433  12.9837232  78.7318120  40.1721808
  12.9607920  78.8305807  39.2203691  13.2937869  79.5783271  40.4938974
  15.6424610  80.7894275  44.2868422  16.5967864  80.7578217  44.2198354
  15.4437134  80.3284899  45.1018648  16.2323992  79.3595391  46.8539220
  17.0516881  79.8539469  46.8774057  16.5060800  78.4427359  46.8256788
  25.9890588  71.7506143  36.2167176  25.1016443  72.0355794  35.9987370
  26.4044577  71.5899907  35.3694452  29.3405125  71.7752664  39.9321515
  30.1165515  72.2649117  40.2046132  28.6153259  72.2010718  40.3893384
  31.7777683  72.4880283  40.9895455  32.3722174  72.2476019  40.2788764
  31.8504267  71.7687414  41.6168992  13.9974839  86.3313894  41.3038620
  13.8629307  85.5714295  40.7376618  13.5806901  87.0554794  40.8367409
  25.1333802  81.5150818  30.3115196  25.8369652  81.7200820  30.9272851
  24.4096451  82.0827580  30.5764279  25.9631612  77.2660679  36.4317466
  25.9066814  77.7229230  35.5925098  26.5159955  76.5051364  36.2540308
  29.7736418  73.0550411  37.2567585  29.5173352  72.6547047  38.0875793
  29.1489286  73.7694205  37.1317724  34.0848756  75.7946484  39.7638877
  33.5248314  75.8639673  40.5370439  33.4792259  75.6187469  39.0438373
  17.1543965  87.2283211  41.5157063  17.0376349  88.1728644  41.4135753
  16.3336411  86.9256773  41.9042862  27.0420499  81.9533347  32.3613656
  27.8766103  81.5214545  32.1791130  26.8804842  81.7815361  33.2890550
  26.6966391  78.4565460  33.7269995  26.6415195  78.2909732  32.7858439
  26.0712447  79.1641493  33.8832185  11.4858906  73.6933525  47.5531417
  12.1317770  73.1832479  48.0418642  11.2776058  74.4302206  48.1274842
  24.0112299  80.7614372  53.0523558  24.8803458  80.9355024  52.6910193
  23.5319050  81.5808789  52.9299287  20.0062517  67.9573569  33.3055313
  19.9941187  68.9015409  33.4623584  20.8985939  67.7743715  33.0114774
  18.1798479  87.8811473  44.7312991  19.0825726  87.9135083  45.0479486
  17.9535849  86.9511924  44.7459327  19.9352081  86.6342460  41.3923070
  18.9847712  86.6344321  41.2787442  20.2384567  85.8875194  40.8759105
  23.8214636  64.5516346  37.5601250  23.0547032  63.9974833  37.7057932
  24.2325341  64.6238215  38.4215402  15.8256397  70.8401142  51.6506431
  16.6887859  70.4837947  51.8609756  15.2521808  70.5015037  52.3381836
  35.6704774  92.4702998  42.4568832  36.3083184  92.3509745  41.7532172
  35.5525617  93.4183842  42.5156784  32.4794481  92.4230426  42.3930357
  32.1412992  92.3071491  41.5050892  33.3484249  92.0221591  42.3731363
  28.3381296  94.2765903  38.3827248  27.7746161  94.1855840  37.6143536
  28.2233691  93.4565807  38.8629741  32.9614264  93.5765278  48.3516563
  32.9502904  93.1818076  47.4797066  33.1234903  92.8431351  48.9450334
  25.8845728  95.7717094  41.2211468  26.6767020  95.4307919  40.8057768
  26.1242378  95.8812069  42.1413622  33.9180855  97.9436870  33.6941713
  33.2668835  98.5290951  33.3075727  34.7125218  98.4743065  33.7536750
  27.8436482  95.0326007  34.0928847  28.6167358  94.4854995  33.9541723
  28.1961881  95.8970257  34.3043309  29.6821525  96.3602390  47.2995747
  29.3911391  97.2648021  47.1842413  30.3178509  96.4018917  48.0139816
  30.6077732  93.7379238  43.8897106  31.2041304  93.5135261  43.1754069
  30.6652703  92.9963984  44.4922554  30.1802760  91.1918674  31.7247297
  30.4328281  90.6700195  30.9630760  29.2427319  91.0284819  31.8273981
  35.2246043  90.1954452  39.5322040  36.0109132  89.7773875  39.1812457
  35.4884747  91.1000544  39.7003689  35.3956120  95.6327302  34.2310697
  34.7601953  95.7061929  34.9431602  35.0653527  96.2220901  33.5529776
  40.6254470  90.1329685  40.4355019  41.3579642  89.5628902  40.6692848
  39.8693826  89.7451286  40.8761524  29.8999049  93.0946780  33.9271672
  29.7835307  92.4191683  34.5952756  30.0101309  92.6079153  33.1103825
  32.2430590  92.5556927  37.6318361  31.8788797  92.0287548  38.3431283
  33.0997706  92.1655396  37.4584847  38.1479890  83.8451259  44.8949627
  37.8163215  84.7146670  44.6710842  37.5525504  83.5287543  45.5743658
  31.8836077  87.5846826  32.6279710  32.0510479  88.4527063  32.9950181
  31.6933246  87.7474108  31.7040999  34.6411410  96.0463805  44.2945540
  34.3412133  96.9488844  44.1861347  34.2962469  95.7795988  45.1466693
  28.0923891  92.4977602  40.3282245  27.1674388  92.3653816  40.5359936
  28.3408305  93.2771821  40.8252187  38.0408554  88.5646345  41.9742978
  37.1325431  88.4961754  41.6801739  37.9896149  89.0418290  42.8024803
  31.8625298  90.0404484  33.6126377  31.7424923  90.4861535  34.4511857
  31.1677886  90.3889802  33.0539915  25.4532702  92.1410876  41.1626034
  25.5825084  92.3945355  42.0765445  24.7730154  92.7338584  40.8430689
  32.1149419  89.9835991  49.9177875  31.3382754  90.5429911  49.9080739
  32.7539982  90.4692774  50.4392745  39.9070200  86.7662784  43.7520851
  39.2644580  87.0595317  43.1060646  39.4025129  86.6515704  44.5574048
  37.5610364  90.5125957  34.4406711  38.4728220  90.7453344  34.2654408
  37.0520011  91.0963001  33.8781789  30.3695792  92.7921444  49.4795842
  31.1110476  93.3306488  49.2030665  29.6632777  93.4187733  49.6367394
  35.8451131  94.9350585  48.0768003  36.2534487  94.4932995  47.3322636
  35.1228393  94.3603212  48.3302196  32.1982201  89.8723192  45.4501560
  33.0443397  90.2962605  45.5936209  32.1380839  89.2156816  46.1440123
  36.1679946  95.4951775  41.8320292  35.5388808  95.6597490  41.1296360
  35.7805608  95.9093385  42.6031256  40.0469178  96.4306213  39.1864656
  39.3620216  96.8105115  38.6361689  40.1313027  97.0401540  39.9196604
  35.3481647  87.5327560  47.1082734  35.1042579  88.2869621  46.5717010
  35.6241577  87.9112908  47.9429981  37.3020110  94.0766172  45.7859999
  37.5137005  94.7197932  45.1094381  37.2549858  93.2428489  45.3181930
  34.9046338  86.6883993  42.6896572  34.0430818  86.9865247  42.9813309
  34.9308773  86.9054392  41.7577604  31.7207908  95.2326184  39.0970377
  32.1846253  95.5113887  38.3075000  31.4564706  94.3309628  38.9143468
  28.6131989  94.7797665  42.0350141  29.1833346  95.2084933  41.3967625
  29.2040101  94.4980250  42.7334326  30.6576794  91.3549336  35.9059942
  31.3600837  91.8070380  36.3733869  30.3257422  90.7133155  36.5339836
  29.1057155  89.9461093  50.2811152  28.4755816  90.6277373  50.5146549
  28.9993243  89.8344174  49.3364290  24.4002128  89.6132889  41.2077076
  23.6101182  89.8690417  40.7317187  24.8913375  90.4281226  41.3129117
  38.4165937  96.9538128  43.9582357  39.2383381  96.5518315  43.6765038
  38.4128340  96.8506362  44.9098473  26.3516873  89.9777468  38.1660553
  25.5548037  90.0896162  38.6844048  26.1242466  90.3164120  37.3001443
  32.1822541  96.5022171  46.1143067  32.2466973  96.9642578  46.9501239
  31.4733465  95.8719536  46.2425377  22.6839831  89.8663379  43.6392067
  22.9347869  90.7510389  43.9049643  23.2199379  89.6867981  42.8667159
  46.5071931  93.2976876  40.3067328  45.7535639  92.7284274  40.1511333
  46.6419472  93.2639541  41.2537963  31.8970559  98.1690279  35.9822048
  31.7616233  99.0141814  36.4106895  32.4380371  98.3709556  35.2187981
  28.3837898  84.2481858  52.6436403  27.9904844  83.6948057  53.3184047
  29.2004039  84.5592437  53.0342920  25.3499956  95.6865717  36.5549973
  25.8624477  96.4808967  36.7055537  26.0022669  94.9892007  36.4883574
  27.1594841  98.8031473  38.6372726  27.3361469  99.7249438  38.4493710
  27.9551674  98.4889892  39.0667106  31.3005859  85.6639738  50.2356659
  32.0415573  86.2646891  50.1561122  31.5323782  84.9217375  49.6774702
  26.4447197  90.8496105  48.5134889  26.3300712  89.9481362  48.8141988
  25.5891715  91.0959802  48.1619706  33.5239035  98.7913845  50.1122390
  33.0802889  98.0050224  49.7943294  34.1856249  98.9792996  49.4466281
  28.2826156 100.3209647  44.6383068  28.8333581 100.1926710  43.8660062
  27.4437632 100.6204536  44.2877961  35.6220273  99.0716645  48.1403791
  35.6038748  99.8925526  47.6484060  36.5440193  98.9470720  48.3653932
  32.0793327  96.5860774  48.9827299  32.6121664  95.8249063  48.7526607
  31.5507408  96.2934426  49.7251454  35.2463022  81.6920840  44.5120941
  34.9027292  82.5822482  44.4360052  35.6141985  81.5022498  43.6490526
  23.3148873  94.0154371  37.3309543  24.1524095  94.4251379  37.1143251
  23.4927140  93.0753813  37.3009737  35.2113305  91.6829452  33.0193376
  34.6959928  92.4534056  33.2581764  34.9390613  91.0094588  33.6426438
  32.7960416  86.5279152  38.0778615  31.9402012  86.1386003  37.8984253
  33.2087368  86.6071113  37.2178400  34.3259563  84.0625496  42.4770174
  33.8224358  84.0255631  41.6637980  34.6190169  84.9718238  42.5366831
  30.5702448  84.1464225  41.4836356  31.4355445  83.9507034  41.1242246
  30.6379957  83.9174577  42.4105713  40.1847579  94.4361806  34.9546550
  39.4077022  94.0972966  34.5101712  40.8639060  94.4414429  34.2801515
  34.9999608  89.5556544  34.8453157  34.6949744  89.8702693  35.6963301
  35.9530050  89.6337964  34.8880490  33.4446040  95.7146767  36.4946111
  32.9167401  94.9799527  36.1819349  32.9433543  96.4921443  36.2486080
  38.4238886  93.9095787  41.6113158  37.7662560  94.5995049  41.6993286
  39.2279285  94.2992219  41.9547144  28.1764768  86.3766433  38.8552723
  28.7508519  86.1541615  38.1225916  28.7635750  86.4455128  39.6081324
  37.2344345  92.2640160  39.6617099  37.7476226  92.8970152  40.1638809
  37.8845569  91.6641356  39.2960459  28.5034355  88.4070894  32.8748608
  27.6671667  88.7445581  33.1957883  28.3639124  88.2719874  31.9375745
  30.4787435  83.2507682  37.5827792  29.8251848  82.9356699  36.9584407
  30.4367909  82.6283423  38.3087615  31.5898640  93.5326977  29.4981084
  30.6825702  93.3016231  29.6972233  32.0869672  92.7364596  29.6855066
  34.4966719 102.2424484  32.4177771  33.8228418 102.5456181  33.0262728
  34.8832541 103.0453565  32.0683228  33.7125176  89.7389616  41.9075440
  32.7947737  89.9604563  41.7497128  34.1285319  89.8135926  41.0487147
  34.4960223  91.1381031  37.0378120  35.2432042  91.6502429  36.7285242
  34.7651813  90.8165084  37.8982514  32.7686874  93.6339572  34.0205075
  31.8598093  93.3498605  34.1177544  32.7981957  94.0538651  33.1608381
  38.0006141  97.2446162  37.7896242  37.5468468  96.4037071  37.8461433
  37.3700108  97.8807560  38.1271022  36.9439060  88.1738148  39.0196910
  36.2061817  87.6615534  39.3507152  37.1965834  87.7338529  38.2080186
  36.4439080  99.0822658  38.7246060  36.7362055  99.6427715  38.0058426
  36.9537701  99.3751219  39.4799219  37.0450688  80.9514400  39.6138679
  37.3509565  80.0911763  39.3264594  37.7703293  81.5432020  39.4137673
  23.3375044  91.3545086  38.0020277  23.1399444  90.7614447  37.2771343
  22.7821708  91.0497296  38.7196216  31.3171768  91.2468193  40.1214870
  31.3720377  90.2942029  40.0457346  30.5062970  91.4027632  40.6056168
  32.4662961  95.1748316  31.3593153  32.0282391  94.4584175  30.8998790
  33.2073402  95.4024431  30.7978244  29.2564127  89.8645252  37.8805249
  28.4431993  90.1639423  38.2870441  29.7523122  89.4700941  38.5979731
  31.4072705  99.8603009  39.8139513  31.3648884 100.0863856  38.8848045
  32.3235404  99.6266384  39.9625315  34.8538339  90.3287077  46.7120143
  35.2087727  90.5558550  47.5714608  35.5010470  90.6605454  46.0897398
  40.5836076  93.4505513  37.4169472  40.4453975  93.6407109  36.4890661
  40.2272295  94.2124896  37.8737523  28.7478202  87.4363608  43.4966484
  29.3877582  87.2952367  42.7989447  27.9155733  87.1498121  43.1205086
  40.6105456  95.5182040  42.4280743  41.0441962  95.4257329  43.2763797
  41.3237036  95.4939540  41.7900759  29.5238506  96.7366038  39.6101476
  30.3179105  96.2416359  39.4084051  28.8130199  96.2083902  39.2469182
  34.3433351  99.1184134  43.9613844  34.3970373  99.6875070  44.7291560
  33.4748132  99.2886019  43.5967881  25.8321270  90.8809120  35.6861229
  24.9018858  90.8193576  35.9031191  25.9278742  90.3585073  34.8897870
  25.7506819  87.4063933  38.2739470  26.0113636  88.3209266  38.1648631
  26.5723991  86.9388376  38.4236083  27.2231744  88.8201690  45.4438295
  27.8954797  88.6119052  44.7950944  26.3961531  88.6223776  45.0043527
  41.4721005  95.5605740  44.9613629  41.6656895  96.4651551  45.2072903
  41.3721623  95.1013160  45.7952214  33.1257316  85.4463631  47.4603956
  32.4785231  86.1453581  47.3668432  33.8958331  85.8799775  47.8280204
  36.5336114  95.7112483  50.5354509  36.3821620  95.4823035  49.6184593
  36.5240793  96.6683085  50.5485854  33.3021450  93.2844396  45.5200776
  34.2313510  93.4355556  45.3469743  32.8812480  93.3728417  44.6649422
  32.1009782  97.3095060  43.2899313  31.9620868  96.9413845  44.1625251
  31.3124378  97.8242700  43.1183271  32.6957934 102.4104157  34.6324850
  32.8709690 101.9392200  35.4470472  32.0090722 103.0369923  34.8606110
  33.6514997  96.6876663  40.6788151  33.3164830  96.6477433  41.5745801
  33.1518943  96.0221379  40.2058561  27.6259241  92.0944293  46.2040732
  27.4879039  91.3624532  46.8052271  28.5364165  92.0053193  45.9224920
  36.5874189  94.0332697  30.9525211  35.9703360  93.3079526  30.8558263
  36.1190677  94.7942058  30.6092285  30.2541542  91.8064252  45.6924412
  30.9641160  91.1657445  45.6511030  30.2110850  92.0577147  46.6150593
  38.2428321  98.7431606  48.6130991  38.1840867  98.0590826  47.9461574
  38.6447839  99.4850596  48.1611617  28.9670476  88.7929470  47.5120051
  28.4307833  88.3420209  48.1641648  28.3787184  88.9275379  46.7690516
  28.3772735  88.2518122  30.0746515  27.5002201  88.1306923  29.7108762
  28.8530488  87.4604200  29.8225404  38.2445728  96.7071190  46.8444971
  37.3572507  96.3697111  46.9671370  38.8144279  95.9754221  47.0813736
  19.8974875  93.0395281  40.1688022  20.5845915  92.7257011  39.5809037
  19.7423004  93.9436646  39.8955274  24.7009597  87.9285478  44.5973046
  24.6167786  87.3211148  43.8623456  23.8792304  88.4194496  44.5982542
  31.7746881 101.3672642  43.8106214  31.7017053 102.1727614  44.3225518
  31.3324274 101.5664608  42.9854235  31.5636661 100.6044412  37.3209035
  30.7804183 101.1466092  37.4147260  32.2629406 101.1218392  37.7203277
  34.8733311  86.4139042  39.9643241  35.3702011  85.6609004  39.6444311
  34.1020292  86.4503358  39.3986450  42.7263068  92.1179407  41.6061532
  42.7152945  93.0004123  41.2355465  41.8580448  91.7650958  41.4116069
  34.2345565 101.2659476  45.9664373  34.9473537 101.9006941  45.8940274
  33.7435593 101.3623342  45.1504374  35.9563092  95.1710729  37.5381664
  35.0219370  95.2912191  37.3686369  36.1339760  94.2683196  37.2741674
  31.4568280  88.5556425  39.6914925  31.0866067  88.0027465  40.3795831
  31.9527372  87.9514558  39.1389925  39.3435643  91.0128048  38.0731698
  39.8096095  91.8456040  37.9992001  39.7943144  90.5473030  38.7776957
  29.2857478  99.0153920  46.7869943  29.9866938  99.6490403  46.9399338
  28.8152593  99.3568651  46.0265583  37.4111874  97.3571869  35.0717850
  37.6871718  97.2428464  35.9811724  36.5416373  96.9589354  35.0330024
  37.3152306  83.3808635  42.1122600  36.4015386  83.6112862  42.2804807
  37.7445407  83.4647079  42.9636632  37.0858764  91.5698527  44.6122494
  36.4330215  91.8174434  43.9574947  37.4639144  90.7562665  44.2784971
  34.0465938 101.6058220  38.7150664  34.2288333 100.7879876  39.1778416
  34.8698924 101.8225912  38.2775554  34.3808104 100.5326405  35.9765713
  34.9095870 100.0218860  35.3635875  34.6436323 100.2168936  36.8411246
  33.1346337  92.3118338  51.0988531  32.4586974  92.2112467  51.7690906
  33.9573971  92.1557552  51.5624528  24.8825196  98.5490275  43.7201046
  25.4678633  97.8033963  43.8528950  24.6850035  98.8594231  44.6037710
  19.4742851  91.1195875  42.4405489  19.5126951  90.5859465  43.2342607
  18.9683144  90.5931080  41.8216466  26.8533613  85.9660415  45.9368032
  26.9174940  86.8275246  45.5245429  26.7900734  85.3534417  45.2040390
  26.3285886  88.0383548  49.5841066  26.9557925  87.6560625  50.1978590
  25.4713805  87.8197750  49.9496758  36.7279994  98.4446523  51.1894801
  37.2719898  99.0576481  50.6949756  36.1466839  99.0026101  51.7061814
  23.1051429  89.8459977  35.5159421  23.4004870  88.9370655  35.4626474
  22.2039464  89.8247716  35.1940423  35.0137507 101.5667241  42.3209829
  34.8888647 100.7656981  41.8120774  35.6716599 102.0613434  41.8323799
  26.6345676  87.9215974  41.4986969  25.9132261  88.5351941  41.3594443
  27.4238931  88.4573738  41.4203615  37.0772416  99.3676261  43.9489379
  36.1302751  99.2481612  43.8767706  37.4255189  98.4798759  44.0315641
  29.4371989  85.2570400  47.7727621  29.9606391  85.5032697  48.5353930
  29.2184322  86.0890435  47.3530758  24.8339270  87.5274075  35.6398746
  24.5051976  86.6471454  35.4573852  25.1878641  87.4721743  36.5275135
  34.0818849  99.1628977  40.1493731  33.9343812  98.2345685  40.3301301
  34.9072343  99.1849068  39.6650807  27.9481093  87.8147044  36.0074223
  28.2877166  88.3432966  35.2852832  28.3953214  88.1527451  36.7832790
  37.6852971  99.9857536  41.2358604  38.6099518  99.7800397  41.0983055
  37.5168274  99.7373937  42.1447946  30.6424534  86.1984095  45.4577291
  30.3021355  85.3991908  45.8597971  29.9363541  86.4985806  44.8854125
  31.2941006  83.2833408  43.9104615  32.1167075  82.8093886  43.7883505
  31.5379070  84.0623891  44.4103301  29.9349241  86.3121666  34.2067516
  30.6557603  86.6902919  33.7031233  29.3114545  87.0310543  34.3102494
  34.0780363  87.0166815  35.1425849  34.2943978  87.8991453  34.8414677
  33.5974431  86.6253028  34.4131491  28.8179585  89.9752528  41.7196593
  28.6724166  90.2892831  42.6120875  28.3404788  90.5937429  41.1667492
  30.6775968  86.9655076  41.7677483  30.6637536  86.0696170  41.4309781
  31.3948396  86.9725740  42.4015769  32.5302098  87.3992416  43.8130610
  32.2719876  88.3209487  43.8114941  31.9987139  87.0022851  44.5031074
  37.4748287 100.5043204  36.5920696  37.6485165  99.9389626  35.8394548
  37.9677178 101.3044098  36.4100185  23.2925247  92.5157873  44.6584254
  22.7478715  93.2917681  44.7904529  24.1704597  92.8628677  44.5003376
  30.0812864  85.8469456  37.0365053  30.2028775  84.9186103  37.2355940
  29.7914906  85.8608142  36.1243368  32.9504054  83.5324367  40.1731773
  32.9725751  83.5963700  39.2183752  33.3672113  82.6928876  40.3672279
  43.3287678  93.2679626  38.2110995  43.7718824  92.5186952  37.8130119
  42.4514189  93.2589763  37.8284727  38.4623460  99.8209968  33.6917594
  39.1574364 100.4416661  33.9104908  38.8046610  98.9705319  33.9669972
  24.0791269  91.6427769  47.5514411  23.3373005  91.7910404  48.1379042
  23.7584013  91.9036034  46.6881161  40.3614883  97.2709673  35.2204925
  40.8866207  97.6096946  34.4954245  40.2737235  96.3356689  35.0368059
  32.0234931 101.1843747  47.3494801  32.3322058 100.9392894  48.2217501
  32.8210414 101.3890386  46.8613671  32.0455544 103.3381657  39.5800178
  31.6060534 102.8458035  40.2733034  32.7963660 102.7954624  39.3392253
  24.5247883  99.5293198  39.5824806  25.3505902  99.2296969  39.2023449
  24.1741935  98.7600820  40.0314594  29.4929416  98.8819666  41.6522479
  28.8709425  98.2190371  41.3524707  30.1634283  98.9080798  40.9696127
  22.7256488  97.4479524  40.5413739  21.8888396  97.0201698  40.3597741
  22.6980133  97.6411967  41.4784531  29.5653943  87.3601454  51.2454985
  29.6142099  88.2363577  50.8632755  30.1076457  86.8178847  50.6726629
  40.0508789  97.9042577  50.5256123  39.2604333  97.8866716  49.9860622
  39.8142143  98.4430871  51.2805159  40.1706664  94.7535043  47.8388851
  40.2204669  94.5885051  48.7804374  40.0620587  93.8862302  47.4486732
  29.0542923  97.4323589  35.1280940  29.2031043  98.1159054  34.4747613
  29.8609366  97.4128679  35.6430396  37.4610426  90.7365971  49.1548158
  38.3620289  90.5972436  48.8632156  37.5358401  90.9020426  50.0946335
  31.7953232  88.1132826  48.0001344  30.9256541  88.4066392  47.7283933
  32.0312712  88.6973271  48.7208608  41.6724861  97.1731985  48.0830873
  41.3809669  97.5361966  48.9194334  41.0596992  96.4598993  47.9044205
  42.8720543  94.7384865  40.6033443  43.7067434  95.1774669  40.7671003
  43.0079672  94.2623518  39.7841689  39.9212049  92.2964600  46.5510931
  40.3966171  92.4892246  45.7429782  38.9977614  92.3523785  46.3054314
  26.8095556  93.4588767  36.1342009  26.5641598  92.5551097  36.3322219
  26.9791470  93.4605917  35.1921487  34.4992265  84.3312443  45.5166764
  35.0174209  85.0673470  45.1913253  34.1447398  84.6376436  46.3513524
  26.0791203  89.1917124  33.6328170  25.3860448  89.2661479  32.9768206
  25.8342955  88.4277468  34.1549687  34.7504860  80.7512726  41.0367661
  35.0306613  80.0835915  41.6628088  35.5355467  80.9441821  40.5242325
  32.5538328  99.9271720  32.5992687  31.9812295 100.5461907  32.1463159
  33.1271122 100.4771081  33.1332609  38.6213718  89.1730360  44.7839236
  39.5731141  89.2728457  44.8051460  38.4517168  88.3808628  45.2937321
  36.6428097  86.2585943  44.9698637  36.0478030  86.5390956  44.2745126
  36.3577794  86.7479844  45.7415378  35.7735588 100.2108870  33.7301270
  36.7066261 100.1454431  33.9334145  35.6858801 101.0465137  33.2715802
  38.4023605  99.5274740  30.6905217  38.3237236  99.1934604  31.5840975
  39.2233271 100.0196508  30.6896690  41.1001796  92.3936479  43.8981536
  41.0678116  91.4552480  44.0841220  41.7102419  92.4720516  43.1647361
  32.9385127  91.2632532  29.9408740  33.8844231  91.1338740  30.0097158
  32.5599372  90.5247194  30.4178168  41.2496284  89.1847523  43.9439819
  40.7335333  88.4005979  43.7569748  42.1336233  88.8566239  44.1086338
  38.9107011  82.9288538  39.9035632  38.7131832  82.6203627  40.7878964
  39.5206717  83.6550177  40.0333562  46.9178346  93.4552486  43.0387573
  47.6481734  93.1937774  43.5995276  46.3085291  92.7181208  43.0789641
  44.9993643  91.5960349  43.6362024  44.2726806  91.4616314  43.0278515
  44.5840930  91.9037177  44.4418742  32.8223819  95.3150278  51.4009397
  33.7426829  95.4928877  51.5949443  32.7873402  94.3706324  51.2489096
  31.1228044  89.1882509  29.8763625  30.2159499  88.8915621  29.9526339
  31.4004025  88.8912327  29.0097911  22.0405984  90.5088872  40.3262671
  21.7208769  89.6554180  40.0337045  21.4939412  90.7237450  41.0820639
  25.8185892  93.2251313  44.0432178  26.0371901  94.1568421  44.0620212
  26.2311666  92.8659288  44.8286982  32.7390110  83.7319398  36.0307866
  31.9290838  83.3866483  36.4063112  33.4274526  83.4226942  36.6195478
  34.6680658  82.8097445  37.6532163  35.2211696  83.2292899  38.3122186
  34.9050744  81.8833193  37.6955119  30.6913757  88.7984519  53.4334927
  30.5910484  89.7478876  53.3647018  30.4735299  88.4702758  52.5610997
  29.8926828  86.0469444  30.0175604  30.7545992  86.3724342  30.2771422
  30.0777173  85.2600940  29.5048670  21.9094244  94.1291784  42.2955793
  21.2157716  93.7145736  41.7825747  22.6567235  94.1712320  41.6989212
  38.0459465  84.9197970  37.1610827  37.4658134  85.5782774  36.7788880
  37.7795398  84.0975315  36.7498245  36.4963031  84.3203028  39.3632148
  36.9962810  84.4319563  38.5546466  37.1398639  84.0164081  40.0032956
  30.5545027  92.2281658  52.2499989  30.0712109  93.0282018  52.4563878
  30.6405966  92.2389603  51.2967433  23.8230987  94.0610037  40.1721808
  23.8001675  94.1597725  39.2203691  24.1331623  94.9075188  40.4938974
  26.4818365  96.1186192  44.2868422  27.4361618  96.0870135  44.2198354
  26.2830888  95.6576816  45.1018648  27.0717747  94.6887308  46.8539220
  27.8910636  95.1831387  46.8774057  27.3454554  93.7719277  46.8256788
  36.8284343  87.0798061  36.2167176  35.9410198  87.3647711  35.9987370
  37.2438332  86.9191824  35.3694452  40.1798879  87.1044582  39.9321515
  40.9559269  87.5941034  40.2046132  39.4547013  87.5302636  40.3893384
  42.6171438  87.8172201  40.9895455  43.2115928  87.5767937  40.2788764
  42.6898021  87.0979332  41.6168992  35.9727556  96.8442735  30.3115196
  36.6763406  97.0492738  30.9272851  35.2490205  97.4119497  30.5764279
  36.8025367  92.5952597  36.4317466  36.7460568  93.0521148  35.5925098
  37.3553709  91.8343281  36.2540308  40.6130173  88.3842329  37.2567585
  40.3567107  87.9838964  38.0875793  39.9883041  89.0986123  37.1317724
  44.9242510  91.1238402  39.7638877  44.3642068  91.1931591  40.5370439
  44.3186014  90.9479386  39.0438373  37.8814254  97.2825265  32.3613656
  38.7159858  96.8506463  32.1791130  37.7198597  97.1107278  33.2890550
  37.5360146  93.7857378  33.7269995  37.4808950  93.6201649  32.7858439
  36.9106201  94.4933411  33.8832185  22.3252661  89.0225442  47.5531417
  22.9711525  88.5124396  48.0418642  22.1169812  89.7594124  48.1274842
  34.8506053  96.0906290  53.0523558  35.7197213  96.2646942  52.6910193
  34.3712805  96.9100707  52.9299287  30.8456271  83.2865487  33.3055313
  30.8334941  84.2307327  33.4623584  31.7379693  83.1035632  33.0114774
  30.7745835 101.9634377  41.3923070  29.8241466 101.9636239  41.2787442
  31.0778322 101.2167112  40.8759105  34.6608391  79.8808264  37.5601250
  33.8940787  79.3266750  37.7057932  35.0719096  79.9530132  38.4215402
  26.6650152  86.1693059  51.6506431  27.5281613  85.8129864  51.8609756
  26.0915563  85.8306954  52.3381836  41.0196515 106.5210591  31.7247297
  41.2722035 105.9992113  30.9630760  40.0821074 106.3576737  31.8273981
  46.0639797 105.5246370  39.5322040  46.8502887 105.1065793  39.1812457
  46.3278502 106.4292462  39.7003689  51.4648224 105.4621603  40.4355019
  52.1973396 104.8920820  40.6692848  50.7087580 105.0743203  40.8761524
  48.9873645  99.1743177  44.8949627  48.6556970 100.0438588  44.6710842
  48.3919258  98.8579461  45.5743658  42.7229831 102.9138744  32.6279710
  42.8904234 103.7818980  32.9950181  42.5327000 103.0766026  31.7040999
  48.8802308 103.8938263  41.9742978  47.9719185 103.8253672  41.6801739
  48.8289904 104.3710208  42.8024803  42.7019052 105.3696402  33.6126377
  42.5818677 105.8153452  34.4511857  42.0071640 105.7181719  33.0539915
  42.9543174 105.3127909  49.9177875  42.1776508 105.8721829  49.9080739
  43.5933737 105.7984692  50.4392745  50.7463955 102.0954702  43.7520851
  50.1038335 102.3887235  43.1060646  50.2418883 101.9807622  44.5574048
  48.4004118 105.8417875  34.4406711  49.3121974 106.0745261  34.2654408
  47.8913765 106.4254919  33.8781789  43.0375956 105.2015109  45.4501560
  43.8837151 105.6254523  45.5936209  42.9774594 104.5448734  46.1440123
  46.1875401 102.8619478  47.1082734  45.9436333 103.6161538  46.5717010
  46.4635332 103.2404825  47.9429981  45.7440093 102.0175911  42.6896572
  44.8824572 102.3157164  42.9813309  45.7702528 102.2346310  41.7577604
  41.4970548 106.6841254  35.9059942  42.1994592 107.1362297  36.3733869
  41.1651177 106.0425072  36.5339836  39.9450910 105.2753010  50.2811152
  39.3149571 105.9569291  50.5146549  39.8386998 105.1636092  49.3364290
  57.3465685 108.6268794  40.3067328  56.5929393 108.0576192  40.1511333
  57.4813226 108.5931458  41.2537963  39.2231653  99.5773776  52.6436403
  38.8298598  99.0239975  53.3184047  40.0397793  99.8884355  53.0342920
  42.1399614 100.9931655  50.2356659  42.8809327 101.5938808  50.1561122
  42.3717537 100.2509293  49.6774702  46.0856777  97.0212758  44.5120941
  45.7421046  97.9114400  44.4360052  46.4535739  96.8314416  43.6490526
  46.0507059 107.0121369  33.0193376  45.5353683 107.7825974  33.2581764
  45.7784368 106.3386505  33.6426438  43.6354170 101.8571070  38.0778615
  42.7795767 101.4677920  37.8984253  44.0481122 101.9363031  37.2178400
  45.1653317  99.3917413  42.4770174  44.6618113  99.3547548  41.6637980
  45.4583924 100.3010156  42.5366831  41.4096203  99.4756143  41.4836356
  42.2749200  99.2798952  41.1242246  41.4773712  99.2466495  42.4105713
  51.0241333 109.7653724  34.9546550  50.2470776 109.4264883  34.5101712
  51.7032814 109.7706347  34.2801515  45.8393363 104.8848461  34.8453157
  45.5343498 105.1994611  35.6963301  46.7923805 104.9629881  34.8880490
  39.0158522 101.7058351  38.8552723  39.5902274 101.4833532  38.1225916
  39.6029504 101.7747045  39.6081324  48.0738099 107.5932078  39.6617099
  48.5869981 108.2262070  40.1638809  48.7239323 106.9933273  39.2960459
  39.3428109 103.7362812  32.8748608  38.5065421 104.0737498  33.1957883
  39.2032879 103.6011792  31.9375745  41.3181190  98.5799600  37.5827792
  40.6645602  98.2648617  36.9584407  41.2761664  97.9575340  38.3087615
  44.5518930 105.0681533  41.9075440  43.6341491 105.2896480  41.7497128
  44.9679074 105.1427844  41.0487147  45.3353978 106.4672949  37.0378120
  46.0825797 106.9794346  36.7285242  45.6045567 106.1457002  37.8982514
  47.7832815 103.5030065  39.0196910  47.0455572 102.9907452  39.3507152
  48.0359589 103.0630447  38.2080186  47.8844442  96.2806317  39.6138679
  48.1903319  95.4203681  39.3264594  48.6097047  96.8723938  39.4137673
  42.1565522 106.5760110  40.1214870  42.2114132 105.6233947  40.0457346
  41.3456724 106.7319549  40.6056168  40.0957882 105.1937170  37.8805249
  39.2825747 105.4931341  38.2870441  40.5916876 104.7992859  38.5979731
  45.6932094 105.6578995  46.7120143  46.0481481 105.8850468  47.5714608
  46.3404225 105.9897371  46.0897398  51.4229831 108.7797430  37.4169472
  51.2847729 108.9699026  36.4890661  51.0666049 109.5416813  37.8737523
  39.5871957 102.7655526  43.4966484  40.2271336 102.6244285  42.7989447
  38.7549487 102.4790039  43.1205086  36.5900573 102.7355851  38.2739470
  36.8507390 103.6501184  38.1648631  37.4117745 102.2680293  38.4236083
  38.0625498 104.1493608  45.4438295  38.7348552 103.9410970  44.7950944
  37.2355285 103.9515694  45.0043527  43.9651070 100.7755549  47.4603956
  43.3178986 101.4745498  47.3668432  44.7352086 101.2091693  47.8280204
  39.8064230 104.1221388  47.5120051  39.2701587 103.6712126  48.1641648
  39.2180939 104.2567297  46.7690516  39.2166489 103.5810039  30.0746515
  38.3395956 103.4598840  29.7108762  39.6924242 102.7896118  29.8225404
  35.5403352 103.2577396  44.5973046  35.4561540 102.6503065  43.8623456
  34.7186058 103.7486414  44.5982542  45.7127065 101.7430959  39.9643241
  46.2095765 100.9900922  39.6444311  44.9414047 101.7795276  39.3986450
  53.5656823 107.4471325  41.6061532  53.5546699 108.3296040  41.2355465
  52.6974202 107.0942876  41.4116069  42.2962034 103.8848342  39.6914925
  41.9259822 103.3319383  40.3795831  42.7921127 103.2806476  39.1389925
  50.1829398 106.3419966  38.0731698  50.6489850 107.1747957  37.9992001
  50.6336898 105.8764947  38.7776957  48.1546060  98.7100553  42.1122600
  47.2409140  98.9404780  42.2804807  48.5839162  98.7938997  42.9636632
  47.9252519 106.8990445  44.6122494  47.2723969 107.1466352  43.9574947
  48.3032899 106.0854583  44.2784971  43.9740092 107.6410256  51.0988531
  43.2980729 107.5404385  51.7690906  44.7967726 107.4849469  51.5624528
  37.6927368 101.2952333  45.9368032  37.7568694 102.1567164  45.5245429
  37.6294488 100.6826335  45.2040390  37.1679640 103.3675466  49.5841066
  37.7951679 102.9852543  50.1978590  36.3107559 103.1489667  49.9496758
  37.4739430 103.2507891  41.4986969  36.7526016 103.8643859  41.3594443
  38.2632686 103.7865656  41.4203615  40.2765744 100.5862318  47.7727621
  40.8000146 100.8324614  48.5353930  40.0578077 101.4182353  47.3530758
  35.6733025 102.8565992  35.6398746  35.3445731 101.9763371  35.4573852
  36.0272395 102.8013661  36.5275135  38.7874848 103.1438962  36.0074223
  39.1270920 103.6724883  35.2852832  39.2346968 103.4819368  36.7832790
  41.4818289 101.5276013  45.4577291  41.1415109 100.7283826  45.8597971
  40.7757295 101.8277724  44.8854125  42.1334761  98.6125325  43.9104615
  42.9560830  98.1385803  43.7883505  42.3772824  99.3915809  44.4103301
  40.7742995 101.6413584  34.2067516  41.4951358 102.0194836  33.7031233
  40.1508299 102.3602460  34.3102494  44.9174118 102.3458733  35.1425849
  45.1337732 103.2283371  34.8414677  44.4368185 101.9544946  34.4131491
  39.6573339 105.3044446  41.7196593  39.5117920 105.6184749  42.6120875
  39.1798543 105.9229346  41.1667492  41.5169722 102.2946994  41.7677483
  41.5031291 101.3988087  41.4309781  42.2342150 102.3017658  42.4015769
  43.3695853 102.7284334  43.8130610  43.1113631 103.6501405  43.8114941
  42.8380893 102.3314769  44.5031074  40.9206618 101.1761374  37.0365053
  41.0422529 100.2478020  37.2355940  40.6308661 101.1900060  36.1243368
  43.7897809  98.8616285  40.1731773  43.8119505  98.9255618  39.2183752
  44.2065868  98.0220793  40.3672279  54.1681433 108.5971544  38.2110995
  54.6112579 107.8478869  37.8130119  53.2907943 108.5881680  37.8284727
  40.4047698 102.6893372  51.2454985  40.4535853 103.5655494  50.8632755
  40.9470212 102.1470765  50.6726629  51.0100418 110.0826961  47.8388851
  51.0598423 109.9176969  48.7804374  50.9014342 109.2154220  47.4486732
  48.3004181 106.0657889  49.1548158  49.2014044 105.9264354  48.8632156
  48.3752155 106.2312344  50.0946335  42.6346986 103.4424744  48.0001344
  41.7650296 103.7358310  47.7283933  42.8706466 104.0265189  48.7208608
  53.7114298 110.0676782  40.6033443  54.5461189 110.5066587  40.7671003
  53.8473426 109.5915436  39.7841689  50.7605803 107.6256517  46.5510931
  51.2359925 107.8184164  45.7429782  49.8371369 107.6815703  46.3054314
  45.3386020  99.6604361  45.5166764  45.8567964 100.3965388  45.1913253
  44.9841153  99.9668354  46.3513524  36.9184958 104.5209042  33.6328170
  36.2254203 104.5953397  32.9768206  36.6736710 103.7569386  34.1549687
  45.5898614  96.0804643  41.0367661  45.8700368  95.4127832  41.6628088
  46.3749221  96.2733739  40.5242325  49.4607472 104.5022277  44.7839236
  50.4124895 104.6020375  44.8051460  49.2910923 103.7100546  45.2937321
  47.4821852 101.5877861  44.9698637  46.8871784 101.8682873  44.2745126
  47.1971549 102.0771762  45.7415378  51.9395550 107.7228397  43.8981536
  51.9071870 106.7844398  44.0841220  52.5496174 107.8012434  43.1647361
  43.7778881 106.5924450  29.9408740  44.7237986 106.4630658  30.0097158
  43.3993126 105.8539112  30.4178168  52.0890039 104.5139440  43.9439819
  51.5729087 103.7297897  43.7569748  52.9729987 104.1858157  44.1086338
  49.7500766  98.2580456  39.9035632  49.5525587  97.9495544  40.7878964
  50.3600471  98.9842095  40.0333562  55.8387397 106.9252266  43.6362024
  55.1120561 106.7908231  43.0278515  55.4234684 107.2329095  44.4418742
  41.9621798 104.5174426  29.8763625  41.0553254 104.2207539  29.9526339
  42.2397779 104.2204245  29.0097911  43.5783864  99.0611316  36.0307866
  42.7684592  98.7158401  36.4063112  44.2668281  98.7518860  36.6195478
  45.5074412  98.1389363  37.6532163  46.0605451  98.5584816  38.3122186
  45.7444499  97.2125111  37.6955119  41.5307512 104.1276437  53.4334927
  41.4304238 105.0770794  53.3647018  41.3129054 103.7994675  52.5610997
  40.7320583 101.3761362  30.0175604  41.5939747 101.7016260  30.2771422
  40.9170927 100.5892858  29.5048670  48.8853219 100.2489888  37.1610827
  48.3051888 100.9074692  36.7788880  48.6189152  99.4267233  36.7498245
  47.3356786  99.6494946  39.3632148  47.8356564  99.7611480  38.5546466
  47.9792394  99.3455999  40.0032956  47.6678097 102.4089978  36.2167176
  46.7803952 102.6939629  35.9987370  48.0832086 102.2483742  35.3694452
  51.0192634 102.4336499  39.9321515  51.7953024 102.9232952  40.2046132
  50.2940768 102.8594554  40.3893384  53.4565192 103.1464119  40.9895455
  54.0509683 102.9059855  40.2788764  53.5291776 102.4271249  41.6168992
  47.6419121 107.9244514  36.4317466  47.5854323 108.3813066  35.5925098
  48.1947464 107.1635199  36.2540308  51.4523927 103.7134246  37.2567585
  51.1960861 103.3130882  38.0875793  50.8276795 104.4278040  37.1317724
  55.7636265 106.4530320  39.7638877  55.2035823 106.5223509  40.5370439
  55.1579768 106.2771304  39.0438373  41.6850026  98.6157405  33.3055313
  41.6728696  99.5599245  33.4623584  42.5773448  98.4327550  33.0114774
  45.5002145  95.2100181  37.5601250  44.7334541  94.6558668  37.7057932
  45.9112850  95.2822050  38.4215402  37.5043906 101.4984977  51.6506431
  38.3675368 101.1421782  51.8609756  36.9309317 101.1598872  52.3381836
  58.7238197 111.6098235  39.6138679  59.0297074 110.7495598  39.3264594
  59.4490802 112.2015855  39.4137673  56.4292369 111.4096561  41.0367661
  56.7094122 110.7419750  41.6628088  57.2142976 111.6025657  40.5242325
  56.3395900 110.5392099  37.5601250  55.5728296 109.9850586  37.7057932
  56.7506605 110.6113968  38.4215402   3.1523512  23.4889368  29.1814139
   3.7901922  23.3696115  28.4777479   3.0344355  24.4370212  29.2402091
   8.1073208  21.1516055  27.1600326   8.8398380  20.5815272  27.3938155
   7.3512563  20.7637655  27.6006831   5.6298628  14.8637629  31.6194934
   5.2981953  15.7333040  31.3956149   5.0344242  14.5473913  32.2988965
   2.1230148  27.0650175  31.0190847   1.8230871  27.9675214  30.9106654
   1.7781207  26.7982358  31.8712000   7.3888938  17.7849153  30.4766158
   6.7463318  18.0781687  29.8305953   6.8843866  17.6702074  31.2819355
   3.3269869  25.9536954  34.8013310   3.7353225  25.5119365  34.0567942
   2.6047131  25.3789582  35.0547503   3.6498684  26.5138145  28.5565599
   3.0207546  26.6783859  27.8541667   3.2624346  26.9279755  29.3276563
   7.5287916  27.4492583  25.9109963   6.8438954  27.8291484  25.3606996
   7.6131765  28.0587910  26.6441910   2.8300385  18.5513930  33.8328041
   2.5861316  19.3055990  33.2962316   3.1060315  18.9299277  34.6675288
   4.7838847  25.0952542  32.5105306   4.9955743  25.7384302  31.8339687
   4.7368596  24.2614858  32.0427236   5.8984675  27.9724497  30.6827663
   6.7202119  27.5704685  30.4010345   5.8947078  27.8692732  31.6343779
  13.9890668  24.3163246  27.0312635  13.2354377  23.7470644  26.8756639
  14.1238210  24.2825910  27.9783270   1.0057773  29.8100215  36.8367696
   0.5621627  29.0236593  36.5188601   1.6674986  29.9979365  36.1711587
   3.1039011  30.0903015  34.8649098   3.0857486  30.9111896  34.3729367
   4.0258931  29.9657090  35.0899239   5.9057624  24.9282157  28.3358464
   5.2481298  25.6181418  28.4238593   6.7098023  25.3178589  28.6792451
   5.4824879  28.2632531  24.5141549   5.0287206  27.4223441  24.5706739
   4.8518845  28.8993930  24.8516329   3.9257818  30.1009028  25.4491367
   4.2180792  30.6614085  24.7303732   4.4356439  30.3937589  26.2044526
   2.3357077  21.3473446  33.4365449   2.6906465  21.5744920  34.2959915
   2.9829208  21.6791823  32.8142705   8.0924193  26.5368409  29.1526050
   8.5260700  26.4443698  30.0009104   8.8055774  26.5125910  28.5146066
   1.8252088  30.1370503  30.6859150   1.8789111  30.7061440  31.4536866
   0.9566870  30.3072389  30.3213188   8.9539743  26.5792110  31.6858935
   9.1475633  27.4837921  31.9318210   8.8540361  26.1199529  32.5197520
   4.0154852  26.7298853  37.2599816   3.8640358  26.5009404  36.3429900
   4.0059531  27.6869454  37.2731161   1.1333735  27.7063033  27.4033458
   0.7983568  27.6663803  28.2991108   0.6337681  27.0407749  26.9303868
   5.7247058  29.7617975  35.3376298   5.6659605  29.0777195  34.6706881
   6.1266577  30.5036965  34.8856924   5.7264466  27.7257559  33.5690277
   4.8391244  27.3883481  33.6916676   6.2963017  26.9940591  33.8059043
  10.2081806  23.1365777  28.3306839  10.1971682  24.0190492  27.9600772
   9.3399186  22.7837327  28.1361376   1.7164303  32.2845846  32.6909679
   2.4292275  32.9193310  32.6185581   1.2254331  32.3809712  31.8749681
   4.5677502  22.5884897  31.3367800   3.9148952  22.8360804  30.6820253
   4.9457882  21.7749035  31.0030278   1.5284676  32.6244590  25.4395971
   1.7107070  31.8066246  25.9023723   2.3517662  32.8412282  25.0020861
   4.2098732  29.4632893  37.9140108   4.7538636  30.0762851  37.4195063
   3.6285577  30.0212471  38.4307121   2.4956245  32.5853611  29.0455136
   2.3707385  31.7843350  28.5366081   3.1535336  33.0799804  28.5569106
   4.5591154  30.3862631  30.6734686   3.6121489  30.2667982  30.6013012
   4.9073927  29.4985129  30.7560947   1.5637587  30.1815347  26.8739038
   1.4162549  29.2532054  27.0546608   2.3891080  30.2035438  26.3896113
   5.1671709  31.0043906  27.9603911   6.0918256  30.7986767  27.8228362
   4.9987012  30.7560307  28.8693252   4.9567025  31.5229573  23.3166002
   5.1303903  30.9575996  22.5639855   5.4495916  32.3230468  23.1345492
  10.8106416  24.2865996  24.9356302  11.2537562  23.5373321  24.5375425
   9.9332926  24.2776132  24.5530034   7.5327527  28.9228947  37.2501429
   6.7423070  28.9053086  36.7105929   7.2960881  29.4617240  38.0050466
   7.6525402  25.7721413  34.5634158   7.7023407  25.6071420  35.5049680
   7.5439325  24.9048672  34.1732038   4.9429164  21.7552341  35.8793464
   5.8439027  21.6158806  35.5877462   5.0177139  21.9206796  36.8191642
   9.1543599  28.1918355  34.8076179   8.8628407  28.5548335  35.6439640
   8.5415730  27.4785363  34.6289511  10.3539281  25.7571234  27.3278749
  11.1886172  26.1961038  27.4916310  10.4898410  25.2809888  26.5086995
   7.4030787  23.3150969  33.2756237   7.8784908  23.5078615  32.4675089
   6.4796352  23.3710155  33.0299621   1.9811003  15.3498813  32.2412071
   2.4992947  16.0859840  31.9158560   1.6266136  15.6562806  33.0758830
   6.1032456  20.1916729  31.5084543   7.0549879  20.2914827  31.5296767
   5.9335906  19.3994998  32.0182627   4.1246835  17.2772312  31.6943944
   3.5296767  17.5577325  30.9990432   3.8396532  17.7666213  32.4660685
   8.5820534  23.4122849  30.6226842   8.5496854  22.4738850  30.8086526
   9.1921157  23.4906886  29.8892667   8.7315022  20.2033892  30.6685126
   8.2154071  19.4192349  30.4815055   9.6154971  19.8752609  30.8331645
  14.3997083  24.4738856  29.7632879  15.1300472  24.2124144  30.3240583
  13.7904029  23.7367578  29.8034947  12.4812381  22.6146718  30.3607330
  11.7545544  22.4802683  29.7523822  12.0659667  22.9223547  31.1664048
  10.0990175  18.8358571  27.7140762  10.6934666  18.5954307  27.0034070
  10.1716759  18.1165701  28.3414298  12.4061248  22.1424771  26.4884183
  11.8460806  22.2117961  27.2615745  11.8004752  21.9665756  25.7683679
   2.3324791  27.1092659  39.7768864   3.2015951  27.2833312  39.4155499
   1.8531542  27.9287076  39.6544594  13.9917267  38.8181285  29.1814139
  14.6295677  38.6988033  28.4777479  13.8738110  39.7662129  29.2402091
  10.8006973  38.7708713  29.1175664  10.4625484  38.6549778  28.2296199
  11.6696741  38.3699879  29.0976670   6.6593789  40.6244190  25.1072555
   6.0958654  40.5334127  24.3388842   6.5446184  39.8044094  25.5875047
  11.2826756  39.9243565  35.0761869  11.2715397  39.5296363  34.2042373
  11.4447395  39.1909638  35.6695641   4.2058221  42.1195381  27.9456775
   4.9979512  41.7786206  27.5303074   4.4454871  42.2290357  28.8658928
  12.2393347  44.2915158  20.4187020  11.5881327  44.8769238  20.0321033
  13.0337710  44.8221352  20.4782057   6.1648974  41.3804295  20.8174154
   6.9379850  40.8333282  20.6787030   6.5174373  42.2448544  21.0288615
   8.0034017  42.7080677  34.0241053   7.7123883  43.6126308  33.9087719
   8.6391001  42.7497205  34.7385123   8.9290224  40.0857526  30.6142413
   9.5253796  39.8613548  29.8999376   8.9865195  39.3442271  31.2167861
   8.5015252  37.5396961  18.4492604   8.7540773  37.0178482  17.6876067
   7.5639811  37.3763106  18.5519287  13.5458535  36.5432739  26.2567347
  14.3321624  36.1252162  25.9057764  13.8097239  37.4478831  26.4248995
  13.7168612  41.9805590  20.9556004  13.0814445  42.0540216  21.6676908
  13.3866019  42.5699188  20.2775083  18.9466962  36.4807972  27.1600326
  19.6792134  35.9107189  27.3938155  18.1906318  36.0929573  27.6006831
   8.2211541  39.4425067  20.6516979   8.1047799  38.7669970  21.3198063
   8.3313801  38.9557441  19.8349132  10.5643082  38.9035214  24.3563668
  10.2001289  38.3765835  25.0676589  11.4210198  38.5133683  24.1830153
  16.4692383  30.1929547  31.6194934  16.1375707  31.0624957  31.3956149
  15.8737996  29.8765831  32.2988965  10.2048569  33.9325114  19.3525016
  10.3722971  34.8005350  19.7195488  10.0145738  34.0952395  18.4286306
  12.9623902  42.3942093  31.0190847  12.6624625  43.2967131  30.9106654
  12.6174962  42.1274276  31.8712000   6.4136384  38.8455889  27.0527551
   5.4886880  38.7132103  27.2605243   6.6620797  39.6250109  27.5497494
  16.3621046  34.9124633  28.6988284  15.4537923  34.8440041  28.4047045
  16.3108642  35.3896578  29.5270110  10.1837790  36.3882771  20.3371683
  10.0637415  36.8339822  21.1757164   9.4890378  36.7368089  19.7785221
   3.7745195  38.4889163  27.8871340   3.9037576  38.7423642  28.8010752
   3.0942646  39.0816871  27.5675995   7.9444682  49.1586413  23.9861815
   7.8668712  50.1094238  24.0650295   7.3406326  48.8132285  24.6436741
  10.4361912  36.3314278  36.6423181   9.6595246  36.8908198  36.6326046
  11.0752475  36.8171061  37.1638052  18.2282692  33.1141071  30.4766158
  17.5857073  33.4073604  29.8305953  17.7237621  32.9993991  31.2819355
  15.8822856  36.8604244  21.1652017  16.7940712  37.0931631  20.9899715
  15.3732503  37.4441288  20.6027096   8.6908284  39.1399732  36.2041148
   9.4322968  39.6784776  35.9275972   7.9845269  39.7666020  36.3612700
  14.1663624  41.2828872  34.8013310  14.5746980  40.8411283  34.0567942
  13.4440885  40.7081500  35.0547503  10.5194694  36.2201479  32.1746867
  11.3655889  36.6440892  32.3181516  10.4593331  35.5635103  32.8685430
  14.4892438  41.8430063  28.5565599  13.8601301  42.0075777  27.8541667
  14.1018100  42.2571672  29.3276563  18.3681670  42.7784501  25.9109963
  17.6832708  43.1583402  25.3606996  18.4525520  43.3879827  26.6441910
  13.6694139  33.8805847  33.8328041  13.4255071  34.6347908  33.2962316
  13.9454070  34.2591195  34.6675288  15.6232602  40.4244460  32.5105306
  15.8349497  41.0676220  31.8339687  15.5762350  39.5906776  32.0427236
  13.2258831  33.0362280  29.4141878  12.3643310  33.3343534  29.7058616
  13.2521265  33.2532679  28.4822911  10.0420400  41.5804471  25.8215684
  10.5058746  41.8592174  25.0320306   9.7777198  40.6787915  25.6388775
   6.9344481  41.1275952  28.7595447   7.5045838  41.5563221  28.1212932
   7.5252593  40.8458537  29.4579633   8.9789286  37.7027623  22.6305249
   9.6813330  38.1548667  23.0979175   8.6469915  37.0611442  23.2585142
   7.4269648  36.2939380  37.0056458   6.7968308  36.9755661  37.2391855
   7.3205736  36.1822461  36.0609597   2.7214620  35.9611176  27.9322383
   1.9313674  36.2168704  27.4562493   3.2125868  36.7759514  28.0374423
  16.7378430  43.3016415  30.6827663  17.5595873  42.8996602  30.4010345
  16.7340833  43.1984649  31.6343779   4.6729366  36.3255755  24.8905859
   3.8760529  36.4374449  25.4089355   4.4454958  36.6642407  24.0246750
  10.5035033  42.8500458  32.8388374  10.5679466  43.3120866  33.6746546
   9.7945957  42.2197823  32.9670684   1.0052323  36.2141666  30.3637373
   1.2560362  37.0988676  30.6294949   1.5411872  36.0346268  29.5912465
  24.8284423  39.6455164  27.0312635  24.0748131  39.0762562  26.8756639
  24.9631964  39.6117828  27.9783270  10.2183051  44.5168566  22.7067354
  10.0828726  45.3620102  23.1352202  10.7592863  44.7187843  21.9433288
   6.7050390  30.5960146  39.3681710   6.3117336  30.0426344  40.0429354
   7.5216531  30.9070724  39.7588227   3.6712448  42.0344004  23.2795279
   4.1836969  42.8287254  23.4300844   4.3235161  41.3370294  23.2128881
   5.4807333  45.1509760  25.3618033   5.6573961  46.0727725  25.1739016
   6.2764166  44.8368179  25.7912412   9.6218351  32.0118025  36.9601966
  10.3628065  32.6125178  36.8806429   9.8536274  31.2695663  36.4020009
   4.7659690  37.1974392  35.2380196   4.6513205  36.2959649  35.5387295
   3.9104207  37.4438089  34.8865012  11.8451527  45.1392132  36.8367696
  11.4015381  44.3528511  36.5188601  12.5068741  45.3271283  36.1711587
   6.6038648  46.6687934  31.3628375   7.1546074  46.5404997  30.5905369
   5.7650124  46.9682823  31.0123268  13.9432765  45.4194932  34.8649098
  13.9251241  46.2403813  34.3729367  14.8652685  45.2949007  35.0899239
  10.4005819  42.9339062  35.7072606  10.9334156  42.1727350  35.4771914
   9.8719901  42.6412714  36.4496760  13.5675514  28.0399128  31.2366248
  13.2239784  28.9300769  31.1605358  13.9354477  27.8500785  30.3735833
   1.6361365  40.3632658  24.0554850   2.4736587  40.7729667  23.8388558
   1.8139633  39.4232100  24.0255044  13.5325797  38.0307739  19.7438683
  13.0172421  38.8012343  19.9827070  13.2603106  37.3572875  20.3671744
  11.1172908  32.8757440  24.8023921  10.2614505  32.4864290  24.6229560
  11.5299860  32.9549400  23.9423707  12.6472055  30.4103783  29.2015481
  12.1436850  30.3733918  28.3883286  12.9402662  31.3196526  29.2612138
   8.8914941  30.4942513  28.2081663   9.7567937  30.2985321  27.8487552
   8.9592450  30.2652864  29.1351019  18.5060071  40.7840093  21.6791856
  17.7289514  40.4451253  21.2347018  19.1851552  40.7892717  21.0046821
  13.3212100  35.9034831  21.5698464  13.0162236  36.2180980  22.4208607
  14.2742542  35.9816251  21.6125797  11.7658532  42.0625054  23.2191418
  11.2379894  41.3277814  22.9064655  11.2646035  42.8399731  22.9731386
  16.7451378  40.2574075  28.3358464  16.0875053  40.9473336  28.4238593
  17.5491777  40.6470507  28.6792451   6.4977260  32.7244721  25.5798030
   7.0721012  32.5019902  24.8471222   7.0848242  32.7933415  26.3326631
  15.5556837  38.6118447  26.3862406  16.0688719  39.2448439  26.8884116
  16.2058061  38.0119643  26.0205766   8.7999927  29.5985969  24.3073099
   8.1464340  29.2834987  23.6829714   8.7580402  28.9761710  25.0332922
   9.9111132  39.8805264  16.2226391   9.0038194  39.6494518  16.4217540
  10.4082164  39.0842884  16.4100373  12.8179211  48.5902772  19.1423077
  12.1440910  48.8934468  19.7508035  13.2045033  49.3931852  18.7928534
  12.0337668  36.0867903  28.6320747  11.1160229  36.3082850  28.4742435
  12.4497811  36.1614213  27.7732454  12.8172716  37.4859319  23.7623427
  13.5644535  37.9980716  23.4530549  13.0864305  37.1643371  24.6227820
  11.0899366  39.9817859  20.7450381  10.1810585  39.6976892  20.8422851
  11.1194450  40.4016938  19.8853688  16.3218633  43.5924449  24.5141549
  15.8680960  42.7515359  24.5706739  15.6912600  44.2285847  24.8516329
  15.2651553  34.5216435  25.7442216  14.5274310  34.0093821  26.0752459
  15.5178326  34.0816816  24.9325493  14.7651572  45.4300946  25.4491367
  15.0574547  45.9906003  24.7303732  15.2750193  45.7229507  26.2044526
  15.3663180  27.2992687  26.3383985  15.6722057  26.4390050  26.0509901
  16.0915785  27.8910307  26.1382979   1.6587536  37.7023373  24.7265583
   1.4611936  37.1092734  24.0016650   1.1034200  37.3975584  25.4441522
   9.6384260  37.5946480  26.8460177   9.6932870  36.6420316  26.7702653
   8.8275462  37.7505919  27.3301475  10.7875454  41.5226603  18.0838460
  10.3494884  40.8062462  17.6244097  11.5285894  41.7502718  17.5223551
   7.5776620  36.2123540  24.6050555   6.7644485  36.5117710  25.0115748
   8.0735614  35.8179228  25.3225038   9.7285198  46.2081297  26.5384820
   9.6861376  46.4342143  25.6093352  10.6447896  45.9744671  26.6870621
  13.1750831  36.6765364  33.4365449  13.5300219  36.9036837  34.2959915
  13.8222963  37.0083741  32.8142705  18.9048568  39.7983800  24.1414778
  18.7666467  39.9885396  23.2135968  18.5484787  40.5603183  24.5982829
   7.0690695  33.7841895  30.2211790   7.7090074  33.6430654  29.5234754
   6.2368225  33.4976409  29.8450392  18.9317948  41.8660327  29.1526050
  19.3654455  41.7735616  30.0009104  19.6449529  41.8417828  28.5146066
   7.8450998  43.0844326  26.3346783   8.6391597  42.5894646  26.1329358
   7.1342691  42.5562189  25.9714488  12.6645843  45.4662421  30.6859150
  12.7182865  46.0353357  31.4536866  11.7960624  45.6364306  30.3213188
   4.1533762  37.2287407  22.4106535   3.2231350  37.1671863  22.6276498
   4.2491234  36.7063360  21.6143177   4.0719311  33.7542220  24.9984777
   4.3326128  34.6687553  24.8893938   4.8936483  33.2866663  25.1481390
   5.5444236  35.1679977  32.1683602   6.2167290  34.9597340  31.5196251
   4.7174023  34.9702063  31.7288834  19.7933498  41.9084028  31.6858935
  19.9869388  42.8129838  31.9318210  19.6934116  41.4491447  32.5197520
  11.4469808  31.7941918  34.1849263  10.7997723  32.4931868  34.0913739
  12.2170824  32.2278062  34.5525511  14.8548606  42.0590770  37.2599816
  14.7034113  41.8301322  36.3429900  14.8453286  43.0161372  37.2731161
  11.6233943  39.6322683  32.2446082  12.5526003  39.7833843  32.0715050
  11.2024973  39.7206704  31.3894729  10.4222274  43.6573348  30.0144620
  10.2833360  43.2892132  30.8870558   9.6336871  44.1720987  29.8428578
  11.0170426  48.7582444  21.3570156  11.1922182  48.2870487  22.1715779
  10.3303214  49.3848210  21.5851417  11.9727490  43.0354950  27.4033458
  11.6377322  42.9955720  28.2991108  11.4731435  42.3699666  26.9303868
   5.9471734  38.4422580  32.9286039   5.8091531  37.7102819  33.5297578
   6.8576657  38.3531480  32.6470227  14.9086681  40.3810985  17.6770517
  14.2915852  39.6557813  17.5803570  14.4403170  41.1420345  17.3337592
   8.5754034  38.1542540  32.4169718   9.2853653  37.5135732  32.3756337
   8.5323342  38.4055435  33.3395899  16.5640813  45.0909893  35.3376298
  16.5053359  44.4069113  34.6706881  16.9660331  45.8328883  34.8856924
   7.2882968  35.1407758  34.2365358   6.7520325  34.6898496  34.8886954
   6.6999677  35.2753666  33.4935822   5.5831512  51.9071807  28.1310017
   5.8228110  52.5390331  28.8089035   4.7400708  51.5559847  28.4175376
  16.5658220  43.0549477  33.5690277  15.6784999  42.7175399  33.6916676
  17.1356771  42.3232508  33.8059043   3.0222089  34.2763765  31.3218352
   2.9380278  33.6689435  30.5868762   2.2004796  34.7672784  31.3227849
  10.0959374  47.7150929  30.5351521  10.0229545  48.5205901  31.0470825
   9.6536767  47.9142895  29.7099542   9.8849153  46.9522699  24.0454342
   9.1016675  47.4944380  24.1392567  10.5841898  47.4696679  24.4448583
  13.1945803  32.7617329  26.6888547  13.6914503  32.0087291  26.3689618
  12.4232785  32.7981645  26.1231757  21.0475561  38.4657694  28.3306839
  21.0365437  39.3482410  27.9600772  20.1792940  38.1129245  28.1361376
  12.5558057  47.6137763  32.6909679  13.2686029  48.2485228  32.6185581
  12.0648086  47.7101629  31.8749681  14.2775584  41.5189016  24.2626971
  13.3431863  41.6390478  24.0931675  14.4552252  40.6161483  23.9986981
   9.7780772  34.9034712  26.4160232   9.4078560  34.3505752  27.1041138
  10.2739864  34.2992845  25.8635232  17.6648135  37.3606335  24.7977005
  18.1308588  38.1934327  24.7237308  18.1155636  36.8951317  25.5022264
   7.6069971  45.3632207  33.5115250   8.3079430  45.9968690  33.6644644
   7.1365086  45.7046938  32.7510889  15.7324366  43.7050157  21.7963157
  16.0084210  43.5906751  22.7057031  14.8628865  43.3067641  21.7575330
  15.6364798  29.7286922  28.8367906  14.7227878  29.9591149  29.0050113
  16.0657900  29.8125366  29.6881939  15.4071257  37.9176814  31.3367800
  14.7542707  38.1652722  30.6820253  15.7851636  37.1040952  31.0030278
  12.3678430  47.9536507  25.4395971  12.5500825  47.1358163  25.9023723
  13.1911416  48.1704200  25.0020861  12.7020596  46.8804693  22.7011019
  13.2308362  46.3697147  22.0881181  12.9648816  46.5647223  23.5656552
  11.4558830  38.6596625  37.8233837  10.7799467  38.5590755  38.4936213
  12.2786463  38.5035839  38.2869835   3.2037689  44.8968562  30.4446353
   3.7891125  44.1512250  30.5774257   3.0062527  45.2072519  31.3283017
   6.0576344  47.9319809  25.4608795   5.3886719  48.4165937  24.9772835
   5.9189214  48.1789030  26.3752174  10.1981612  49.9663553  32.0591453
  10.7499920  50.1295174  32.8240539  10.5387806  50.5567991  31.3871478
   5.1746106  32.3138703  32.6613338   5.2387432  33.1753533  32.2490736
   5.1113226  31.7012704  31.9285697   4.6498378  34.3861835  36.3086372
   5.2770417  34.0038912  36.9223897   3.7926297  34.1676037  36.6742065
  15.0492487  44.7924810  37.9140108  15.5932391  45.4054769  37.4195063
  14.4679332  45.3504389  38.4307121   1.4263921  36.1938264  22.2404727
   1.7217362  35.2848943  22.1871781   0.5251957  36.1726004  21.9185730
  13.3350000  47.9145528  29.0455136  13.2101139  47.1135268  28.5366081
  13.9929091  48.4091722  28.5569106   4.9558168  34.2694261  28.2232276
   4.2344754  34.8830228  28.0839749   5.7451424  34.8052026  28.1448922
  15.3984908  45.7154548  30.6734686  14.4515244  45.5959900  30.6013012
  15.7467681  44.8277046  30.7560947   7.7584481  31.6048687  34.4972928
   8.2818883  31.8510984  35.2599237   7.5396815  32.4368722  34.0776065
   3.1551763  33.8752362  22.3644052   2.8264469  32.9949741  22.1819158
   3.5091133  33.8200031  23.2520442  12.4031341  45.5107265  26.8739038
  12.2556304  44.5823972  27.0546608  13.2284835  45.5327355  26.3896113
   6.2693586  34.1625332  22.7319530   6.6089658  34.6911253  22.0098138
   6.7165706  34.5005738  23.5078097  16.0065463  46.3335823  27.9603911
  16.9312011  46.1278685  27.8228362  15.8380767  46.0852224  28.8693252
   8.9637027  32.5462382  32.1822598   8.6233847  31.7470195  32.5843278
   8.2576033  32.8464093  31.6099431   9.6153498  29.6311695  30.6349921
  10.4379568  29.1572173  30.5128811   9.8591562  30.4102179  31.1348607
   8.2561733  32.6599953  20.9312823   8.9770095  33.0381206  20.4276540
   7.6327037  33.3788830  21.0347801  12.3992856  33.3645102  21.8671155
  12.6156470  34.2469740  21.5659983  11.9186923  32.9731316  21.1376797
   7.1392077  36.3230815  28.4441900   6.9936658  36.6371119  29.3366181
   6.6617281  36.9415716  27.8912798   8.9988460  33.3133363  28.4922789
   8.9850029  32.4174457  28.1555087   9.7160888  33.3204027  29.1261075
  10.8514591  33.7470704  30.5375917  10.5932369  34.6687774  30.5360247
  10.3199631  33.3501138  31.2276381  15.7960779  46.8521491  23.3166002
  15.9697657  46.2867913  22.5639855  16.2889671  47.6522386  23.1345492
   1.6137739  38.8636160  31.3829561   1.0691207  39.6395968  31.5149835
   2.4917089  39.2106964  31.2248682   8.4025356  32.1947744  23.7610359
   8.5241267  31.2664390  23.9601247   8.1127398  32.2086430  22.8488675
  11.2716546  29.8802654  26.8977079  11.2938243  29.9441987  25.9429059
  11.6884605  29.0407163  27.0917585  21.6500171  39.6157914  24.9356302
  22.0931317  38.8665239  24.5375425  20.7726681  39.6068050  24.5530034
  16.7835952  46.1688255  20.4162900  17.4786857  46.7894948  20.6350215
  17.1259102  45.3183606  20.6915278   2.4003761  37.9906056  34.2759718
   1.6585497  38.1388691  34.8624348   2.0796505  38.2514322  33.4126467
  18.6827375  43.6187961  21.9450231  19.2078699  43.9575233  21.2199551
  18.5949728  42.6834976  21.7613366  10.3447424  47.5322034  34.0740108
  10.6534550  47.2871181  34.9462807  11.1422906  47.7368673  33.5858978
  10.3668036  49.6859944  26.3045484   9.9273026  49.1936323  26.9978341
  11.1176153  49.1432912  26.0637560   2.8460375  45.8771485  26.3070112
   3.6718395  45.5775257  25.9268756   2.4954427  45.1079107  26.7559901
   7.8141908  45.2297953  28.3767786   7.1921917  44.5668658  28.0770014
   8.4846775  45.2559085  27.6941434   7.8866435  33.7079741  37.9700292
   7.9354591  34.5841864  37.5878062   8.4288950  33.1657134  37.3971935
  18.3721281  44.2520864  37.2501429  17.5816825  44.2345003  36.7105929
  18.1354636  44.7909158  38.0050466  18.4919156  41.1013331  34.5634158
  18.5417161  40.9363338  35.5049680  18.3833080  40.2340590  34.1732038
   7.3755415  43.7801876  21.8526247   7.5243535  44.4637341  21.1992919
   8.1821858  43.7606966  22.3675702  15.7822919  37.0844259  35.8793464
  16.6832781  36.9450724  35.5877462  15.8570893  37.2498714  36.8191642
  10.1165724  34.4611113  34.7246651   9.2469033  34.7544680  34.4529239
  10.3525204  35.0451558  35.4453914  19.9937353  43.5210272  34.8076179
  19.7022161  43.8840253  35.6439640  19.3809484  42.8077281  34.6289511
  21.1933035  41.0863152  27.3278749  22.0279927  41.5252956  27.4916310
  21.3292164  40.6101805  26.5086995  18.2424541  38.6442887  33.2756237
  18.7178663  38.8370533  32.4675089  17.3190107  38.7002073  33.0299621
   5.1308048  39.8067054  22.8587315   4.8854090  38.9029384  23.0567526
   5.3003962  39.8084204  21.9166793  12.8204758  30.6790730  32.2412071
  13.3386702  31.4151757  31.9158560  12.4659891  30.9854724  33.0758830
  13.0717352  27.0991013  27.7612968  13.3519106  26.4314202  28.3873394
  13.8567959  27.2920109  27.2487632  10.8750820  46.2750007  19.3237994
  10.3024787  46.8940194  18.8708466  11.4483614  46.8249369  19.8577916
  16.9426210  35.5208647  31.5084543  17.8943633  35.6206745  31.5296767
  16.7729661  34.7286915  32.0182627  14.9640590  32.6064230  31.6943944
  14.3690522  32.8869243  30.9990432  14.6790286  33.0958131  32.4660685
  14.0948080  46.5587157  20.4546576  15.0278753  46.4932719  20.6579452
  14.0071293  47.3943424  19.9961109  16.7236097  45.8753027  17.4150524
  16.6449728  45.5412891  18.3086282  17.5445764  46.3674795  17.4141996
  19.4214288  38.7414767  30.6226842  19.3890608  37.8030767  30.8086526
  20.0314912  38.8198803  29.8892667  11.2597619  37.6110820  16.6654046
  12.2056724  37.4817028  16.7342465  10.8811864  36.8725482  17.1423475
  19.5708777  35.5325810  30.6685126  19.0547825  34.7484267  30.4815055
  20.4548725  35.2044527  30.8331645  17.2319503  29.2766826  26.6280938
  17.0344325  28.9681914  27.5124270  17.8419209  30.0028465  26.7578868
  25.2390838  39.8030773  29.7632879  25.9694226  39.5416062  30.3240583
  24.6297783  39.0659495  29.8034947  23.3206135  37.9438636  30.3607330
  22.5939299  37.8094601  29.7523822  22.9053422  38.2515465  31.1664048
  11.1436311  41.6628566  38.1254703  12.0639321  41.8407165  38.3194750
  11.1085894  40.7184611  37.9734403   4.1398384  39.5729600  30.7677485
   4.3584394  40.5046708  30.7865518   4.5524158  39.2137575  31.5532288
  11.0602602  30.0797686  22.7553173  10.2503330  29.7344771  23.1308419
  11.7487019  29.7705229  23.3440785  12.9893150  29.1575733  24.3777470
  13.5424189  29.5771186  25.0367493  13.2263236  28.2311481  24.4200426
   9.0126249  35.1462806  40.1580234   8.9122976  36.0957163  40.0892325
   8.7947791  34.8181045  39.2856304  16.3671957  31.2676258  23.8856134
  15.7870626  31.9261062  23.5034186  16.1007890  30.4453602  23.4743551
  14.8175524  30.6681315  26.0877454  15.3175302  30.7797850  25.2791773
  15.4611131  30.3642368  26.7278263   8.8757519  38.5759945  38.9745295
   8.3924601  39.3760305  39.1809184   8.9618458  38.5867890  38.0212739
   2.1443479  40.4088325  26.8967115   2.1214167  40.5076012  25.9448998
   2.4544115  41.2553475  27.2184281   4.8030857  42.4664480  31.0113729
   5.7574110  42.4348422  30.9443661   4.6043380  42.0055103  31.8263955
   5.3930239  41.0365596  33.5784527   6.2123128  41.5309674  33.6019364
   5.6667047  40.1197564  33.5502094  15.1496835  33.4276348  22.9412482
  14.2622690  33.7125999  22.7232677  15.5650824  33.2670111  22.0939759
  18.5011371  33.4522869  26.6566821  19.2771761  33.9419321  26.9291438
  17.7759505  33.8780923  27.1138691  20.9383930  34.1650488  27.7140762
  21.5328421  33.9246224  27.0034070  21.0110514  33.4457619  28.3414298
   3.1581086  48.0084099  28.0283927   3.0235554  47.2484500  27.4621925
   2.7413148  48.7324999  27.5612716  14.2940049  43.1921023  17.0360502
  14.9975899  43.3971025  17.6518158  13.5702697  43.7597785  17.3009586
  15.1237859  38.9430884  23.1562772  15.0673060  39.3999435  22.3170405
  15.6766201  38.1821569  22.9785615  18.9342665  34.7320616  23.9812892
  18.6779599  34.3317252  24.8121100  18.3095533  35.4464410  23.8563031
  23.2455003  37.4716689  26.4884183  22.6854561  37.5409878  27.2615745
  22.6398506  37.2957674  25.7683679   6.3150212  48.9053416  28.2402370
   6.1982596  49.8498849  28.1381060   5.4942658  48.6026978  28.6288169
  16.2026746  43.6303552  19.0858962  17.0372350  43.1984750  18.9036437
  16.0411089  43.4585566  20.0135857  15.8572638  40.1335665  20.4515302
  15.8021442  39.9679937  19.5103746  15.2318694  40.8411698  20.6077491
  13.1718545  42.4384577  39.7768864  14.0409705  42.6125229  39.4155499
  12.6925297  43.2578994  39.6544594   7.3404726  49.5581678  31.4558298
   8.2431972  49.5905288  31.7724793   7.1142096  48.6282129  31.4704634
   9.0958328  48.3112665  28.1168377   8.1453959  48.3114526  28.0032749
   9.3990814  47.5645399  27.6004411  12.9820883  26.2286551  24.2846557
  12.2153279  25.6745038  24.4303239  13.3931588  26.3008420  25.1460708
   4.9862644  32.5171347  38.3751738   5.8494106  32.1608152  38.5855063
   4.4128055  32.1785242  39.0627142  24.8311021  54.1473203  29.1814139
  25.4689431  54.0279950  28.4777479  24.7131864  55.0954047  29.2402091
  21.6400727  54.1000631  29.1175664  21.3019239  53.9841696  28.2296199
  22.5090496  53.6991796  29.0976670  17.4987543  55.9536108  25.1072555
  16.9352408  55.8626044  24.3388842  17.3839938  55.1336012  25.5875047
  22.1220510  55.2535483  35.0761869  22.1109151  54.8588281  34.2042373
  22.2841150  54.5201555  35.6695641  15.0451975  57.4487299  27.9456775
  15.8373267  57.1078124  27.5303074  15.2848625  57.5582274  28.8658928
  23.0787102  59.6207075  20.4187020  22.4275082  60.2061156  20.0321033
  23.8731465  60.1513270  20.4782057  17.0042729  56.7096212  20.8174154
  17.7773605  56.1625199  20.6787030  17.3568128  57.5740462  21.0288615
  18.8427772  58.0372595  34.0241053  18.5517638  58.9418226  33.9087719
  19.4784756  58.0789122  34.7385123  19.7683978  55.4149443  30.6142413
  20.3647551  55.1905466  29.8999376  19.8258950  54.6734189  31.2167861
  19.3409007  52.8688879  18.4492604  19.5934527  52.3470400  17.6876067
  18.4033566  52.7055024  18.5519287  24.3852290  51.8724657  26.2567347
  25.1715379  51.4544080  25.9057764  24.6490994  52.7770749  26.4248995
  24.5562367  57.3097507  20.9556004  23.9208200  57.3832134  21.6676908
  24.2259773  57.8991106  20.2775083  29.7860717  51.8099890  27.1600326
  30.5185889  51.2399107  27.3938155  29.0300072  51.4221491  27.6006831
  19.0605296  54.7716984  20.6516979  18.9441554  54.0961888  21.3198063
  19.1707555  54.2849358  19.8349132  21.4036836  54.2327132  24.3563668
  21.0395044  53.7057753  25.0676589  22.2603952  53.8425601  24.1830153
  27.3086137  45.5221464  31.6194934  26.9769462  46.3916875  31.3956149
  26.7131750  45.2057748  32.2988965  21.0442323  49.2617031  19.3525016
  21.2116726  50.1297268  19.7195488  20.8539493  49.4244313  18.4286306
  23.8017657  57.7234010  31.0190847  23.5018380  58.6259049  30.9106654
  23.4568716  57.4566193  31.8712000  17.2530138  54.1747807  27.0527551
  16.3280635  54.0424021  27.2605243  17.5014551  54.9542026  27.5497494
  27.2014800  50.2416550  28.6988284  26.2931678  50.1731959  28.4047045
  27.1502396  50.7188495  29.5270110  21.0231544  51.7174689  20.3371683
  20.9031170  52.1631740  21.1757164  20.3284133  52.0660006  19.7785221
  14.6138949  53.8181081  27.8871340  14.7431330  54.0715560  28.8010752
  13.9336400  54.4108789  27.5675995  18.7838436  64.4878331  23.9861815
  18.7062466  65.4386156  24.0650295  18.1800080  64.1424203  24.6436741
  21.2755666  51.6606196  36.6423181  20.4989000  52.2200116  36.6326046
  21.9146229  52.1462979  37.1638052  29.0676447  48.4432989  30.4766158
  28.4250827  48.7365522  29.8305953  28.5631375  48.3285909  31.2819355
  26.7216610  52.1896162  21.1652017  27.6334467  52.4223549  20.9899715
  26.2126258  52.7733206  20.6027096  19.5302039  54.4691649  36.2041148
  20.2716723  55.0076693  35.9275972  18.8239024  55.0957938  36.3612700
  25.0057378  56.6120790  34.8013310  25.4140734  56.1703200  34.0567942
  24.2834640  56.0373417  35.0547503  21.3588448  51.5493397  32.1746867
  22.2049643  51.9732810  32.3181516  21.2987086  50.8927021  32.8685430
  25.3286193  57.1721980  28.5565599  24.6995055  57.3367695  27.8541667
  24.9411855  57.5863590  29.3276563  29.2075425  58.1076418  25.9109963
  28.5226463  58.4875320  25.3606996  29.2919274  58.7171745  26.6441910
  24.5087894  49.2097765  33.8328041  24.2648825  49.9639825  33.2962316
  24.7847824  49.5883113  34.6675288  26.4626356  55.7536377  32.5105306
  26.6743252  56.3968137  31.8339687  26.4156105  54.9198694  32.0427236
  24.0652585  48.3654198  29.4141878  23.2037064  48.6635452  29.7058616
  24.0915020  48.5824597  28.4822911  20.8814155  56.9096389  25.8215684
  21.3452500  57.1884091  25.0320306  20.6170953  56.0079833  25.6388775
  17.7738236  56.4567870  28.7595447  18.3439593  56.8855138  28.1212932
  18.3646348  56.1750455  29.4579633  19.8183041  53.0319541  22.6305249
  20.5207084  53.4840585  23.0979175  19.4863669  52.3903360  23.2585142
  18.2663402  51.6231297  37.0056458  17.6362063  52.3047578  37.2391855
  18.1599490  51.5114379  36.0609597  13.5608375  51.2903094  27.9322383
  12.7707429  51.5460622  27.4562493  14.0519622  52.1051431  28.0374423
  27.5772184  58.6308333  30.6827663  28.3989628  58.2288520  30.4010345
  27.5734587  58.5276567  31.6343779  15.5123120  51.6547673  24.8905859
  14.7154283  51.7666367  25.4089355  15.2848712  51.9934325  24.0246750
  21.3428788  58.1792376  32.8388374  21.4073220  58.6412783  33.6746546
  20.6339712  57.5489741  32.9670684  11.8446078  51.5433584  30.3637373
  12.0954116  52.4280594  30.6294949  12.3805626  51.3638186  29.5912465
  35.6678177  54.9747081  27.0312635  34.9141886  54.4054479  26.8756639
  35.8025719  54.9409746  27.9783270  21.0576805  59.8460483  22.7067354
  20.9222480  60.6912019  23.1352202  21.5986618  60.0479761  21.9433288
  17.5444145  45.9252063  39.3681710  17.1511091  45.3718262  40.0429354
  18.3610285  46.2362642  39.7588227  14.5106203  57.3635922  23.2795279
  15.0230723  58.1579172  23.4300844  15.1628916  56.6662212  23.2128881
  16.3201087  60.4801678  25.3618033  16.4967716  61.4019643  25.1739016
  17.1157921  60.1660097  25.7912412  20.4612106  47.3409942  36.9601966
  21.2021819  47.9417096  36.8806429  20.6930029  46.5987580  36.4020009
  15.6053444  52.5266310  35.2380196  15.4906959  51.6251567  35.5387295
  14.7497962  52.7730006  34.8865012  22.6845282  60.4684050  36.8367696
  22.2409136  59.6820429  36.5188601  23.3462495  60.6563201  36.1711587
  17.4432403  61.9979852  31.3628375  17.9939828  61.8696915  30.5905369
  16.6043879  62.2974741  31.0123268  24.7826520  60.7486850  34.8649098
  24.7644995  61.5695731  34.3729367  25.7046440  60.6240925  35.0899239
  21.2399574  58.2630979  35.7072606  21.7727911  57.5019268  35.4771914
  20.7113655  57.9704631  36.4496760  24.4069269  43.3691045  31.2366248
  24.0633538  44.2592687  31.1605358  24.7748232  43.1792703  30.3735833
  12.4755120  55.6924576  24.0554850  13.3130342  56.1021584  23.8388558
  12.6533387  54.7524018  24.0255044  24.3719552  53.3599656  19.7438683
  23.8566175  54.1304261  19.9827070  24.0996860  52.6864793  20.3671744
  21.9566663  48.2049357  24.8023921  21.1008259  47.8156208  24.6229560
  22.3693614  48.2841318  23.9423707  23.4865809  45.7395701  29.2015481
  22.9830605  45.7025836  28.3883286  23.7796416  46.6488443  29.2612138
  19.7308695  45.8234430  28.2081663  20.5961692  45.6277239  27.8487552
  19.7986204  45.5944782  29.1351019  29.3453826  56.1132011  21.6791856
  28.5683269  55.7743171  21.2347018  30.0245307  56.1184634  21.0046821
  24.1605855  51.2326749  21.5698464  23.8555990  51.5472898  22.4208607
  25.1136297  51.3108168  21.6125797  22.6052287  57.3916972  23.2191418
  22.0773648  56.6569731  22.9064655  22.1039789  58.1691648  22.9731386
  27.5845133  55.5865992  28.3358464  26.9268807  56.2765254  28.4238593
  28.3885532  55.9762424  28.6792451  17.3371014  48.0536638  25.5798030
  17.9114766  47.8311820  24.8471222  17.9241997  48.1225333  26.3326631
  26.3950591  53.9410365  26.3862406  26.9082473  54.5740357  26.8884116
  27.0451815  53.3411561  26.0205766  17.6640601  50.0841099  19.5993915
  16.8277914  50.4215786  19.9203190  17.5245371  49.9490079  18.6621052
  19.6393682  44.9277887  24.3073099  18.9858094  44.6126904  23.6829714
  19.5974156  44.3053628  25.0332922  20.7504887  55.2097182  16.2226391
  19.8431949  54.9786436  16.4217540  21.2475919  54.4134801  16.4100373
  23.6572966  63.9194689  19.1423077  22.9834664  64.2226386  19.7508035
  24.0438788  64.7223770  18.7928534  22.8731422  51.4159821  28.6320747
  21.9553984  51.6374768  28.4742435  23.2891566  51.4906131  27.7732454
  23.6566470  52.8151236  23.7623427  24.4038289  53.3272634  23.4530549
  23.9258060  52.4935289  24.6227820  21.9293120  55.3109777  20.7450381
  21.0204340  55.0268810  20.8422851  21.9588204  55.7308856  19.8853688
  27.1612388  58.9216367  24.5141549  26.7074715  58.0807276  24.5706739
  26.5306354  59.5577765  24.8516329  26.1045307  49.8508353  25.7442216
  25.3668064  49.3385739  26.0752459  26.3572081  49.4108734  24.9325493
  25.6045327  60.7592863  25.4491367  25.8968301  61.3197920  24.7303732
  26.1143948  61.0521424  26.2044526  26.2056935  42.6284605  26.3383985
  26.5115811  41.7681968  26.0509901  26.9309539  43.2202225  26.1382979
  12.4981291  53.0315291  24.7265583  12.3005690  52.4384652  24.0016650
  11.9427955  52.7267501  25.4441522  20.4778014  52.9238398  26.8460177
  20.5326624  51.9712234  26.7702653  19.6669216  53.0797837  27.3301475
  21.6269208  56.8518521  18.0838460  21.1888638  56.1354380  17.6244097
  22.3679649  57.0794636  17.5223551  18.4170374  51.5415457  24.6050555
  17.6038240  51.8409628  25.0115748  18.9129368  51.1471146  25.3225038
  20.5678952  61.5373214  26.5384820  20.5255131  61.7634061  25.6093352
  21.4841651  61.3036589  26.6870621  24.0144586  52.0057282  33.4365449
  24.3693974  52.2328755  34.2959915  24.6616717  52.3375659  32.8142705
  29.7442323  55.1275718  24.1414778  29.6060221  55.3177314  23.2135968
  29.3878542  55.8895101  24.5982829  17.9084449  49.1133813  30.2211790
  18.5483828  48.9722572  29.5234754  17.0761980  48.8268326  29.8450392
  29.7711702  57.1952245  29.1526050  30.2048209  57.1027534  30.0009104
  30.4843283  57.1709745  28.5146066  18.6844753  58.4136243  26.3346783
  19.4785351  57.9186563  26.1329358  17.9736445  57.8854106  25.9714488
  23.5039597  60.7954339  30.6859150  23.5576620  61.3645275  31.4536866
  22.6354379  60.9656224  30.3213188  14.9927516  52.5579325  22.4106535
  14.0625104  52.4963781  22.6276498  15.0884988  52.0355278  21.6143177
  14.9113065  49.0834138  24.9984777  15.1719883  49.9979471  24.8893938
  15.7330238  48.6158580  25.1481390  16.3837991  50.4971895  32.1683602
  17.0561044  50.2889257  31.5196251  15.5567777  50.2993981  31.7288834
  30.6327252  57.2375945  31.6858935  30.8263142  58.1421756  31.9318210
  30.5327870  56.7783364  32.5197520  22.2863563  47.1233836  34.1849263
  21.6391478  47.8223786  34.0913739  23.0564578  47.5569980  34.5525511
  25.6942361  57.3882688  37.2599816  25.5427867  57.1593240  36.3429900
  25.6847040  58.3453290  37.2731161  22.4627697  54.9614601  32.2446082
  23.3919757  55.1125760  32.0715050  22.0418727  55.0498622  31.3894729
  21.2616029  58.9865265  30.0144620  21.1227115  58.6184050  30.8870558
  20.4730625  59.5012905  29.8428578  21.8564181  64.0874362  21.3570156
  22.0315937  63.6162405  22.1715779  21.1696969  64.7140128  21.5851417
  22.8121244  58.3646868  27.4033458  22.4771077  58.3247638  28.2991108
  22.3125190  57.6991584  26.9303868  16.7865488  53.7714498  32.9286039
  16.6485286  53.0394737  33.5297578  17.6970411  53.6823398  32.6470227
  25.7480436  55.7102902  17.6770517  25.1309606  54.9849731  17.5803570
  25.2796924  56.4712263  17.3337592  19.4147789  53.4834457  32.4169718
  20.1247407  52.8427650  32.3756337  19.3717097  53.7347352  33.3395899
  27.4034567  60.4201811  35.3376298  27.3447114  59.7361031  34.6706881
  27.8054086  61.1620801  34.8856924  18.1276723  50.4699675  34.2365358
  17.5914080  50.0190414  34.8886954  17.5393431  50.6045584  33.4935822
  16.4225266  67.2363725  28.1310017  16.6621864  67.8682249  28.8089035
  15.5794463  66.8851765  28.4175376  17.5378982  49.9288327  16.7991822
  16.6608448  49.8077127  16.4354068  18.0136735  49.1374405  16.5470710
  27.4051975  58.3841395  33.5690277  26.5178753  58.0467316  33.6916676
  27.9750526  57.6524426  33.8059043   9.0581122  54.7165486  26.8933329
   9.7452162  54.4027216  26.3054344   8.9029250  55.6206851  26.6200580
  13.8615844  49.6055683  31.3218352  13.7774033  48.9981352  30.5868762
  13.0398550  50.0964701  31.3227849  20.9353128  63.0442847  30.5351521
  20.8623299  63.8497818  31.0470825  20.4930521  63.2434813  29.7099542
  20.7242908  62.2814617  24.0454342  19.9410430  62.8236297  24.1392567
  21.4235653  62.7988597  24.4448583  24.0339558  48.0909246  26.6888547
  24.5308257  47.3379209  26.3689618  23.2626539  48.1273563  26.1231757
  31.8869315  53.7949612  28.3306839  31.8759191  54.6774327  27.9600772
  31.0186695  53.4421163  28.1361376  23.3951812  62.9429681  32.6909679
  24.1079784  63.5777146  32.6185581  22.9041840  63.0393547  31.8749681
  25.1169338  56.8480934  24.2626971  24.1825617  56.9682396  24.0931675
  25.2946007  55.9453400  23.9986981  20.6174527  50.2326629  26.4160232
  20.2472314  49.6797670  27.1041138  21.1133619  49.6284763  25.8635232
  28.5041890  52.6898253  24.7977005  28.9702342  53.5226245  24.7237308
  28.9549390  52.2243235  25.5022264  18.4463725  60.6924124  33.5115250
  19.1473185  61.3260607  33.6644644  17.9758840  61.0338856  32.7510889
  26.5718121  59.0342074  21.7963157  26.8477965  58.9198669  22.7057031
  25.7022620  58.6359559  21.7575330  26.4758553  45.0578840  28.8367906
  25.5621632  45.2883067  29.0050113  26.9051654  45.1417284  29.6881939
  26.2465011  53.2468732  31.3367800  25.5936461  53.4944639  30.6820253
  26.6245391  52.4332870  31.0030278  23.2072185  63.2828425  25.4395971
  23.3894579  62.4650081  25.9023723  24.0305171  63.4996117  25.0020861
  23.5414350  62.2096610  22.7011019  24.0702117  61.6989065  22.0881181
  23.8042570  61.8939140  23.5656552  22.2952584  53.9888543  37.8233837
  21.6193221  53.8882672  38.4936213  23.1180218  53.8327757  38.2869835
  14.0431443  60.2260480  30.4446353  14.6284880  59.4804167  30.5774257
  13.8456282  60.5364436  31.3283017  16.8970098  63.2611727  25.4608795
  16.2280474  63.7457855  24.9772835  16.7582968  63.5080947  26.3752174
   8.6349098  52.7966080  29.1650796   8.6733197  52.2629670  29.9587914
   8.1289391  52.2701285  28.5461773  21.0375367  65.2955470  32.0591453
  21.5893675  65.4587092  32.8240539  21.3781560  65.8859908  31.3871478
  16.0139860  47.6430620  32.6613338  16.0781187  48.5045451  32.2490736
  15.9506980  47.0304622  31.9285697  15.4892133  49.7153753  36.3086372
  16.1164172  49.3330830  36.9223897  14.6320052  49.4967955  36.6742065
  25.8886241  60.1216728  37.9140108  26.4326145  60.7346686  37.4195063
  25.3073086  60.6796306  38.4307121  12.2657675  51.5230182  22.2404727
  12.5611117  50.6140860  22.1871781  11.3645711  51.5017921  21.9185730
  24.1743754  63.2437446  29.0455136  24.0494894  62.4427186  28.5366081
  24.8322845  63.7383639  28.5569106  15.7951922  49.5986178  28.2232276
  15.0738508  50.2122146  28.0839749  16.5845178  50.1343943  28.1448922
  26.2378663  61.0446466  30.6734686  25.2908998  60.9251817  30.6013012
  26.5861436  60.1568964  30.7560947  18.5978236  46.9340605  34.4972928
  19.1212638  47.1802901  35.2599237  18.3790569  47.7660640  34.0776065
  13.9945517  49.2044280  22.3644052  13.6658223  48.3241658  22.1819158
  14.3484888  49.1491948  23.2520442  23.2425096  60.8399182  26.8739038
  23.0950058  59.9115890  27.0546608  24.0678589  60.8619273  26.3896113
  17.1087340  49.4917249  22.7319530  17.4483413  50.0203171  22.0098138
  17.5559461  49.8297655  23.5078097  26.8459218  61.6627741  27.9603911
  27.7705765  61.4570602  27.8228362  26.6774521  61.4144142  28.8693252
  19.8030781  47.8754300  32.1822598  19.4627601  47.0762113  32.5843278
  19.0969787  48.1756011  31.6099431  20.4547253  44.9603612  30.6349921
  21.2773322  44.4864091  30.5128811  20.6985316  45.7394096  31.1348607
  19.0955487  47.9891871  20.9312823  19.8163850  48.3673124  20.4276540
  18.4720791  48.7080748  21.0347801  23.2386610  48.6937020  21.8671155
  23.4550225  49.5761658  21.5659983  22.7580677  48.3023233  21.1376797
  17.9785832  51.6522733  28.4441900  17.8330412  51.9663036  29.3366181
  17.5011035  52.2707633  27.8912798  19.8382214  48.6425281  28.4922789
  19.8243783  47.7466374  28.1555087  20.5554643  48.6495945  29.1261075
  21.6908345  49.0762621  30.5375917  21.4326123  49.9979692  30.5360247
  21.1593386  48.6793056  31.2276381  26.6354534  62.1813408  23.3166002
  26.8091411  61.6159831  22.5639855  27.1283425  62.9814303  23.1345492
  12.4531494  54.1928078  31.3829561  11.9084962  54.9687885  31.5149835
  13.3310844  54.5398882  31.2248682  19.2419110  47.5239661  23.7610359
  19.3635022  46.5956308  23.9601247  18.9521153  47.5378347  22.8488675
  22.1110301  45.2094572  26.8977079  22.1331998  45.2733905  25.9429059
  22.5278360  44.3699080  27.0917585  32.4893925  54.9449831  24.9356302
  32.9325071  54.1957157  24.5375425  31.6120435  54.9359968  24.5530034
  27.6229706  61.4980173  20.4162900  28.3180611  62.1186866  20.6350215
  27.9652857  60.6475524  20.6915278  13.2397516  53.3197974  34.2759718
  12.4979252  53.4680609  34.8624348  12.9190260  53.5806239  33.4126467
  29.5221130  58.9479878  21.9450231  30.0472454  59.2867151  21.2199551
  29.4343482  58.0126894  21.7613366  21.1841178  62.8613952  34.0740108
  21.4928305  62.6163099  34.9462807  21.9816660  63.0660590  33.5858978
  21.2061790  65.0151862  26.3045484  20.7666781  64.5228240  26.9978341
  21.9569907  64.4724829  26.0637560  13.6854129  61.2063403  26.3070112
  14.5112149  60.9067174  25.9268756  13.3348181  60.4371025  26.7559901
  18.6535662  60.5589871  28.3767786  18.0315672  59.8960576  28.0770014
  19.3240529  60.5851003  27.6941434  11.8862734  59.1249729  27.2659046
  11.0494643  58.6971903  27.0843047  11.8586380  59.3182172  28.2029837
  18.7260190  49.0371659  37.9700292  18.7748345  49.9133782  37.5878062
  19.2682704  48.4949052  37.3971935  29.2115036  59.5812782  37.2501429
  28.4210579  59.5636921  36.7105929  28.9748390  60.1201076  38.0050466
  29.3312911  56.4305248  34.5634158  29.3810916  56.2655256  35.5049680
  29.2226834  55.5632507  34.1732038  18.2149169  59.1093794  21.8526247
  18.3637290  59.7929258  21.1992919  19.0215613  59.0898884  22.3675702
  26.6216673  52.4136176  35.8793464  27.5226536  52.2742641  35.5877462
  26.6964648  52.5790631  36.8191642  20.9559478  49.7903031  34.7246651
  20.0862788  50.0836597  34.4529239  21.1918959  50.3743476  35.4453914
  30.8331108  58.8502190  34.8076179  30.5415916  59.2132170  35.6439640
  30.2203239  58.1369198  34.6289511  32.0326790  56.4155070  27.3278749
  32.8673681  56.8544874  27.4916310  32.1685919  55.9393723  26.5086995
  29.0818296  53.9734805  33.2756237  29.5572417  54.1662451  32.4675089
  28.1583861  54.0293990  33.0299621  15.9701802  55.1358972  22.8587315
  15.7247844  54.2321302  23.0567526  16.1397717  55.1376122  21.9166793
  23.6598512  46.0082648  32.2412071  24.1780456  46.7443675  31.9158560
  23.3053645  46.3146641  33.0758830  15.2397450  50.8687329  20.3573477
  14.5466695  50.9431684  19.7013513  14.9949202  50.1047673  20.8794994
  23.9111106  42.4282931  27.7612968  24.1912860  41.7606120  28.3873394
  24.6961713  42.6212026  27.2487632  21.7144575  61.6041925  19.3237994
  21.1418542  62.2232112  18.8708466  22.2877369  62.1541286  19.8577916
  27.7819965  50.8500565  31.5084543  28.7337388  50.9498662  31.5296767
  27.6123415  50.0578833  32.0182627  25.8034344  47.9356148  31.6943944
  25.2084276  48.2161161  30.9990432  25.5184041  48.4250049  32.4660685
  24.9341835  61.8879075  20.4546576  25.8672508  61.8224636  20.6579452
  24.8465048  62.7235342  19.9961109  27.5629851  61.2044945  17.4150524
  27.4843483  60.8704809  18.3086282  28.3839518  61.6966713  17.4141996
  30.2608043  54.0706684  30.6226842  30.2284363  53.1322685  30.8086526
  30.8708666  54.1490721  29.8892667  22.0991373  52.9402737  16.6654046
  23.0450478  52.8108945  16.7342465  21.7205618  52.2017399  17.1423475
  30.4102531  50.8617728  30.6685126  29.8941580  50.0776184  30.4815055
  31.2942480  50.5336444  30.8331645  28.0713258  44.6058743  26.6280938
  27.8738079  44.2973831  27.5124270  28.6812964  45.3320382  26.7578868
  36.0784592  55.1322691  29.7632879  36.8087981  54.8707979  30.3240583
  35.4691538  54.3951413  29.8034947  34.1599890  53.2730554  30.3607330
  33.4333053  53.1386519  29.7523822  33.7447176  53.5807382  31.1664048
  21.9830066  56.9920483  38.1254703  22.9033075  57.1699082  38.3194750
  21.9479649  56.0476529  37.9734403  20.2834291  50.8652714  16.6008932
  19.3765746  50.5685826  16.6771645  20.5610272  50.5682532  15.7343218
  11.2012231  52.1859077  27.0507978  10.8815015  51.3324385  26.7582352
  10.6545659  52.4007655  27.8065945  14.9792138  54.9021518  30.7677485
  15.1978148  55.8338626  30.7865518  15.3917912  54.5429492  31.5532288
  21.8996356  45.4089603  22.7553173  21.0897085  45.0636688  23.1308419
  22.5880773  45.0997147  23.3440785  23.8286905  44.4867650  24.3777470
  24.3817943  44.9063104  25.0367493  24.0656991  43.5603398  24.4200426
  19.8520004  50.4754724  40.1580234  19.7516731  51.4249081  40.0892325
  19.6341546  50.1472963  39.2856304  19.0533075  47.7239649  16.7420911
  19.9152239  48.0494547  17.0016728  19.2383419  46.9371145  16.2293977
  11.0700491  55.8061989  29.0201100  10.3763962  55.3915941  28.5071054
  11.8173482  55.8482525  28.4234519  27.2065712  46.5968175  23.8856134
  26.6264381  47.2552979  23.5034186  26.9401644  45.7745520  23.4743551
  25.6569278  45.9973233  26.0877454  26.1569056  46.1089768  25.2791773
  26.3004886  45.6934286  26.7278263  19.7151274  53.9051863  38.9745295
  19.2318356  54.7052223  39.1809184  19.8012213  53.9159808  38.0212739
  12.9837233  55.7380242  26.8967115  12.9607922  55.8367930  25.9448998
  13.2937870  56.5845393  27.2184281  15.6424611  57.7956397  31.0113729
  16.5967865  57.7640340  30.9443661  15.4437135  57.3347021  31.8263955
  16.2323993  56.3657513  33.5784527  17.0516882  56.8601592  33.6019364
  16.5060801  55.4489482  33.5502094  25.9890590  48.7568266  22.9412482
  25.1016445  49.0417916  22.7232677  26.4044579  48.5962029  22.0939759
  29.3405126  48.7814787  26.6566821  30.1165516  49.2711239  26.9291438
  28.6153260  49.2072841  27.1138691  31.7777684  49.4942406  27.7140762
  32.3722175  49.2538142  27.0034070  31.8504268  48.7749536  28.3414298
  13.9974840  63.3376017  28.0283927  13.8629308  62.5776418  27.4621925
  13.5806902  64.0616917  27.5612716  25.1333803  58.5212940  17.0360502
  25.8369653  58.7262943  17.6518158  24.4096452  59.0889702  17.3009586
  25.9631613  54.2722802  23.1562772  25.9066815  54.7291353  22.3170405
  26.5159956  53.5113486  22.9785615  29.7736419  50.0612534  23.9812892
  29.5173354  49.6609169  24.8121100  29.1489287  50.7756327  23.8563031
  34.0848757  52.8008607  26.4884183  33.5248315  52.8701796  27.2615745
  33.4792261  52.6249591  25.7683679  17.1543966  64.2345334  28.2402370
  17.0376350  65.1790766  28.1381060  16.3336412  63.9318895  28.6288169
  27.0420501  58.9595470  19.0858962  27.8766104  58.5276668  18.9036437
  26.8804843  58.7877483  20.0135857  26.6966393  55.4627583  20.4515302
  26.6415197  55.2971854  19.5103746  26.0712448  56.1703616  20.6077491
  11.4858908  50.6995647  34.2776724  12.1317771  50.1894601  34.7663949
  11.2776059  51.4364329  34.8520149  24.0112300  57.7676495  39.7768864
  24.8803460  57.9417147  39.4155499  23.5319051  58.5870912  39.6544594
  20.0062518  44.9635692  20.0300620  19.9941188  45.9077532  20.1868891
  20.8985940  44.7805837  19.7360081  18.1798480  64.8873596  31.4558298
  19.0825727  64.9197206  31.7724793  17.9535850  63.9574047  31.4704634
  19.9352082  63.6404582  28.1168377  18.9847713  63.6406444  28.0032749
  20.2384568  62.8937317  27.6004411  23.8214638  41.5578469  24.2846557
  23.0547033  41.0036955  24.4303239  24.2325343  41.6300337  25.1460708
  15.8256399  47.8463264  38.3751738  16.6887860  47.4900069  38.5855063
  15.2521809  47.5077159  39.0627142  35.6704776  69.4765121  29.1814139
  36.3083186  69.3571868  28.4777479  35.5525619  70.4245965  29.2402091
  32.4794482  69.4292549  29.1175664  32.1412993  69.3133614  28.2296199
  33.3484250  69.0283714  29.0976670  28.3381298  71.2828025  25.1072555
  27.7746163  71.1917962  24.3388842  28.2233693  70.4627930  25.5875047
  32.9614265  70.5827401  35.0761869  32.9502906  70.1880199  34.2042373
  33.1234904  69.8493473  35.6695641  25.8845730  72.7779217  27.9456775
  26.6767021  72.4370041  27.5303074  26.1242380  72.8874192  28.8658928
  33.9180856  74.9498993  20.4187020  33.2668836  75.5353073  20.0321033
  34.7125219  75.4805188  20.4782057  27.8436483  72.0388130  20.8174154
  28.6167359  71.4917117  20.6787030  28.1961882  72.9032379  21.0288615
  29.6821526  73.3664512  34.0241053  29.3911392  74.2710143  33.9087719
  30.3178510  73.4081040  34.7385123  30.6077733  70.7441361  30.6142413
  31.2041305  70.5197383  29.8999376  30.6652704  70.0026106  31.2167861
  30.1802761  68.1980796  18.4492604  30.4328282  67.6762317  17.6876067
  29.2427320  68.0346942  18.5519287  35.2246044  67.2016575  26.2567347
  36.0109133  66.7835998  25.9057764  35.4884748  68.1062667  26.4248995
  35.3956121  72.6389425  20.9556004  34.7601954  72.7124051  21.6676908
  35.0653528  73.2283024  20.2775083  40.6254471  67.1391808  27.1600326
  41.3579643  66.5691025  27.3938155  39.8693827  66.7513408  27.6006831
  29.8999050  70.1008902  20.6516979  29.7835308  69.4253806  21.3198063
  30.0101310  69.6141276  19.8349132  32.2430591  69.5619049  24.3563668
  31.8788798  69.0349670  25.0676589  33.0997707  69.1717518  24.1830153
  38.1479892  60.8513382  31.6194934  37.8163216  61.7208793  31.3956149
  37.5525505  60.5349666  32.2988965  31.8836078  64.5908949  19.3525016
  32.0510480  65.4589185  19.7195488  31.6933247  64.7536231  18.4286306
  34.6411411  73.0525928  31.0190847  34.3412134  73.9550967  30.9106654
  34.2962471  72.7858111  31.8712000  28.0923893  69.5039725  27.0527551
  27.1674389  69.3715939  27.2605243  28.3408306  70.2833944  27.5497494
  38.0408555  65.5708468  28.6988284  37.1325432  65.5023876  28.4047045
  37.9896151  66.0480413  29.5270110  31.8625299  67.0466606  20.3371683
  31.7424924  67.4923657  21.1757164  31.1677887  67.3951924  19.7785221
  25.4532704  69.1472998  27.8871340  25.5825085  69.4007477  28.8010752
  24.7730155  69.7400706  27.5675995  29.6232191  79.8170248  23.9861815
  29.5456221  80.7678073  24.0650295  29.0193835  79.4716121  24.6436741
  32.1149421  66.9898114  36.6423181  31.3382755  67.5492034  36.6326046
  32.7539984  67.4754897  37.1638052  39.9070201  63.7724906  30.4766158
  39.2644582  64.0657440  29.8305953  39.4025130  63.6577827  31.2819355
  37.5610365  67.5188080  21.1652017  38.4728221  67.7515466  20.9899715
  37.0520012  68.1025124  20.6027096  30.3695793  69.7983567  36.2041148
  31.1110477  70.3368611  35.9275972  29.6632778  70.4249856  36.3612700
  35.8451133  71.9412707  34.8013310  36.2534489  71.4995118  34.0567942
  35.1228394  71.3665335  35.0547503  32.1982203  66.8785314  32.1746867
  33.0443398  67.3024728  32.3181516  32.1380840  66.2218939  32.8685430
  36.1679947  72.5013898  28.5565599  35.5388810  72.6659612  27.8541667
  35.7805609  72.9155508  29.3276563  40.0469179  73.4368336  25.9109963
  39.3620217  73.8167237  25.3606996  40.1313028  74.0463663  26.6441910
  35.3481648  64.5389683  33.8328041  35.1042580  65.2931743  33.2962316
  35.6241579  64.9175030  34.6675288  37.3020111  71.0828295  32.5105306
  37.5137006  71.7260055  31.8339687  37.2549859  70.2490612  32.0427236
  34.9046340  63.6946116  29.4141878  34.0430819  63.9927369  29.7058616
  34.9308774  63.9116515  28.4822911  31.7207909  72.2388306  25.8215684
  32.1846255  72.5176009  25.0320306  31.4564707  71.3371751  25.6388775
  28.6131990  71.7859788  28.7595447  29.1833347  72.2147056  28.1212932
  29.2040102  71.5042372  29.4579633  30.6576795  68.3611459  22.6305249
  31.3600839  68.8132502  23.0979175  30.3257424  67.7195277  23.2585142
  29.1057157  66.9523215  37.0056458  28.4755817  67.6339496  37.2391855
  28.9993245  66.8406297  36.0609597  24.4002129  66.6195011  27.9322383
  23.6101183  66.8752540  27.4562493  24.8913377  67.4343349  28.0374423
  38.4165939  73.9600250  30.6827663  39.2383382  73.5580438  30.4010345
  38.4128342  73.8568485  31.6343779  26.3516875  66.9839590  24.8905859
  25.5548038  67.0958285  25.4089355  26.1242467  67.3226243  24.0246750
  32.1822542  73.5084294  32.8388374  32.2466975  73.9704701  33.6746546
  31.4733466  72.8781659  32.9670684  22.6839832  66.8725502  30.3637373
  22.9347871  67.7572512  30.6294949  23.2199381  66.6930103  29.5912465
  46.5071932  70.3038999  27.0312635  45.7535640  69.7346397  26.8756639
  46.6419473  70.2701663  27.9783270  31.8970560  75.1752401  22.7067354
  31.7616235  76.0203937  23.1352202  32.4380372  75.3771679  21.9433288
  28.3837899  61.2543981  39.3681710  27.9904845  60.7010180  40.0429354
  29.2004040  61.5654559  39.7588227  25.3499957  72.6927839  23.2795279
  25.8624478  73.4871089  23.4300844  26.0022670  71.9954130  23.2128881
  27.1594842  75.8093595  25.3618033  27.3361470  76.7311560  25.1739016
  27.9551675  75.4952015  25.7912412  31.3005860  62.6701860  36.9601966
  32.0415574  63.2709013  36.8806429  31.5323783  61.9279498  36.4020009
  26.4447198  67.8558227  35.2380196  26.3300714  66.9543485  35.5387295
  25.5891716  68.1021924  34.8865012  33.5239036  75.7975968  36.8367696
  33.0802890  75.0112346  36.5188601  34.1856250  75.9855118  36.1711587
  28.2826157  77.3271769  31.3628375  28.8333583  77.1988833  30.5905369
  27.4437633  77.6266658  31.0123268  35.6220274  76.0778768  34.8649098
  35.6038750  76.8987649  34.3729367  36.5440194  75.9532843  35.0899239
  32.0793328  73.5922897  35.7072606  32.6121665  72.8311185  35.4771914
  31.5507410  73.2996549  36.4496760  35.2463023  58.6982963  31.2366248
  34.9027293  59.5884605  31.1605358  35.6141986  58.5084621  30.3735833
  23.3148874  71.0216494  24.0554850  24.1524096  71.4313502  23.8388558
  23.4927142  70.0815936  24.0255044  35.2113306  68.6891574  19.7438683
  34.6959930  69.4596179  19.9827070  34.9390615  68.0156710  20.3671744
  32.7960417  63.5341275  24.8023921  31.9402014  63.1448125  24.6229560
  33.2087369  63.6133236  23.9423707  34.3259564  61.0687618  29.2015481
  33.8224359  61.0317753  28.3883286  34.6190171  61.9780361  29.2612138
  30.5702450  61.1526348  28.2081663  31.4355446  60.9569157  27.8487552
  30.6379959  60.9236700  29.1351019  40.1847580  71.4423929  21.6791856
  39.4077023  71.1035088  21.2347018  40.8639061  71.4476552  21.0046821
  34.9999609  66.5618666  21.5698464  34.6949745  66.8764815  22.4208607
  35.9530051  66.6400086  21.6125797  33.4446041  72.7208890  23.2191418
  32.9167403  71.9861649  22.9064655  32.9433544  73.4983566  22.9731386
  38.4238887  70.9157910  28.3358464  37.7662562  71.6057171  28.4238593
  39.2279286  71.3054342  28.6792451  28.1764769  63.3828556  25.5798030
  28.7508521  63.1603737  24.8471222  28.7635751  63.4517250  26.3326631
  37.2344346  69.2702283  26.3862406  37.7476228  69.9032275  26.8884116
  37.8845570  68.6703478  26.0205766  28.5034356  65.4133017  19.5993915
  27.6671668  65.7507703  19.9203190  28.3639126  65.2781997  18.6621052
  30.4787436  60.2569805  24.3073099  29.8251849  59.9418822  23.6829714
  30.4367911  59.6345545  25.0332922  31.5898641  70.5389100  16.2226391
  30.6825703  70.3078353  16.4217540  32.0869673  69.7426719  16.4100373
  34.4966720  79.2486607  19.1423077  33.8228419  79.5518304  19.7508035
  34.8832542  80.0515687  18.7928534  33.7125177  66.7451738  28.6320747
  32.7947738  66.9666685  28.4742435  34.1285320  66.8198049  27.7732454
  34.4960225  68.1443154  23.7623427  35.2432044  68.6564551  23.4530549
  34.7651814  67.8227207  24.6227820  32.7686875  70.6401695  20.7450381
  31.8598094  70.3560728  20.8422851  32.7981959  71.0600773  19.8853688
  38.0006142  74.2508284  24.5141549  37.5468469  73.4099194  24.5706739
  37.3700109  74.8869683  24.8516329  36.9439062  65.1800270  25.7442216
  36.2061819  64.6677656  26.0752459  37.1965835  64.7400652  24.9325493
  36.4439081  76.0884781  25.4491367  36.7362056  76.6489838  24.7303732
  36.9537702  76.3813342  26.2044526  37.0450689  57.9576522  26.3383985
  37.3509566  57.0973886  26.0509901  37.7703294  58.5494142  26.1382979
  23.3375045  68.3607209  24.7265583  23.1399445  67.7676570  24.0016650
  22.7821709  68.0559419  25.4441522  31.3171769  68.2530315  26.8460177
  31.3720379  67.3004152  26.7702653  30.5062971  68.4089754  27.3301475
  32.4662963  72.1810438  18.0838460  32.0282392  71.4646297  17.6244097
  33.2073403  72.4086553  17.5223551  29.2564129  66.8707375  24.6050555
  28.4431994  67.1701546  25.0115748  29.7523123  66.4763064  25.3225038
  31.4072707  76.8665132  26.5384820  31.3648885  77.0925978  25.6093352
  32.3235405  76.6328507  26.6870621  34.8538340  67.3349200  33.4365449
  35.2087728  67.5620673  34.2959915  35.5010472  67.6667576  32.8142705
  40.5836077  70.4567635  24.1414778  40.4453976  70.6469231  23.2135968
  40.2272296  71.2187018  24.5982829  28.7478203  64.4425731  30.2211790
  29.3877583  64.3014490  29.5234754  27.9155734  64.1560244  29.8450392
  40.6105457  72.5244162  29.1526050  41.0441964  72.4319452  30.0009104
  41.3237038  72.5001663  28.5146066  29.5238507  73.7428161  26.3346783
  30.3179106  73.2478481  26.1329358  28.8130200  73.2146024  25.9714488
  34.3433352  76.1246257  30.6859150  34.3970374  76.6937193  31.4536866
  33.4748133  76.2948142  30.3213188  25.8321271  67.8871243  22.4106535
  24.9018859  67.8255698  22.6276498  25.9278743  67.3647195  21.6143177
  25.7506820  64.4126056  24.9984777  26.0113637  65.3271389  24.8893938
  26.5723992  63.9450498  25.1481390  27.2231745  65.8263813  32.1683602
  27.8954799  65.6181175  31.5196251  26.3961532  65.6285899  31.7288834
  41.4721007  72.5667863  31.6858935  41.6656897  73.4713674  31.9318210
  41.3721625  72.1075282  32.5197520  33.1257317  62.4525754  34.1849263
  32.4785232  63.1515703  34.0913739  33.8958333  62.8861898  34.5525511
  36.5336115  72.7174606  37.2599816  36.3821622  72.4885158  36.3429900
  36.5240795  73.6745207  37.2731161  33.3021452  70.2906519  32.2446082
  34.2313512  70.4417678  32.0715050  32.8812482  70.3790539  31.3894729
  32.1009783  74.3157183  30.0144620  31.9620869  73.9475967  30.8870558
  31.3124380  74.8304822  29.8428578  32.6957935  79.4166279  21.3570156
  32.8709691  78.9454323  22.1715779  32.0090723  80.0432046  21.5851417
  33.6514999  73.6938786  27.4033458  33.3164831  73.6539556  28.2991108
  33.1518944  73.0283502  26.9303868  27.6259242  69.1006416  32.9286039
  27.4879040  68.3686655  33.5297578  28.5364166  69.0115316  32.6470227
  36.5874190  71.0394820  17.6770517  35.9703361  70.3141648  17.5803570
  36.1190679  71.8004180  17.3337592  30.2541543  68.8126375  32.4169718
  30.9641162  68.1719567  32.3756337  30.2110851  69.0639270  33.3395899
  38.2428322  75.7493728  35.3376298  38.1840868  75.0652948  34.6706881
  38.6447840  76.4912718  34.8856924  28.9670477  65.7991593  34.2365358
  28.4307834  65.3482331  34.8886954  28.3787186  65.9337502  33.4935822
  27.2619021  82.5655642  28.1310017  27.5015619  83.1974166  28.8089035
  26.4188217  82.2143682  28.4175376  28.3772736  65.2580244  16.7991822
  27.5002202  65.1369045  16.4354068  28.8530489  64.4666323  16.5470710
  38.2445729  73.7133312  33.5690277  37.3572508  73.3759234  33.6916676
  38.8144280  72.9816344  33.8059043  19.8974876  70.0457404  26.8933329
  20.5845916  69.7319134  26.3054344  19.7423005  70.9498769  26.6200580
  24.7009598  64.9347601  31.3218352  24.6167787  64.3273270  30.5868762
  23.8792305  65.4256619  31.3227849  31.7746883  78.3734765  30.5351521
  31.7017054  79.1789736  31.0470825  31.3324276  78.5726730  29.7099542
  31.5636662  77.6106535  24.0454342  30.7804184  78.1528215  24.1392567
  32.2629407  78.1280514  24.4448583  34.8733312  63.4201164  26.6888547
  35.3702012  62.6671126  26.3689618  34.1020294  63.4565481  26.1231757
  42.7263070  69.1241530  28.3306839  42.7152946  70.0066245  27.9600772
  41.8580449  68.7713081  28.1361376  34.2345566  78.2721599  32.6909679
  34.9473538  78.9069064  32.6185581  33.7435595  78.3685465  31.8749681
  35.9563093  72.1772851  24.2626971  35.0219372  72.2974314  24.0931675
  36.1339761  71.2745318  23.9986981  31.4568281  65.5618547  26.4160232
  31.0866069  65.0089588  27.1041138  31.9527373  64.9576681  25.8635232
  39.3435644  68.0190171  24.7977005  39.8096096  68.8518162  24.7237308
  39.7943145  67.5535152  25.5022264  29.2857480  76.0216042  33.5115250
  29.9866939  76.6552525  33.6644644  28.8152595  76.3630774  32.7510889
  37.4111875  74.3633992  21.7963157  37.6871719  74.2490587  22.7057031
  36.5416374  73.9651477  21.7575330  37.3152307  60.3870758  28.8367906
  36.4015387  60.6174984  29.0050113  37.7445408  60.4709202  29.6881939
  37.0858766  68.5760650  31.3367800  36.4330216  68.8236557  30.6820253
  37.4639145  67.7624788  31.0030278  34.0465939  78.6120343  25.4395971
  34.2288334  77.7941999  25.9023723  34.8698925  78.8288035  25.0020861
  34.3808105  77.5388528  22.7011019  34.9095871  77.0280982  22.0881181
  34.6436324  77.2231058  23.5656552  33.1346339  69.3180461  37.8233837
  32.4586976  69.2174590  38.4936213  33.9573972  69.1619674  38.2869835
  24.8825198  75.5552397  30.4446353  25.4678634  74.8096085  30.5774257
  24.6850036  75.8656354  31.3283017  27.7363853  78.5903645  25.4608795
  27.0674228  79.0749772  24.9772835  27.5976723  78.8372865  26.3752174
  19.4742852  68.1257997  29.1650796  19.5126952  67.5921588  29.9587914
  18.9683145  67.5993203  28.5461773  31.8769121  80.6247388  32.0591453
  32.4287429  80.7879010  32.8240539  32.2175315  81.2151826  31.3871478
  26.8533615  62.9722538  32.6613338  26.9174941  63.8337369  32.2490736
  26.7900735  62.3596540  31.9285697  26.3285887  65.0445670  36.3086372
  26.9557926  64.6622748  36.9223897  25.4713806  64.8259872  36.6742065
  23.1051430  66.8522100  22.2404727  23.4004871  65.9432778  22.1871781
  22.2039466  66.8309839  21.9185730  35.0137509  78.5729364  29.0455136
  34.8888648  77.7719103  28.5366081  35.6716600  79.0675557  28.5569106
  26.6345677  64.9278096  28.2232276  25.9132263  65.5414064  28.0839749
  27.4238933  65.4635861  28.1448922  37.0772417  76.3738384  30.6734686
  36.1302753  76.2543735  30.6013012  37.4255190  75.4860882  30.7560947
  29.4371990  62.2632523  34.4972928  29.9606392  62.5094819  35.2599237
  29.2184324  63.0952557  34.0776065  24.8339272  64.5336197  22.3644052
  24.5051978  63.6533576  22.1819158  25.1878642  64.4783866  23.2520442
  34.0818850  76.1691100  26.8739038  33.9343813  75.2407807  27.0546608
  34.9072344  76.1911191  26.3896113  27.9481095  64.8209167  22.7319530
  28.2877167  65.3495088  22.0098138  28.3953215  65.1589573  23.5078097
  37.6852972  76.9919659  27.9603911  38.6099520  76.7862520  27.8228362
  37.5168276  76.7436060  28.8693252  30.6424536  63.2046218  32.1822598
  30.3021356  62.4054031  32.5843278  29.9363542  63.5047929  31.6099431
  31.2941007  60.2895530  30.6349921  32.1167077  59.8156008  30.5128811
  31.5379071  61.0686014  31.1348607  29.9349242  63.3183789  20.9312823
  30.6557604  63.6965041  20.4276540  29.3114546  64.0372665  21.0347801
  34.0780365  64.0228938  21.8671155  34.2943979  64.9053575  21.5659983
  33.5974432  63.6315151  21.1376797  28.8179586  66.9814651  28.4441900
  28.6724167  67.2954954  29.3366181  28.3404790  67.5999551  27.8912798
  30.6775969  63.9717199  28.4922789  30.6637538  63.0758292  28.1555087
  31.3948397  63.9787863  29.1261075  32.5302100  64.4054539  30.5375917
  32.2719878  65.3271610  30.5360247  31.9987140  64.0084974  31.2276381
  37.4748288  77.5105326  23.3166002  37.6485166  76.9451749  22.5639855
  37.9677180  78.3106221  23.1345492  23.2925248  69.5219995  31.3829561
  22.7478716  70.2979803  31.5149835  24.1704598  69.8690800  31.2248682
  30.0812865  62.8531579  23.7610359  30.2028776  61.9248225  23.9601247
  29.7914907  62.8670265  22.8488675  32.9504055  60.5386490  26.8977079
  32.9725752  60.6025823  25.9429059  33.3672114  59.6990998  27.0917585
  43.3287680  70.2741749  24.9356302  43.7718826  69.5249074  24.5375425
  42.4514190  70.2651885  24.5530034  38.4623461  76.8272091  20.4162900
  39.1574366  77.4478783  20.6350215  38.8046611  75.9767442  20.6915278
  24.0791270  68.6489891  34.2759718  23.3373006  68.7972527  34.8624348
  23.7584014  68.9098157  33.4126467  40.3614884  74.2771796  21.9450231
  40.8866208  74.6159069  21.2199551  40.2737237  73.3418811  21.7613366
  32.0234933  78.1905870  34.0740108  32.3322059  77.9455016  34.9462807
  32.8210415  78.3952508  33.5858978  32.0455545  80.3443779  26.3045484
  31.6060535  79.8520158  26.9978341  32.7963662  79.8016747  26.0637560
  24.5247884  76.5355320  26.3070112  25.3505904  76.2359092  25.9268756
  24.1741936  75.7662943  26.7559901  29.4929417  75.8881788  28.3767786
  28.8709426  75.2252493  28.0770014  30.1634284  75.9142920  27.6941434
  22.7256489  74.4541647  27.2659046  21.8888397  74.0263821  27.0843047
  22.6980134  74.6474090  28.2029837  29.5653944  64.3663576  37.9700292
  29.6142100  65.2425699  37.5878062  30.1076459  63.8240969  37.3971935
  40.0508790  74.9104700  37.2501429  39.2604334  74.8928839  36.7105929
  39.8142145  75.4492993  38.0050466  40.1706665  71.7597166  34.5634158
  40.2204670  71.5947174  35.5049680  40.0620589  70.8924425  34.1732038
  29.0542924  74.4385712  21.8526247  29.2031044  75.1221176  21.1992919
  29.8609367  74.4190802  22.3675702  37.4610428  67.7428094  35.8793464
  38.3620290  67.6034559  35.5877462  37.5358402  67.9082549  36.8191642
  31.7953233  65.1194949  34.7246651  30.9256542  65.4128515  34.4529239
  32.0312713  65.7035394  35.4453914  41.6724862  74.1794108  34.8076179
  41.3809670  74.5424088  35.6439640  41.0596993  73.4661116  34.6289511
  42.8720544  71.7446987  27.3278749  43.7067436  72.1836791  27.4916310
  43.0079673  71.2685641  26.5086995  39.9212050  69.3026722  33.2756237
  40.3966172  69.4954369  32.4675089  38.9977616  69.3585908  33.0299621
  26.8095557  70.4650889  22.8587315  26.5641599  69.5613219  23.0567526
  26.9791471  70.4668040  21.9166793  34.4992267  61.3374566  32.2412071
  35.0174211  62.0735593  31.9158560  34.1447399  61.6438559  33.0758830
  26.0791204  66.1979247  20.3573477  25.3860449  66.2723602  19.7013513
  25.8342956  65.4339591  20.8794994  34.7504861  57.7574848  27.7612968
  35.0306615  57.0898037  28.3873394  35.5355468  57.9503944  27.2487632
  32.5538329  76.9333842  19.3237994  31.9812296  77.5524029  18.8708466
  33.1271123  77.4833204  19.8577916  38.6213719  66.1792482  31.5084543
  39.5731142  66.2790580  31.5296767  38.4517170  65.3870751  32.0182627
  36.6428099  63.2648066  31.6943944  36.0478031  63.5453078  30.9990432
  36.3577795  63.7541966  32.4660685  35.7735589  77.2170992  20.4546576
  36.7066262  77.1516554  20.6579452  35.6858802  78.0527259  19.9961109
  38.4023606  76.5336863  17.4150524  38.3237237  76.1996726  18.3086282
  39.2233273  77.0258631  17.4141996  41.1001797  69.3998602  30.6226842
  41.0678117  68.4614603  30.8086526  41.7102421  69.4782639  29.8892667
  32.9385128  68.2694655  16.6654046  33.8844233  68.1400863  16.7342465
  32.5599373  67.5309317  17.1423475  41.2496286  66.1909645  30.6685126
  40.7335334  65.4068102  30.4815055  42.1336234  65.8628362  30.8331645
  38.9107012  59.9350661  26.6280938  38.7131834  59.6265749  27.5124270
  39.5206718  60.6612300  26.7578868  46.9178347  70.4614609  29.7632879
  47.6481735  70.1999897  30.3240583  46.3085292  69.7243331  29.8034947
  44.9993644  68.6022471  30.3607330  44.2726808  68.4678436  29.7523822
  44.5840931  68.9099300  31.1664048  32.8223820  72.3212401  38.1254703
  33.7426830  72.4991000  38.3194750  32.7873403  71.3768446  37.9734403
  31.1228045  66.1944631  16.6008932  30.2159500  65.8977744  16.6771645
  31.4004026  65.8974449  15.7343218  22.0405985  67.5150995  27.0507978
  21.7208770  66.6616303  26.7582352  21.4939414  67.7299573  27.8065945
  25.8185893  70.2313436  30.7677485  26.0371903  71.1630544  30.7865518
  26.2311667  69.8721410  31.5532288  32.7390111  60.7381521  22.7553173
  31.9290839  60.3928606  23.1308419  33.4274528  60.4289065  23.3440785
  34.6680659  59.8159568  24.3777470  35.2211698  60.2355021  25.0367493
  34.9050745  58.8895316  24.4200426  30.6913758  65.8046642  40.1580234
  30.5910485  66.7540998  40.0892325  30.4735300  65.4764880  39.2856304
  29.8926830  63.0531567  16.7420911  30.7545994  63.3786465  17.0016728
  30.0777174  62.2663062  16.2293977  21.9094245  71.1353906  29.0201100
  21.2157717  70.7207859  28.5071054  22.6567236  71.1774443  28.4234519
  38.0459466  61.9260093  23.8856134  37.4658135  62.5844897  23.5034186
  37.7795399  61.1037438  23.4743551  36.4963033  61.3265151  26.0877454
  36.9962811  61.4381685  25.2791773  37.1398640  61.0226204  26.7278263
  30.5545028  69.2343780  38.9745295  30.0712110  70.0344140  39.1809184
  30.6405967  69.2451725  38.0212739  23.8230988  71.0672160  26.8967115
  23.8001676  71.1659847  25.9448998  24.1331624  71.9137311  27.2184281
  26.4818366  73.1248315  31.0113729  27.4361619  73.0932257  30.9443661
  26.2830889  72.6638939  31.8263955  27.0717748  71.6949431  33.5784527
  27.8910637  72.1893510  33.6019364  27.3454556  70.7781399  33.5502094
  36.8284344  64.0860183  22.9412482  35.9410199  64.3709834  22.7232677
  37.2438333  63.9253947  22.0939759  40.1798880  64.1106704  26.6566821
  40.9559270  64.6003157  26.9291438  39.4547014  64.5364759  27.1138691
  42.6171439  64.8234324  27.7140762  43.2115930  64.5830060  27.0034070
  42.6898023  64.1041454  28.3414298  24.8368595  78.6667935  28.0283927
  24.7023063  77.9068335  27.4621925  24.4200657  79.3908834  27.5612716
  35.9727558  73.8504858  17.0360502  36.6763408  74.0554861  17.6518158
  35.2490206  74.4181620  17.3009586  36.8025368  69.6014719  23.1562772
  36.7460569  70.0583271  22.3170405  37.3553710  68.8405404  22.9785615
  40.6130174  65.3904451  23.9812892  40.3567108  64.9901087  24.8121100
  39.9883042  66.1048245  23.8563031  44.9242512  68.1300524  26.4884183
  44.3642070  68.1993714  27.2615745  44.3186015  67.9541509  25.7683679
  27.9937720  79.5637252  28.2402370  27.8770105  80.5082684  28.1381060
  27.1730167  79.2610813  28.6288169  37.8814255  74.2887387  19.0858962
  38.7159859  73.8568586  18.9036437  37.7198598  74.1169401  20.0135857
  37.5360147  70.7919501  20.4515302  37.4808951  70.6263772  19.5103746
  36.9106202  71.4995533  20.6077491  22.3252662  66.0287565  34.2776724
  22.9711526  65.5186519  34.7663949  22.1169813  66.7656247  34.8520149
  34.8506054  73.0968412  39.7768864  35.7197214  73.2709065  39.4155499
  34.3712806  73.9162829  39.6544594  30.8456273  60.2927610  20.0300620
  30.8334942  61.2369450  20.1868891  31.7379695  60.1097755  19.7360081
  29.0192235  80.2165513  31.4558298  29.9219481  80.2489124  31.7724793
  28.7929605  79.2865964  31.4704634  30.7745837  78.9696500  28.1168377
  29.8241468  78.9698362  28.0032749  31.0778323  78.2229235  27.6004411
  34.6608392  56.8870386  24.2846557  33.8940788  56.3328873  24.4303239
  35.0719097  56.9592255  25.1460708  26.6650153  63.1755182  38.3751738
  27.5281615  62.8191987  38.5855063  26.0915564  62.8369077  39.0627142
  46.5098530  84.8057038  29.1814139  47.1476940  84.6863786  28.4777479
  46.3919373  85.7537882  29.2402091  43.3188236  84.7584466  29.1175664
  42.9806748  84.6425531  28.2296199  44.1878005  84.3575632  29.0976670
  39.1775052  86.6119943  25.1072555  38.6139917  86.5209880  24.3388842
  39.0627447  85.7919847  25.5875047  43.8008019  85.9119318  35.0761869
  43.7896660  85.5172116  34.2042373  43.9628659  85.1785391  35.6695641
  36.7239484  88.1071135  27.9456775  37.5160776  87.7661959  27.5303074
  36.9636134  88.2166110  28.8658928  44.7574611  90.2790911  20.4187020
  44.1062591  90.8644991  20.0321033  45.5518974  90.8097106  20.4782057
  38.6830238  87.3680048  20.8174154  39.4561114  86.8209035  20.6787030
  39.0355637  88.2324297  21.0288615  40.5215281  88.6956430  34.0241053
  40.2305147  89.6002061  33.9087719  41.1572265  88.7372958  34.7385123
  41.4471487  86.0733279  30.6142413  42.0435060  85.8489301  29.8999376
  41.5046459  85.3318024  31.2167861  41.0196516  83.5272714  18.4492604
  41.2722036  83.0054235  17.6876067  40.0821075  83.3638859  18.5519287
  46.0639799  82.5308492  26.2567347  46.8502888  82.1127915  25.9057764
  46.3278503  83.4354584  26.4248995  46.2349876  87.9681343  20.9556004
  45.5995709  88.0415969  21.6676908  45.9047282  88.5574941  20.2775083
  51.4648226  82.4683725  27.1600326  52.1973398  81.8982942  27.3938155
  50.7087581  82.0805326  27.6006831  40.7392805  85.4300820  20.6516979
  40.6229063  84.7545723  21.3198063  40.8495064  84.9433194  19.8349132
  43.0824345  84.8910967  24.3563668  42.7182553  84.3641588  25.0676589
  43.9391461  84.5009436  24.1830153  48.9873646  76.1805300  31.6194934
  48.6556971  77.0500711  31.3956149  48.3919259  75.8641584  32.2988965
  42.7229832  79.9200867  19.3525016  42.8904235  80.7881103  19.7195488
  42.5327002  80.0828148  18.4286306  45.4805166  88.3817846  31.0190847
  45.1805889  89.2842884  30.9106654  45.1356225  88.1150029  31.8712000
  38.9317647  84.8331642  27.0527551  38.0068144  84.7007856  27.2605243
  39.1802060  85.6125862  27.5497494  48.8802309  80.9000386  28.6988284
  47.9719187  80.8315794  28.4047045  48.8289905  81.3772331  29.5270110
  42.7019053  82.3758524  20.3371683  42.5818679  82.8215575  21.1757164
  42.0071642  82.7243842  19.7785221  36.2926458  84.4764916  27.8871340
  36.4218839  84.7299395  28.8010752  35.6123909  85.0692624  27.5675995
  40.4625945  95.1462166  23.9861815  40.3849975  96.0969991  24.0650295
  39.8587589  94.8008038  24.6436741  42.9543175  82.3190031  36.6423181
  42.1776509  82.8783951  36.6326046  43.5933738  82.8046814  37.1638052
  50.7463956  79.1016824  30.4766158  50.1038336  79.3949357  29.8305953
  50.2418884  78.9869744  31.2819355  48.4004119  82.8479997  21.1652017
  49.3121976  83.0807384  20.9899715  47.8913767  83.4317042  20.6027096
  41.2089547  85.1275485  36.2041148  41.9504232  85.6660529  35.9275972
  40.5026533  85.7541773  36.3612700  46.6844887  87.2704625  34.8013310
  47.0928243  86.8287036  34.0567942  45.9622149  86.6957253  35.0547503
  43.0375957  82.2077232  32.1746867  43.8837152  82.6316645  32.3181516
  42.9774595  81.5510856  32.8685430  47.0073702  87.8305816  28.5565599
  46.3782564  87.9951530  27.8541667  46.6199364  88.2447425  29.3276563
  50.8862934  88.7660254  25.9109963  50.2013972  89.1459155  25.3606996
  50.9706783  89.3755580  26.6441910  46.1875403  79.8681600  33.8328041
  45.9436334  80.6223661  33.2962316  46.4635333  80.2466948  34.6675288
  48.1413865  86.4120213  32.5105306  48.3530761  87.0551973  31.8339687
  48.0943614  85.5782529  32.0427236  45.7440094  79.0238033  29.4141878
  44.8824573  79.3219287  29.7058616  45.7702529  79.2408432  28.4822911
  42.5601664  87.5680224  25.8215684  43.0240009  87.8467927  25.0320306
  42.2958462  86.6663668  25.6388775  39.4525745  87.1151705  28.7595447
  40.0227102  87.5438974  28.1212932  40.0433857  86.8334290  29.4579633
  41.4970550  83.6903376  22.6305249  42.1994593  84.1424420  23.0979175
  41.1651178  83.0487195  23.2585142  39.9450911  82.2815133  37.0056458
  39.3149572  82.9631414  37.2391855  39.8386999  82.1698214  36.0609597
  35.2395884  81.9486929  27.9322383  34.4494938  82.2044457  27.4562493
  35.7307131  82.7635267  28.0374423  49.2559693  89.2892168  30.6827663
  50.0777137  88.8872355  30.4010345  49.2522096  89.1860402  31.6343779
  37.1910629  82.3131508  24.8905859  36.3941792  82.4250202  25.4089355
  36.9636221  82.6518160  24.0246750  43.0216297  88.8376211  32.8388374
  43.0860729  89.2996619  33.6746546  42.3127221  88.2073576  32.9670684
  33.5233587  82.2017419  30.3637373  33.7741625  83.0864429  30.6294949
  34.0593135  82.0222021  29.5912465  57.3465686  85.6330917  27.0312635
  56.5929395  85.0638315  26.8756639  57.4813227  85.5993581  27.9783270
  42.7364314  90.5044319  22.7067354  42.6009989  91.3495855  23.1352202
  43.2774127  90.7063596  21.9433288  39.2231654  76.5835899  39.3681710
  38.8298600  76.0302097  40.0429354  40.0397794  76.8946477  39.7588227
  36.1893712  88.0219757  23.2795279  36.7018232  88.8163007  23.4300844
  36.8416425  87.3246047  23.2128881  37.9988596  91.1385513  25.3618033
  38.1755225  92.0603478  25.1739016  38.7945430  90.8243932  25.7912412
  42.1399615  77.9993778  36.9601966  42.8809328  78.6000931  36.8806429
  42.3717538  77.2571416  36.4020009  37.2840953  83.1850145  35.2380196
  37.1694468  82.2835402  35.5387295  36.4285471  83.4313842  34.8865012
  44.3632791  91.1267885  36.8367696  43.9196645  90.3404264  36.5188601
  45.0250004  91.3147036  36.1711587  39.1219912  92.6563687  31.3628375
  39.6727337  92.5280750  30.5905369  38.2831388  92.9558576  31.0123268
  46.4614029  91.4070685  34.8649098  46.4432504  92.2279566  34.3729367
  47.3833949  91.2824761  35.0899239  42.9187083  88.9214815  35.7072606
  43.4515420  88.1603103  35.4771914  42.3901164  88.6288467  36.4496760
  46.0856778  74.0274881  31.2366248  45.7421047  74.9176522  31.1605358
  46.4535741  73.8376538  30.3735833  34.1542629  86.3508411  24.0554850
  34.9917851  86.7605420  23.8388558  34.3320896  85.4107853  24.0255044
  46.0507061  84.0183492  19.7438683  45.5353684  84.7888096  19.9827070
  45.7784369  83.3448628  20.3671744  43.6354172  78.8633193  24.8023921
  42.7795768  78.4740043  24.6229560  44.0481123  78.9425153  23.9423707
  45.1653318  76.3979536  29.2015481  44.6618114  76.3609671  28.3883286
  45.4583925  77.3072279  29.2612138  41.4096204  76.4818266  28.2081663
  42.2749201  76.2861074  27.8487552  41.4773713  76.2528617  29.1351019
  51.0241335  86.7715846  21.6791856  50.2470778  86.4327006  21.2347018
  51.7032816  86.7768470  21.0046821  45.8393364  81.8910584  21.5698464
  45.5343499  82.2056733  22.4208607  46.7923806  81.9692004  21.6125797
  44.2839796  88.0500807  23.2191418  43.7561157  87.3153567  22.9064655
  43.7827298  88.8275484  22.9731386  49.2632642  86.2449828  28.3358464
  48.6056316  86.9349089  28.4238593  50.0673041  86.6346260  28.6792451
  39.0158523  78.7120474  25.5798030  39.5902275  78.4895655  24.8471222
  39.6029506  78.7809168  26.3326631  48.0738100  84.5994200  26.3862406
  48.5869982  85.2324192  26.8884116  48.7239324  83.9995396  26.0205766
  39.3428110  80.7424935  19.5993915  38.5065423  81.0799621  19.9203190
  39.2032880  80.6073914  18.6621052  41.3181191  75.5861722  24.3073099
  40.6645603  75.2710740  23.6829714  41.2761665  74.9637463  25.0332922
  42.4292396  85.8681018  16.2226391  41.5219458  85.6370271  16.4217540
  42.9263428  85.0718637  16.4100373  45.3360475  94.5778525  19.1423077
  44.6622173  94.8810221  19.7508035  45.7226297  95.3807605  18.7928534
  44.5518931  82.0743656  28.6320747  43.6341493  82.2958603  28.4742435
  44.9679075  82.1489966  27.7732454  45.3353979  83.4735072  23.7623427
  46.0825798  83.9856469  23.4530549  45.6045569  83.1519124  24.6227820
  43.6080629  85.9693612  20.7450381  42.6991849  85.6852645  20.8422851
  43.6375713  86.3892691  19.8853688  48.8399897  89.5800202  24.5141549
  48.3862224  88.7391112  24.5706739  48.2093863  90.2161600  24.8516329
  47.7832816  80.5092188  25.7442216  47.0455573  79.9969574  26.0752459
  48.0359590  80.0692570  24.9325493  47.2832836  91.4176699  25.4491367
  47.5755810  91.9781756  24.7303732  47.7931456  91.7105260  26.2044526
  47.8844444  73.2868440  26.3383985  48.1903320  72.4265803  26.0509901
  48.6097048  73.8786060  26.1382979  34.1768800  83.6899127  24.7265583
  33.9793199  83.0968487  24.0016650  33.6215464  83.3851337  25.4441522
  42.1565523  83.5822233  26.8460177  42.2114133  82.6296069  26.7702653
  41.3456725  83.7381672  27.3301475  43.3056717  87.5102356  18.0838460
  42.8676147  86.7938215  17.6244097  44.0467158  87.7378471  17.5223551
  40.0957883  82.1999293  24.6050555  39.2825749  82.4993463  25.0115748
  40.5916877  81.8054981  25.3225038  42.2466461  92.1957050  26.5384820
  42.2042640  92.4217896  25.6093352  43.1629160  91.9620424  26.6870621
  45.6932095  82.6641117  33.4365449  46.0481483  82.8912590  34.2959915
  46.3404226  82.9959494  32.8142705  51.4229832  85.7859553  24.1414778
  51.2847730  85.9761149  23.2135968  51.0666051  86.5478936  24.5982829
  39.5871958  79.7717648  30.2211790  40.2271337  79.6306407  29.5234754
  38.7549489  79.4852162  29.8450392  51.4499211  87.8536080  29.1526050
  51.8835718  87.7611369  30.0009104  52.1630792  87.8293581  28.5146066
  40.3632262  89.0720079  26.3346783  41.1572860  88.5770399  26.1329358
  39.6523954  88.5437942  25.9714488  45.1827106  91.4538174  30.6859150
  45.2364129  92.0229111  31.4536866  44.3141888  91.6240059  30.3213188
  36.6715025  83.2163160  22.4106535  35.7412613  83.1547616  22.6276498
  36.7672497  82.6939113  21.6143177  36.5900574  79.7417973  24.9984777
  36.8507392  80.6563306  24.8893938  37.4117747  79.2742416  25.1481390
  38.0625500  81.1555730  32.1683602  38.7348553  80.9473093  31.5196251
  37.2355286  80.9577816  31.7288834  52.3114761  87.8959781  31.6858935
  52.5050651  88.8005591  31.9318210  52.2115379  87.4367200  32.5197520
  43.9651072  77.7817671  34.1849263  43.3178987  78.4807621  34.0913739
  44.7352087  78.2153815  34.5525511  47.3729870  88.0466523  37.2599816
  47.2215376  87.8177075  36.3429900  47.3634549  89.0037125  37.2731161
  44.1415206  85.6198436  32.2446082  45.0707266  85.7709596  32.0715050
  43.7206236  85.7082457  31.3894729  42.9403538  89.6449101  30.0144620
  42.8014624  89.2767885  30.8870558  42.1518134  90.1596740  29.8428578
  43.5351690  94.7458197  21.3570156  43.7103446  94.2746240  22.1715779
  42.8484478  95.3723963  21.5851417  44.4908753  89.0230703  27.4033458
  44.1558586  88.9831473  28.2991108  43.9912699  88.3575419  26.9303868
  38.4652997  84.4298333  32.9286039  38.3272795  83.6978572  33.5297578
  39.3757920  84.3407233  32.6470227  47.4267945  86.3686738  17.6770517
  46.8097115  85.6433566  17.5803570  46.9584433  87.1296098  17.3337592
  41.0935298  84.1418293  32.4169718  41.8034916  83.5011485  32.3756337
  41.0504606  84.3931188  33.3395899  49.0822076  91.0785646  35.3376298
  49.0234622  90.3944866  34.6706881  49.4841595  91.8204636  34.8856924
  39.8064232  81.1283511  34.2365358  39.2701589  80.6774249  34.8886954
  39.2180940  81.2629419  33.4935822  38.1012775  97.8947560  28.1310017
  38.3409373  98.5266084  28.8089035  37.2581972  97.5435600  28.4175376
  39.2166491  80.5872162  16.7991822  38.3395957  80.4660963  16.4354068
  39.6924244  79.7958240  16.5470710  49.0839484  89.0425230  33.5690277
  48.1966262  88.7051152  33.6916676  49.6538035  88.3108261  33.8059043
  30.7368631  85.3749322  26.8933329  31.4239671  85.0611052  26.3054344
  30.5816759  86.2790686  26.6200580  35.5403353  80.2639518  31.3218352
  35.4561542  79.6565188  30.5868762  34.7186059  80.7548537  31.3227849
  42.6140637  93.7026682  30.5351521  42.5410808  94.5081654  31.0470825
  42.1718030  93.9018648  29.7099542  42.4030417  92.9398452  24.0454342
  41.6197939  93.4820133  24.1392567  43.1023162  93.4572432  24.4448583
  45.7127067  78.7493082  26.6888547  46.2095766  77.9963044  26.3689618
  44.9414048  78.7857398  26.1231757  53.5656824  84.4533447  28.3306839
  53.5546700  85.3358163  27.9600772  52.6974204  84.1004998  28.1361376
  45.0739321  93.6013516  32.6909679  45.7867293  94.2360981  32.6185581
  44.5829349  93.6977382  31.8749681  46.7956847  87.5064769  24.2626971
  45.8613126  87.6266231  24.0931675  46.9733516  86.6037236  23.9986981
  42.2962035  80.8910465  26.4160232  41.9259823  80.3381505  27.1041138
  42.7921128  80.2868598  25.8635232  50.1829399  83.3482088  24.7977005
  50.6489851  84.1810080  24.7237308  50.6336899  82.8827070  25.5022264
  40.1251234  91.3507960  33.5115250  40.8260694  91.9844443  33.6644644
  39.6546349  91.6922691  32.7510889  48.2505630  89.6925910  21.7963157
  48.5265474  89.5782504  22.7057031  47.3810129  89.2943394  21.7575330
  48.1546062  75.7162675  28.8367906  47.2409141  75.9466902  29.0050113
  48.5839163  75.8001119  29.6881939  47.9252520  83.9052567  31.3367800
  47.2723970  84.1528475  30.6820253  48.3032900  83.0916705  31.0030278
  44.8859694  93.9412260  25.4395971  45.0682088  93.1233916  25.9023723
  45.7092680  94.1579953  25.0020861  45.2201859  92.8680446  22.7011019
  45.7489626  92.3572900  22.0881181  45.4830079  92.5522976  23.5656552
  43.9740093  84.6472378  37.8233837  43.2980730  84.5466508  38.4936213
  44.7967727  84.4911592  38.2869835  35.7218952  90.8844315  30.4446353
  36.3072389  90.1388003  30.5774257  35.5243791  91.1948272  31.3283017
  38.5757607  93.9195562  25.4608795  37.9067983  94.4041690  24.9772835
  38.4370477  94.1664783  26.3752174  30.3136607  83.4549915  29.1650796
  30.3520706  82.9213506  29.9587914  29.8076900  82.9285121  28.5461773
  42.7162876  95.9539306  32.0591453  43.2681184  96.1170927  32.8240539
  43.0569069  96.5443744  31.3871478  37.6927369  78.3014456  32.6613338
  37.7568696  79.1629286  32.2490736  37.6294489  77.6888457  31.9285697
  37.1679642  80.3737588  36.3086372  37.7951680  79.9914665  36.9223897
  36.3107561  80.1551790  36.6742065  47.5673750  90.7800563  37.9140108
  48.1113654  91.3930522  37.4195063  46.9860595  91.3380142  38.4307121
  33.9445184  82.1814017  22.2404727  34.2398626  81.2724696  22.1871781
  33.0433220  82.1601757  21.9185730  45.8531263  93.9021281  29.0455136
  45.7282403  93.1011021  28.5366081  46.5110354  94.3967475  28.5569106
  37.4739431  80.2570014  28.2232276  36.7526017  80.8705982  28.0839749
  38.2632687  80.7927779  28.1448922  47.9166172  91.7030301  30.6734686
  46.9696507  91.5835653  30.6013012  48.2648945  90.8152799  30.7560947
  40.2765745  77.5924440  34.4972928  40.8000147  77.8386737  35.2599237
  40.0578078  78.4244475  34.0776065  35.6733026  79.8628115  22.3644052
  35.3445732  78.9825494  22.1819158  36.0272397  79.8075784  23.2520442
  44.9212605  91.4983018  26.8739038  44.7737567  90.5699725  27.0546608
  45.7466098  91.5203108  26.3896113  38.7874849  80.1501085  22.7319530
  39.1270922  80.6787006  22.0098138  39.2346970  80.4881491  23.5078097
  48.5246727  92.3211576  27.9603911  49.4493274  92.1154438  27.8228362
  48.3562030  92.0727978  28.8693252  41.4818290  78.5338135  32.1822598
  41.1415110  77.7345948  32.5843278  40.7757296  78.8339846  31.6099431
  42.1334762  75.6187448  30.6349921  42.9560831  75.1447926  30.5128811
  42.3772825  76.3977932  31.1348607  40.7742996  78.6475706  20.9312823
  41.4951359  79.0256959  20.4276540  40.1508300  79.3664583  21.0347801
  44.9174119  79.3520855  21.8671155  45.1337734  80.2345493  21.5659983
  44.4368186  78.9607069  21.1376797  39.6573341  82.3106568  28.4441900
  39.5117921  82.6246872  29.3366181  39.1798544  82.9291469  27.8912798
  41.5169723  79.3009116  28.4922789  41.5031292  78.4050210  28.1555087
  42.2342152  79.3079780  29.1261075  43.3695854  79.7346457  30.5375917
  43.1113632  80.6563527  30.5360247  42.8380895  79.3376891  31.2276381
  48.3142043  92.8397244  23.3166002  48.4878920  92.2743666  22.5639855
  48.8070934  93.6398139  23.1345492  34.1319003  84.8511913  31.3829561
  33.5872471  85.6271721  31.5149835  35.0098353  85.1982717  31.2248682
  40.9206619  78.1823497  23.7610359  41.0422531  77.2540143  23.9601247
  40.6308662  78.1962183  22.8488675  43.7897810  75.8678407  26.8977079
  43.8119507  75.9317740  25.9429059  44.2065869  75.0282916  27.0917585
  54.1681434  85.6033667  24.9356302  54.6112580  84.8540992  24.5375425
  53.2907944  85.5943803  24.5530034  49.3017215  92.1564008  20.4162900
  49.9968120  92.7770701  20.6350215  49.6440366  91.3059359  20.6915278
  34.9185025  83.9781809  34.2759718  34.1766761  84.1264445  34.8624348
  34.5977769  84.2390075  33.4126467  51.2008639  89.6063714  21.9450231
  51.7259963  89.9450986  21.2199551  51.1130991  88.6710729  21.7613366
  42.8628687  93.5197787  34.0740108  43.1715814  93.2746934  34.9462807
  43.6604169  93.7244426  33.5858978  42.8849299  95.6735697  26.3045484
  42.4454290  95.1812076  26.9978341  43.6357416  95.1308665  26.0637560
  35.3641638  91.8647238  26.3070112  36.1899658  91.5651010  25.9268756
  35.0135690  91.0954860  26.7559901  40.3323171  91.2173706  28.3767786
  39.7103181  90.5544411  28.0770014  41.0028038  91.2434838  27.6941434
  33.5650243  89.7833564  27.2659046  32.7282152  89.3555739  27.0843047
  33.5373889  89.9766008  28.2029837  40.4047699  79.6955494  37.9700292
  40.4535854  80.5717617  37.5878062  40.9470213  79.1532887  37.3971935
  50.8902545  90.2396617  37.2501429  50.0998088  90.2220756  36.7105929
  50.6535899  90.7784911  38.0050466  51.0100420  87.0889084  34.5634158
  51.0598425  86.9239091  35.5049680  50.9014343  86.2216343  34.1732038
  39.8936678  89.7677629  21.8526247  40.0424799  90.4513094  21.1992919
  40.7003122  89.7482719  22.3675702  48.3004182  83.0720012  35.8793464
  49.2014045  82.9326477  35.5877462  48.3752157  83.2374467  36.8191642
  42.6346987  80.4486867  34.7246651  41.7650297  80.7420433  34.4529239
  42.8706468  81.0327312  35.4453914  52.5118616  89.5086025  34.8076179
  52.2203425  89.8716006  35.6439640  51.8990748  88.7953034  34.6289511
  53.7114299  87.0738905  27.3278749  54.5461190  87.5128709  27.4916310
  53.8473428  86.5977558  26.5086995  50.7605805  84.6318640  33.2756237
  51.2359926  84.8246286  32.4675089  49.8371370  84.6877826  33.0299621
  37.6489311  85.7942807  22.8587315  37.4035353  84.8905137  23.0567526
  37.8185226  85.7959958  21.9166793  45.3386021  76.6666483  32.2412071
  45.8567965  77.4027510  31.9158560  44.9841154  76.9730477  33.0758830
  36.9184959  81.5271165  20.3573477  36.2254204  81.6015520  19.7013513
  36.6736711  80.7631508  20.8794994  45.5898615  73.0866766  27.7612968
  45.8700369  72.4189955  28.3873394  46.3749222  73.2795862  27.2487632
  43.3932084  92.2625760  19.3237994  42.8206051  92.8815947  18.8708466
  43.9664878  92.8125122  19.8577916  49.4607474  81.5084400  31.5084543
  50.4124897  81.6082498  31.5296767  49.2910924  80.7162669  32.0182627
  47.4821853  78.5939983  31.6943944  46.8871785  78.8744996  30.9990432
  47.1971550  79.0833884  32.4660685  46.6129344  92.5462910  20.4546576
  47.5460017  92.4808472  20.6579452  46.5252556  93.3819177  19.9961109
  49.2417360  91.8628780  17.4150524  49.1630992  91.5288644  18.3086282
  50.0627027  92.3550548  17.4141996  51.9395552  84.7290520  30.6226842
  51.9071872  83.7906520  30.8086526  52.5496175  84.8074556  29.8892667
  43.7778882  83.5986573  16.6654046  44.7237987  83.4692781  16.7342465
  43.3993127  82.8601235  17.1423475  52.0890040  81.5201563  30.6685126
  51.5729089  80.7360020  30.4815055  52.9729989  81.1920280  30.8331645
  49.7500767  75.2642579  26.6280938  49.5525588  74.9557667  27.5124270
  50.3600472  75.9904218  26.7578868  57.7572101  85.7906527  29.7632879
  58.4875490  85.5291815  30.3240583  57.1479047  85.0535248  29.8034947
  55.8387398  83.9314389  30.3607330  55.1120562  83.7970354  29.7523822
  55.4234685  84.2391218  31.1664048  43.6617575  87.6504319  38.1254703
  44.5820584  87.8282918  38.3194750  43.6267158  86.7060364  37.9734403
  41.9621800  81.5236549  16.6008932  41.0553255  81.2269662  16.6771645
  42.2397781  81.2266367  15.7343218  32.8799740  82.8442912  27.0507978
  32.5602524  81.9908221  26.7582352  32.3333168  83.0591491  27.8065945
  36.6579647  85.5605353  30.7677485  36.8765657  86.4922461  30.7865518
  37.0705421  85.2013328  31.5532288  43.5783865  76.0673439  22.7553173
  42.7684594  75.7220524  23.1308419  44.2668282  75.7580982  23.3440785
  45.5074414  75.1451486  24.3777470  46.0605452  75.5646939  25.0367493
  45.7444500  74.2187234  24.4200426  41.5307513  81.1338559  40.1580234
  41.4304240  82.0832916  40.0892325  41.3129055  80.8056798  39.2856304
  40.7320584  78.3823484  16.7420911  41.5939748  78.7078383  17.0016728
  40.9170928  77.5954980  16.2293977  32.7488000  86.4645824  29.0201100
  32.0551471  86.0499777  28.5071054  33.4960991  86.5066360  28.4234519
  48.8853221  77.2552011  23.8856134  48.3051890  77.9136815  23.5034186
  48.6189153  76.4329355  23.4743551  47.3356787  76.6557068  26.0877454
  47.8356565  76.7673603  25.2791773  47.9792395  76.3518121  26.7278263
  41.3938783  84.5635698  38.9745295  40.9105865  85.3636058  39.1809184
  41.4799722  84.5743643  38.0212739  34.6624742  86.3964078  26.8967115
  34.6395431  86.4951765  25.9448998  34.9725379  87.2429229  27.2184281
  37.3212120  88.4540233  31.0113729  38.2755374  88.4224175  30.9443661
  37.1224644  87.9930856  31.8263955  37.9111502  87.0241349  33.5784527
  38.7304391  87.5185427  33.6019364  38.1848310  86.1073317  33.5502094
  47.6678099  79.4152101  22.9412482  46.7803954  79.7001752  22.7232677
  48.0832088  79.2545864  22.0939759  51.0192635  79.4398622  26.6566821
  51.7953025  79.9295075  26.9291438  50.2940769  79.8656676  27.1138691
  53.4565193  80.1526241  27.7140762  54.0509684  79.9121977  27.0034070
  53.5291777  79.4333372  28.3414298  35.6762349  93.9959852  28.0283927
  35.5416817  93.2360253  27.4621925  35.2594411  94.7200752  27.5612716
  46.8121312  89.1796776  17.0360502  47.5157162  89.3846778  17.6518158
  46.0883961  89.7473538  17.3009586  47.6419122  84.9306637  23.1562772
  47.5854324  85.3875188  22.3170405  48.1947465  84.1697322  22.9785615
  51.4523928  80.7196369  23.9812892  51.1960863  80.3193005  24.8121100
  50.8276796  81.4340163  23.8563031  55.7636266  83.4592442  26.4884183
  55.2035824  83.5285631  27.2615745  55.1579770  83.2833427  25.7683679
  38.8331475  94.8929169  28.2402370  38.7163859  95.8374602  28.1381060
  38.0123921  94.5902731  28.6288169  48.7208010  89.6179305  19.0858962
  49.5553613  89.1860503  18.9036437  48.5592352  89.4461319  20.0135857
  48.3753902  86.1211418  20.4515302  48.3202705  85.9555690  19.5103746
  47.7499957  86.8287451  20.6077491  33.1646417  81.3579483  34.2776724
  33.8105280  80.8478437  34.7663949  32.9563568  82.0948164  34.8520149
  45.6899809  88.4260330  39.7768864  46.5590969  88.6000982  39.4155499
  45.2106560  89.2454747  39.6544594  41.6850027  75.6219527  20.0300620
  41.6728697  76.5661367  20.1868891  42.5773449  75.4389673  19.7360081
  39.8585989  95.5457431  31.4558298  40.7613236  95.5781041  31.7724793
  39.6323359  94.6157882  31.4704634  41.6139591  94.2988418  28.1168377
  40.6635222  94.2990279  28.0032749  41.9172077  93.5521152  27.6004411
  45.5002147  72.2162304  24.2846557  44.7334542  71.6620791  24.4303239
  45.9112852  72.2884173  25.1460708  37.5043908  78.5047100  38.3751738
  38.3675369  78.1483905  38.5855063  36.9309318  78.1660995  39.0627142
  57.3492285 100.1348956  29.1814139  57.9870695 100.0155703  28.4777479
  57.2313128 101.0829800  29.2402091  54.1581991 100.0876384  29.1175664
  53.8200502  99.9717449  28.2296199  55.0271759  99.6867549  29.0976670
  50.0168807 101.9411861  25.1072555  49.4533672 101.8501798  24.3388842
  49.9021202 101.1211765  25.5875047  54.6401774 101.2411236  35.0761869
  54.6290415 100.8464034  34.2042373  54.8022413 100.5077309  35.6695641
  47.5633239 103.4363052  27.9456775  48.3554530 103.0953877  27.5303074
  47.8029889 103.5458027  28.8658928  55.5968365 105.6082828  20.4187020
  54.9456345 106.1936909  20.0321033  56.3912728 106.1389023  20.4782057
  49.5223992 102.6971965  20.8174154  50.2954868 102.1500953  20.6787030
  49.8749391 103.5616215  21.0288615  51.3609035 104.0248348  34.0241053
  51.0698901 104.9293979  33.9087719  51.9966019 104.0664875  34.7385123
  52.2865242 101.4025196  30.6142413  52.8828814 101.1781219  29.8999376
  52.3440213 100.6609942  31.2167861  51.8590270  98.8564632  18.4492604
  52.1115791  98.3346153  17.6876067  50.9214829  98.6930777  18.5519287
  56.9033553  97.8600410  26.2567347  57.6896642  97.4419833  25.9057764
  57.1672257  98.7646502  26.4248995  57.0743630 103.2973260  20.9556004
  56.4389463 103.3707887  21.6676908  56.7441037 103.8866859  20.2775083
  62.3041980  97.7975643  27.1600326  63.0367152  97.2274860  27.3938155
  61.5481336  97.4097244  27.6006831  51.5786559 100.7592738  20.6516979
  51.4622817 100.0837641  21.3198063  51.6888819 100.2725111  19.8349132
  53.9218100 100.2202885  24.3563668  53.5576307  99.6933506  25.0676589
  54.7785216  99.8301354  24.1830153  59.8267401  91.5097217  31.6194934
  59.4950725  92.3792628  31.3956149  59.2313014  91.1933501  32.2988965
  53.5623587  95.2492784  19.3525016  53.7297989  96.1173021  19.7195488
  53.3720756  95.4120066  18.4286306  56.3198920 103.7109763  31.0190847
  56.0199643 104.6134802  30.9106654  55.9749980 103.4441946  31.8712000
  49.7711402 100.1623560  27.0527551  48.8461898 100.0299774  27.2605243
  50.0195815 100.9417779  27.5497494  59.7196064  96.2292303  28.6988284
  58.8112941  96.1607712  28.4047045  59.6683660  96.7064248  29.5270110
  53.5412808  97.7050442  20.3371683  53.4212433  98.1507493  21.1757164
  52.8465396  98.0535759  19.7785221  47.1320213  99.8056834  27.8871340
  47.2612594 100.0591313  28.8010752  46.4517664 100.3984542  27.5675995
  53.7936930  97.6481949  36.6423181  53.0170264  98.2075869  36.6326046
  54.4327493  98.1338732  37.1638052  61.5857710  94.4308742  30.4766158
  60.9432091  94.7241275  29.8305953  61.0812639  94.3161662  31.2819355
  59.2397874  98.1771915  21.1652017  60.1515730  98.4099302  20.9899715
  58.7307521  98.7608959  20.6027096  52.0483302 100.4567402  36.2041148
  52.7897986 100.9952446  35.9275972  51.3420287 101.0833691  36.3612700
  57.5238642 102.5996543  34.8013310  57.9321998 102.1578953  34.0567942
  56.8015903 102.0249170  35.0547503  53.8769712  97.5369150  32.1746867
  54.7230907  97.9608563  32.3181516  53.8168349  96.8802774  32.8685430
  57.8467456 103.1597733  28.5565599  57.2176319 103.3243448  27.8541667
  57.4593118 103.5739343  29.3276563  61.7256688 104.0952171  25.9109963
  61.0407726 104.4751073  25.3606996  61.8100537 104.7047498  26.6441910
  57.0269157  95.1973518  33.8328041  56.7830089  95.9515578  33.2962316
  57.3029088  95.5758866  34.6675288  58.9807620 101.7412130  32.5105306
  59.1924515 102.3843890  31.8339687  58.9337368 100.9074447  32.0427236
  56.5833849  94.3529951  29.4141878  55.7218328  94.6511205  29.7058616
  56.6096283  94.5700350  28.4822911  53.3995418 102.8972142  25.8215684
  53.8633764 103.1759845  25.0320306  53.1352216 101.9955586  25.6388775
  50.2919499 102.4443623  28.7595447  50.8620856 102.8730891  28.1212932
  50.8827611 102.1626208  29.4579633  52.3364304  99.0195294  22.6305249
  53.0388348  99.4716338  23.0979175  52.0044933  98.3779113  23.2585142
  50.7844666  97.6107051  37.0056458  50.1543326  98.2923331  37.2391855
  50.6780754  97.4990132  36.0609597  46.0789638  97.2778847  27.9322383
  45.2888692  97.5336375  27.4562493  46.5700886  98.0927184  28.0374423
  60.0953448 104.6184086  30.6827663  60.9170891 104.2164273  30.4010345
  60.0915851 104.5152320  31.6343779  48.0304384  97.6423426  24.8905859
  47.2335547  97.7542120  25.4089355  47.8029976  97.9810078  24.0246750
  53.8610051 104.1668129  32.8388374  53.9254484 104.6288536  33.6746546
  53.1520975 103.5365494  32.9670684  44.3627341  97.5309337  30.3637373
  44.6135380  98.4156347  30.6294949  44.8986890  97.3513939  29.5912465
  68.1859441 100.9622834  27.0312635  67.4323149 100.3930232  26.8756639
  68.3206982 100.9285499  27.9783270  53.5758069 105.8336237  22.7067354
  53.4403744 106.6787772  23.1352202  54.1167881 106.0355514  21.9433288
  50.0625408  91.9127816  39.3681710  49.6692354  91.3594015  40.0429354
  50.8791549  92.2238395  39.7588227  47.0287466 103.3511675  23.2795279
  47.5411987 104.1454925  23.4300844  47.6810179 102.6537965  23.2128881
  48.8382351 106.4677431  25.3618033  49.0148979 107.3895396  25.1739016
  49.6339184 106.1535850  25.7912412  52.9793369  93.3285695  36.9601966
  53.7203083  93.9292849  36.8806429  53.2111292  92.5863333  36.4020009
  48.1234707  98.5142063  35.2380196  48.0088223  97.6127320  35.5387295
  47.2679225  98.7605759  34.8865012  55.2026545 106.4559803  36.8367696
  54.7590399 105.6696182  36.5188601  55.8643759 106.6438954  36.1711587
  49.9613666 107.9855605  31.3628375  50.5121091 107.8572668  30.5905369
  49.1225142 108.2850494  31.0123268  57.3007783 106.7362603  34.8649098
  57.2826259 107.5571484  34.3729367  58.2227703 106.6116678  35.0899239
  53.7580837 104.2506732  35.7072606  54.2909174 103.4895021  35.4771914
  53.2294919 103.9580384  36.4496760  56.9250532  89.3566798  31.2366248
  56.5814802  90.2468440  31.1605358  57.2929495  89.1668456  30.3735833
  44.9936383 101.6800329  24.0554850  45.8311605 102.0897337  23.8388558
  45.1714651 100.7399771  24.0255044  56.8900815  99.3475410  19.7438683
  56.3747439 100.1180014  19.9827070  56.6178124  98.6740546  20.3671744
  54.4747926  94.1925110  24.8023921  53.6189522  93.8031961  24.6229560
  54.8874878  94.2717071  23.9423707  56.0047073  91.7271454  29.2015481
  55.5011868  91.6901589  28.3883286  56.2977680  92.6364196  29.2612138
  52.2489959  91.8110183  28.2081663  53.1142955  91.6152992  27.8487552
  52.3167468  91.5820535  29.1351019  61.8635089 102.1007764  21.6791856
  61.0864532 101.7618924  21.2347018  62.5426570 102.1060387  21.0046821
  56.6787118  97.2202502  21.5698464  56.3737254  97.5348651  22.4208607
  57.6317560  97.2983921  21.6125797  55.1233550 103.3792725  23.2191418
  54.5954912 102.6445485  22.9064655  54.6221053 104.1567401  22.9731386
  60.1026396 101.5741745  28.3358464  59.4450071 102.2641007  28.4238593
  60.9066795 101.9638177  28.6792451  49.8552278  94.0412391  25.5798030
  50.4296030  93.8187573  24.8471222  50.4423260  94.1101086  26.3326631
  58.9131855  99.9286118  26.3862406  59.4263737 100.5616110  26.8884116
  59.5633079  99.3287314  26.0205766  50.1821865  96.0716852  19.5993915
  49.3459177  96.4091539  19.9203190  50.0426634  95.9365832  18.6621052
  52.1574945  90.9153640  24.3073099  51.5039358  90.6002657  23.6829714
  52.1155420  90.2929381  25.0332922  53.2686150 101.1972935  16.2226391
  52.3613212 100.9662189  16.4217540  53.7657182 100.4010554  16.4100373
  55.3912686  97.4035574  28.6320747  54.4735247  97.6250521  28.4742435
  55.8072829  97.4781884  27.7732454  56.1747734  98.8026989  23.7623427
  56.9219553  99.3148387  23.4530549  56.4439323  98.4811042  24.6227820
  54.4474384 101.2985530  20.7450381  53.5385603 101.0144563  20.8422851
  54.4769468 101.7184609  19.8853688  59.6793651 104.9092120  24.5141549
  59.2255978 104.0683029  24.5706739  59.0487618 105.5453518  24.8516329
  58.6226571  95.8384106  25.7442216  57.8849328  95.3261492  26.0752459
  58.8753344  95.3984487  24.9325493  58.1226590 106.7468616  25.4491367
  58.4149565 107.3073673  24.7303732  58.6325211 107.0397177  26.2044526
  58.7238198  88.6160358  26.3383985  59.0297075  87.7557721  26.0509901
  59.4490803  89.2077978  26.1382979  45.0162554  99.0191044  24.7265583
  44.8186954  98.4260405  24.0016650  44.4609218  98.7143254  25.4441522
  52.9959278  98.9114151  26.8460177  53.0507888  97.9587987  26.7702653
  52.1850480  99.0673590  27.3301475  54.1450472 102.8394274  18.0838460
  53.7069901 102.1230133  17.6244097  54.8860912 103.0670389  17.5223551
  50.9351638  97.5291210  24.6050555  50.1219503  97.8285381  25.0115748
  51.4310632  97.1346899  25.3225038  53.0860216 107.5248967  26.5384820
  53.0436394 107.7509814  25.6093352  54.0022914 107.2912342  26.6870621
  56.5325849  97.9933035  33.4365449  56.8875237  98.2204508  34.2959915
  57.1797981  98.3251412  32.8142705  62.2623586 101.1151471  24.1414778
  62.1241485 101.3053067  23.2135968  61.9059805 101.8770854  24.5982829
  50.4265712  95.1009566  30.2211790  51.0665092  94.9598325  29.5234754
  49.5943243  94.8144079  29.8450392  62.2892966 103.1827998  29.1526050
  62.7229473 103.0903287  30.0009104  63.0024547 103.1585498  28.5146066
  51.2026016 104.4011996  26.3346783  51.9966615 103.9062316  26.1329358
  50.4917709 103.8729859  25.9714488  56.0220861 106.7830092  30.6859150
  56.0757883 107.3521028  31.4536866  55.1535642 106.9531977  30.3213188
  47.5108780  98.5455078  22.4106535  46.5806368  98.4839534  22.6276498
  47.6066252  98.0231031  21.6143177  47.4294329  95.0709891  24.9984777
  47.6901146  95.9855224  24.8893938  48.2511501  94.6034333  25.1481390
  48.9019254  96.4847648  32.1683602  49.5742308  96.2765010  31.5196251
  48.0749041  96.2869734  31.7288834  63.1508516 103.2251698  31.6858935
  63.3444406 104.1297509  31.9318210  63.0509134 102.7659117  32.5197520
  54.8044826  93.1109589  34.1849263  54.1572741  93.8099539  34.0913739
  55.5745842  93.5445733  34.5525511  58.2123624 103.3758441  37.2599816
  58.0609131 103.1468993  36.3429900  58.2028304 104.3329043  37.2731161
  54.9808961 100.9490354  32.2446082  55.9101021 101.1001514  32.0715050
  54.5599991 101.0374375  31.3894729  53.7797292 104.9741018  30.0144620
  53.6408378 104.6059803  30.8870558  52.9911889 105.4888658  29.8428578
  54.3745444 110.0750115  21.3570156  54.5497200 109.6038158  22.1715779
  53.6878232 110.7015881  21.5851417  55.3302508 104.3522621  27.4033458
  54.9952340 104.3123391  28.2991108  54.8306453 103.6867337  26.9303868
  49.3046751  99.7590251  32.9286039  49.1666549  99.0270490  33.5297578
  50.2151675  99.6699151  32.6470227  51.9329052  99.4710210  32.4169718
  52.6428671  98.8303403  32.3756337  51.8898360  99.7223105  33.3395899
  59.9215831 106.4077564  35.3376298  59.8628377 105.7236784  34.6706881
  60.3235349 107.1496554  34.8856924  50.6457986  96.4575428  34.2365358
  50.1095343  96.0066167  34.8886954  50.0574695  96.5921337  33.4935822
  50.0560245  95.9164080  16.7991822  49.1789711  95.7952880  16.4354068
  50.5317998  95.1250158  16.5470710  59.9233238 104.3717148  33.5690277
  59.0360017 104.0343069  33.6916676  60.4931789 103.6400179  33.8059043
  41.5762385 100.7041239  26.8933329  42.2633425 100.3902969  26.3054344
  41.4210514 101.6082604  26.6200580  46.3797107  95.5931436  31.3218352
  46.2955296  94.9857106  30.5868762  45.5579814  96.0840454  31.3227849
  53.4534391 109.0318600  30.5351521  53.3804563 109.8373572  31.0470825
  53.0111785 109.2310566  29.7099542  53.2424171 108.2690370  24.0454342
  52.4591693 108.8112050  24.1392567  53.9416916 108.7864350  24.4448583
  56.5520821  94.0784999  26.6888547  57.0489521  93.3254962  26.3689618
  55.7807803  94.1149316  26.1231757  64.4050579  99.7825365  28.3306839
  64.3940455 100.6650080  27.9600772  63.5367958  99.4296916  28.1361376
  55.9133075 108.9305434  32.6909679  56.6261047 109.5652899  32.6185581
  55.4223104 109.0269300  31.8749681  57.6350602 102.8356687  24.2626971
  56.7006881 102.9558149  24.0931675  57.8127270 101.9329153  23.9986981
  53.1355790  96.2202382  26.4160232  52.7653577  95.6673423  27.1041138
  53.6314882  95.6160516  25.8635232  61.0223153  98.6774006  24.7977005
  61.4883605  99.5101998  24.7237308  61.4730654  98.2118988  25.5022264
  50.9644989 106.6799878  33.5115250  51.6654448 107.3136360  33.6644644
  50.4940104 107.0214609  32.7510889  59.0899384 105.0217827  21.7963157
  59.3659228 104.9074422  22.7057031  58.2203883 104.6235312  21.7575330
  58.9939816  91.0454593  28.8367906  58.0802896  91.2758820  29.0050113
  59.4232917  91.1293037  29.6881939  58.7646275  99.2344485  31.3367800
  58.1117725  99.4820392  30.6820253  59.1426654  98.4208623  31.0030278
  55.7253448 109.2704178  25.4395971  55.9075843 108.4525834  25.9023723
  56.5486434 109.4871870  25.0020861  56.0595614 108.1972363  22.7011019
  56.5883380 107.6864818  22.0881181  56.3223833 107.8814893  23.5656552
  54.8133848  99.9764296  37.8233837  54.1374485  99.8758425  38.4936213
  55.6361481  99.8203510  38.2869835  46.5612707 106.2136233  30.4446353
  47.1466143 105.4679920  30.5774257  46.3637545 106.5240189  31.3283017
  41.1530361  98.7841833  29.1650796  41.1914461  98.2505423  29.9587914
  40.6470654  98.2577038  28.5461773  48.5321124  93.6306373  32.6613338
  48.5962450  94.4921204  32.2490736  48.4688244  93.0180375  31.9285697
  48.0073396  95.7029506  36.3086372  48.6345435  95.3206583  36.9223897
  47.1501315  95.4843708  36.6742065  58.4067505 106.1092481  37.9140108
  58.9507409 106.7222439  37.4195063  57.8254350 106.6672059  38.4307121
  44.7838939  97.5105935  22.2404727  45.0792380  96.6016613  22.1871781
  43.8826975  97.4893674  21.9185730  56.6925018 109.2313199  29.0455136
  56.5676157 108.4302939  28.5366081  57.3504109 109.7259392  28.5569106
  48.3133186  95.5861931  28.2232276  47.5919772  96.1997899  28.0839749
  49.1026442  96.1219696  28.1448922  58.7559926 107.0322219  30.6734686
  57.8090262 106.9127570  30.6013012  59.1042699 106.1444717  30.7560947
  51.1159499  92.9216358  34.4972928  51.6393901  93.1678655  35.2599237
  50.8971833  93.7536393  34.0776065  46.5126781  95.1920033  22.3644052
  46.1839487  94.3117411  22.1819158  46.8666151  95.1367701  23.2520442
  55.7606359 106.8274935  26.8739038  55.6131322 105.8991643  27.0546608
  56.5859853 106.8495026  26.3896113  49.6268604  95.4793002  22.7319530
  49.9664676  96.0078924  22.0098138  50.0740724  95.8173408  23.5078097
  59.3640481 107.6503494  27.9603911  60.2887029 107.4446355  27.8228362
  59.1955785 107.4019895  28.8693252  52.3212044  93.8630053  32.1822598
  51.9808865  93.0637866  32.5843278  51.6151051  94.1631764  31.6099431
  52.9728516  90.9479366  30.6349921  53.7954586  90.4739844  30.5128811
  53.2166580  91.7269849  31.1348607  51.6136751  93.9767624  20.9312823
  52.3345113  94.3548877  20.4276540  50.9902055  94.6956501  21.0347801
  55.7567874  94.6812773  21.8671155  55.9731488  95.5637411  21.5659983
  55.2761941  94.2898986  21.1376797  50.4967095  97.6398486  28.4441900
  50.3511676  97.9538789  29.3366181  50.0192299  98.2583386  27.8912798
  52.3563478  94.6301034  28.4922789  52.3425047  93.7342127  28.1555087
  53.0735906  94.6371698  29.1261075  54.2089609  95.0638374  30.5375917
  53.9507386  95.9855445  30.5360247  53.6774649  94.6668809  31.2276381
  59.1535797 108.1689161  23.3166002  59.3272675 107.6035584  22.5639855
  59.6464689 108.9690056  23.1345492  44.9712757 100.1803831  31.3829561
  44.4266225 100.9563639  31.5149835  45.8492107 100.5274635  31.2248682
  51.7600374  93.5115414  23.7610359  51.8816285  92.5832061  23.9601247
  51.4702416  93.5254100  22.8488675  54.6291564  91.1970325  26.8977079
  54.6513261  91.2609658  25.9429059  55.0459623  90.3574834  27.0917585
  65.0075189 100.9325584  24.9356302  65.4506335 100.1832910  24.5375425
  64.1301699 100.9235721  24.5530034  45.7578779  99.3073727  34.2759718
  45.0160515  99.4556362  34.8624348  45.4371523  99.5681992  33.4126467
  62.0402393 104.9355631  21.9450231  62.5653717 105.2742904  21.2199551
  61.9524746 104.0002647  21.7613366  53.7022442 108.8489705  34.0740108
  54.0109568 108.6038852  34.9462807  54.4997924 109.0536344  33.5858978
  53.7243054 111.0027615  26.3045484  53.2848044 110.5103993  26.9978341
  54.4751171 110.4600582  26.0637560  46.2035393 107.1939156  26.3070112
  47.0293413 106.8942927  25.9268756  45.8529445 106.4246778  26.7559901
  51.1716926 106.5465624  28.3767786  50.5496935 105.8836329  28.0770014
  51.8421793 106.5726756  27.6941434  44.4043998 105.1125482  27.2659046
  43.5675906 104.6847656  27.0843047  44.3767643 105.3057925  28.2029837
  51.2441453  95.0247412  37.9700292  51.2929609  95.9009535  37.5878062
  51.7863968  94.4824805  37.3971935  61.7296299 105.5688535  37.2501429
  60.9391843 105.5512674  36.7105929  61.4929654 106.1076829  38.0050466
  61.8494174 102.4181001  34.5634158  61.8992179 102.2531009  35.5049680
  61.7408097 101.5508260  34.1732038  50.7330433 105.0969547  21.8526247
  50.8818553 105.7805011  21.1992919  51.5396876 105.0774637  22.3675702
  59.1397937  98.4011929  35.8793464  60.0407799  98.2618394  35.5877462
  59.2145911  98.5666384  36.8191642  53.4740742  95.7778784  34.7246651
  52.6044051  96.0712350  34.4529239  53.7100222  96.3619229  35.4453914
  63.3512371 104.8377943  34.8076179  63.0597179 105.2007923  35.6439640
  62.7384502 104.1244951  34.6289511  64.5508053 102.4030823  27.3278749
  65.3854945 102.8420627  27.4916310  64.6867182 101.9269476  26.5086995
  61.5999559  99.9610558  33.2756237  62.0753681 100.1538204  32.4675089
  60.6765125 100.0169743  33.0299621  48.4883066 101.1234725  22.8587315
  48.2429108 100.2197055  23.0567526  48.6578980 101.1251875  21.9166793
  56.1779776  91.9958401  32.2412071  56.6961720  92.7319428  31.9158560
  55.8234908  92.3022394  33.0758830  47.7578713  96.8563082  20.3573477
  47.0647958  96.9307437  19.7013513  47.5130465  96.0923426  20.8794994
  56.4292370  88.4158684  27.7612968  56.7094124  87.7481873  28.3873394
  57.2142977  88.6087779  27.2487632  60.3001228  96.8376318  31.5084543
  61.2518651  96.9374415  31.5296767  60.1304679  96.0454586  32.0182627
  58.3215608  93.9231901  31.6943944  57.7265540  94.2036914  30.9990432
  58.0365304  94.4125802  32.4660685  62.7789306 100.0582437  30.6226842
  62.7465626  99.1198438  30.8086526  63.3889930 100.1366474  29.8892667
  54.6172637  98.9278490  16.6654046  55.5631742  98.7984698  16.7342465
  54.2386882  98.1893152  17.1423475  62.9283794  96.8493481  30.6685126
  62.4122843  96.0651937  30.4815055  63.8123743  96.5212197  30.8331645
  60.5894521  90.5934496  26.6280938  60.3919343  90.2849585  27.5124270
  61.1994227  91.3196135  26.7578868  68.5965856 101.1198444  29.7632879
  69.3269244 100.8583732  30.3240583  67.9872801 100.3827166  29.8034947
  66.6781153  99.2606307  30.3607330  65.9514317  99.1262272  29.7523822
  66.2628440  99.5683135  31.1664048  54.5011329 102.9796236  38.1254703
  55.4214339 103.1574835  38.3194750  54.4660912 102.0352282  37.9734403
  52.8015554  96.8528467  16.6008932  51.8947009  96.5561579  16.6771645
  53.0791535  96.5558285  15.7343218  43.7193494  98.1734830  27.0507978
  43.3996279  97.3200138  26.7582352  43.1726923  98.3883408  27.8065945
  47.4973402 100.8897271  30.7677485  47.7159412 101.8214379  30.7865518
  47.9099176 100.5305246  31.5532288  54.4177620  91.3965356  22.7553173
  53.6078348  91.0512441  23.1308419  55.1062037  91.0872900  23.3440785
  56.3468168  90.4743403  24.3777470  56.8999207  90.8938857  25.0367493
  56.5838254  89.5479151  24.4200426  52.3701267  96.4630477  40.1580234
  52.2697994  97.4124834  40.0892325  52.1522809  96.1348716  39.2856304
  51.5714339  93.7115402  16.7420911  52.4333503  94.0370300  17.0016728
  51.7564683  92.9246898  16.2293977  43.5881754 101.7937742  29.0201100
  42.8945226 101.3791694  28.5071054  44.3354745 101.8358278  28.4234519
  59.7246975  92.5843928  23.8856134  59.1445644  93.2428732  23.5034186
  59.4582908  91.7621273  23.4743551  58.1750541  91.9848986  26.0877454
  58.6750320  92.0965521  25.2791773  58.8186149  91.6810039  26.7278263
  52.2332537  99.8927616  38.9745295  51.7499619 100.6927976  39.1809184
  52.3193476  99.9035561  38.0212739  45.5018497 101.7255995  26.8967115
  45.4789185 101.8243683  25.9448998  45.8119133 102.5721146  27.2184281
  48.1605875 103.7832150  31.0113729  49.1149128 103.7516093  30.9443661
  47.9618398 103.3222774  31.8263955  48.7505257 102.3533266  33.5784527
  49.5698146 102.8477345  33.6019364  49.0242065 101.4365235  33.5502094
  58.5071853  94.7444019  22.9412482  57.6197708  95.0293669  22.7232677
  58.9225842  94.5837782  22.0939759  61.8586389  94.7690540  26.6566821
  62.6346779  95.2586992  26.9291438  61.1334523  95.1948594  27.1138691
  64.2958948  95.4818159  27.7140762  64.8903439  95.2413895  27.0034070
  64.3685532  94.7625290  28.3414298  58.4812877 100.2598555  23.1562772
  58.4248078 100.7167106  22.3170405  59.0341219  99.4989239  22.9785615
  62.2917683  96.0488287  23.9812892  62.0354617  95.6484922  24.8121100
  61.6670551  96.7632080  23.8563031  66.6030021  98.7884360  26.4884183
  66.0429579  98.8577549  27.2615745  65.9973524  98.6125344  25.7683679
  59.2147656 101.4503336  20.4515302  59.1596460 101.2847607  19.5103746
  58.5893711 102.1579369  20.6077491  44.0040171  96.6871400  34.2776724
  44.6499035  96.1770354  34.7663949  43.7957322  97.4240082  34.8520149
  56.5293563 103.7552248  39.7768864  57.3984723 103.9292900  39.4155499
  56.0500315 104.5746665  39.6544594  52.5243782  90.9511445  20.0300620
  52.5122451  91.8953285  20.1868891  53.4167204  90.7681590  19.7360081
  52.4533346 109.6280335  28.1168377  51.5028977 109.6282197  28.0032749
  52.7565832 108.8813070  27.6004411  56.3395901  87.5454222  24.2846557
  55.5728297  86.9912708  24.4303239  56.7506606  87.6176090  25.1460708
  48.3437662  93.8339017  38.3751738  49.2069124  93.4775822  38.5855063
  47.7703073  93.4952912  39.0627142  70.6661155 106.8389135  31.6194934
  70.3344480 107.7084546  31.3956149  70.0706768 106.5225419  32.2988965
  70.5589818 111.5584221  28.6988284  69.6506696 111.4899630  28.4047045
  70.5077414 112.0356166  29.5270110  64.6330684 112.9773867  36.6423181
  63.8564018 113.5367787  36.6326046  65.2721247 113.4630650  37.1638052
  72.4251465 109.7600659  30.4766158  71.7825845 110.0533193  29.8305953
  71.9206393 109.6453580  31.2819355  64.7163466 112.8661067  32.1746867
  65.5624661 113.2900481  32.3181516  64.6562104 112.2094692  32.8685430
  67.8662911 110.5265436  33.8328041  67.6223843 111.2807496  33.2962316
  68.1422842 110.9050783  34.6675288  67.4227603 109.6821869  29.4141878
  66.5612082 109.9803122  29.7058616  67.4490038 109.8992268  28.4822911
  61.6238420 112.9398968  37.0056458  60.9937081 113.6215249  37.2391855
  61.5174508 112.8282050  36.0609597  60.9019163 107.2419734  39.3681710
  60.5086109 106.6885933  40.0429354  61.7185303 107.5530313  39.7588227
  63.8187124 108.6577613  36.9601966  64.5596837 109.2584766  36.8806429
  64.0505047 107.9155251  36.4020009  67.7644287 104.6858716  31.2366248
  67.4208556 105.5760358  31.1605358  68.1323249 104.4960374  30.3735833
  66.8440827 107.0563371  29.2015481  66.3405623 107.0193506  28.3883286
  67.1371434 107.9656114  29.2612138  63.0883713 107.1402101  28.2081663
  63.9536710 106.9444910  27.8487552  63.1561222 106.9112453  29.1351019
  60.6946032 109.3704309  25.5798030  61.2689784 109.1479490  24.8471222
  61.2817015 109.4393003  26.3326631  62.9968700 106.2445558  24.3073099
  62.3433112 105.9294575  23.6829714  62.9549174 105.6221298  25.0332922
  66.2306440 112.7327491  28.6320747  65.3129002 112.9542438  28.4742435
  66.6466584 112.8073802  27.7732454  69.5631953 103.9452275  26.3383985
  69.8690829 103.0849639  26.0509901  70.2884557 104.5369895  26.1382979
  63.8353032 114.2406068  26.8460177  63.8901642 113.2879905  26.7702653
  63.0244234 114.3965507  27.3301475  67.3719604 113.3224953  33.4365449
  67.7268992 113.5496426  34.2959915  68.0191735 113.6543329  32.8142705
  61.2659467 110.4301484  30.2211790  61.9058846 110.2890243  29.5234754
  60.4336998 110.1435997  29.8450392  58.2688083 110.4001809  24.9984777
  58.5294901 111.3147142  24.8893938  59.0905256 109.9326251  25.1481390
  59.7413009 111.8139566  32.1683602  60.4136062 111.6056928  31.5196251
  58.9142795 111.6161652  31.7288834  65.6438581 108.4401507  34.1849263
  64.9966496 109.1391456  34.0913739  66.4139596 108.8737651  34.5525511
  61.4851741 111.7867346  34.2365358  60.9489098 111.3358084  34.8886954
  60.8968449 111.9213255  33.4935822  57.2190862 110.9223354  31.3218352
  57.1349051 110.3149023  30.5868762  56.3973568 111.4132372  31.3227849
  67.3914576 109.4076917  26.6888547  67.8883275 108.6546879  26.3689618
  66.6201557 109.4441234  26.1231757  63.9749544 111.5494300  26.4160232
  63.6047332 110.9965341  27.1041138  64.4708637 110.9452434  25.8635232
  69.8333571 106.3746511  28.8367906  68.9196650 106.6050738  29.0050113
  70.2626672 106.4584955  29.6881939  69.6040029 114.5636403  31.3367800
  68.9511479 114.8112310  30.6820253  69.9820409 113.7500541  31.0030278
  65.6527602 115.3056214  37.8233837  64.9768239 115.2050343  38.4936213
  66.4755236 115.1495427  38.2869835  59.3714878 108.9598291  32.6613338
  59.4356205 109.8213122  32.2490736  59.3081998 108.3472293  31.9285697
  58.8467151 111.0321423  36.3086372  59.4739189 110.6498501  36.9223897
  57.9895070 110.8135625  36.6742065  59.1526940 110.9153849  28.2232276
  58.4313526 111.5289817  28.0839749  59.9420196 111.4511614  28.1448922
  61.9553254 108.2508276  34.4972928  62.4787656 108.4970572  35.2599237
  61.7365587 109.0828310  34.0776065  57.3520535 110.5211950  22.3644052
  57.0233241 109.6409329  22.1819158  57.7059906 110.4659619  23.2520442
  63.1605799 109.1921971  32.1822598  62.8202619 108.3929784  32.5843278
  62.4544805 109.4923682  31.6099431  63.8122271 106.2771283  30.6349921
  64.6348340 105.8031761  30.5128811  64.0560334 107.0561767  31.1348607
  61.3360850 112.9690404  28.4441900  61.1905430 113.2830707  29.3366181
  60.8586053 113.5875304  27.8912798  63.1957232 109.9592952  28.4922789
  63.1818801 109.0634045  28.1555087  63.9129661 109.9663616  29.1261075
  65.0483363 110.3930292  30.5375917  64.7901141 111.3147363  30.5360247
  64.5168404 109.9960727  31.2276381  65.4685319 106.5262243  26.8977079
  65.4907016 106.5901576  25.9429059  65.8853378 105.6866751  27.0917585
  62.0835208 110.3539329  37.9700292  62.1323363 111.2301452  37.5878062
  62.6257722 109.8116723  37.3971935  69.9791691 113.7303847  35.8793464
  70.8801554 113.5910312  35.5877462  70.0539666 113.8958302  36.8191642
  64.3134496 111.1070702  34.7246651  63.4437806 111.4004268  34.4529239
  64.5493977 111.6911147  35.4453914  72.4393314 115.2902475  33.2756237
  72.9147435 115.4830122  32.4675089  71.5158879 115.3461661  33.0299621
  67.0173530 107.3250319  32.2412071  67.5355474 108.0611346  31.9158560
  66.6628663 107.6314312  33.0758830  67.2686124 103.7450601  27.7612968
  67.5487878 103.0773790  28.3873394  68.0536731 103.9379697  27.2487632
  71.1394983 112.1668235  31.5084543  72.0912406 112.2666333  31.5296767
  70.9698433 111.3746504  32.0182627  69.1609362 109.2523819  31.6943944
  68.5659294 109.5328831  30.9990432  68.8759059 109.7417719  32.4660685
  73.7677549 112.1785398  30.6685126  73.2516598 111.3943855  30.4815055
  74.6517498 111.8504115  30.8331645  71.4288276 105.9226414  26.6280938
  71.2313097 105.6141502  27.5124270  72.0387981 106.6488053  26.7578868
  67.1861923 105.8035321  24.3777470  67.7392961 106.2230774  25.0367493
  67.4232009 104.8771069  24.4200426  63.2095022 111.7922395  40.1580234
  63.1091749 112.7416751  40.0892325  62.9916564 111.4640633  39.2856304
  69.0144296 107.3140904  26.0877454  69.5144074 107.4257438  25.2791773
  69.6579904 107.0101957  26.7278263  67.1789656 102.8746139  24.2846557
  66.4122051 102.3204626  24.4303239  67.5900361 102.9468008  25.1460708
  59.1831417 109.1630935  38.3751738  60.0462878 108.8067740  38.5855063
  58.6096827 108.8244830  39.0627142  15.0492488  21.7986933  24.6385415
  15.5932392  22.4116891  24.1440369  14.4679333  22.3566511  25.1552428
  18.3721282  21.2582987  23.9746736  17.5816826  21.2407126  23.4351235
  18.1354637  21.7971281  24.7295772  13.1718547  19.4446700  26.5014171
  14.0409706  19.6187352  26.1400806  12.6925298  20.2641117  26.3789900
  24.8311022  31.1535326  15.9059446  25.4689432  31.0342073  15.2022786
  24.7131865  32.1016170  15.9647398  22.1220512  32.2597605  21.8007176
  22.1109152  31.8650404  20.9287679  22.2841151  31.5263678  22.3940947
  18.8427773  35.0434717  20.7486360  18.5517639  35.9480348  20.6333026
  19.4784757  35.0851245  21.4630429  19.7683980  32.4211566  17.3387719
  20.3647552  32.1967588  16.6244682  19.8258951  31.6796311  17.9413167
  29.7860718  28.8162013  13.8845632  30.5185890  28.2461229  14.1183462
  29.0300074  28.4283613  14.3252138  27.3086138  22.5283587  18.3440241
  26.9769463  23.3978998  18.1201456  26.7131752  22.2119871  19.0234271
  23.8017658  34.7296133  17.7436154  23.5018381  35.6321172  17.6351961
  23.4568717  34.4628316  18.5957306  18.7838438  41.4940453  10.7107121
  18.7062467  42.4448278  10.7895602  18.1800081  41.1486326  11.3682048
  21.2755667  28.6668319  23.3668488  20.4989002  29.2262239  23.3571353
  21.9146231  29.1525102  23.8883358  29.0676448  25.4495111  17.2011465
  28.4250828  25.7427645  16.5551259  28.5631377  25.3348032  18.0064661
  19.5302040  31.4753772  22.9286455  20.2716724  32.0138816  22.6521279
  18.8239025  32.1020061  23.0858007  25.0057379  33.6182912  21.5258617
  25.4140735  33.1765323  20.7813249  24.2834641  33.0435540  21.7792809
  21.3588449  28.5555519  18.8992174  22.2049645  28.9794933  19.0426823
  21.2987087  27.8989143  19.5930737  25.3286194  34.1784103  15.2810905
  24.6995057  34.3429817  14.5786973  24.9411856  34.5925713  16.0521869
  29.2075426  35.1138541  12.6355269  28.5226464  35.4937442  12.0852303
  29.2919275  35.7233868  13.3687217  24.5087895  26.2159888  20.5573347
  24.2648827  26.9701948  20.0207623  24.7847825  26.5945235  21.3920594
  26.4626358  32.7598500  19.2350613  26.6743253  33.4030260  18.5584994
  26.4156106  31.9260816  18.7672543  17.7738237  33.4629993  15.4840754
  18.3439594  33.8917261  14.8458238  18.3646349  33.1812577  16.1824939
  18.2663404  28.6293420  23.7301765  17.6362064  29.3109701  23.9637162
  18.1599491  28.5176502  22.7854903  27.5772186  35.6370455  17.4072970
  28.3989629  35.2350643  17.1255652  27.5734588  35.5338689  18.3589086
  21.3428789  35.1854499  19.5633681  21.4073221  35.6474906  20.3991852
  20.6339713  34.5551864  19.6915990  35.6678179  31.9809204  13.7557942
  34.9141887  31.4116602  13.6001946  35.8025720  31.9471868  14.7028576
  17.5444146  22.9314186  26.0927016  17.1511092  22.3780384  26.7674660
  18.3610287  23.2424764  26.4833534  20.4612107  24.3472065  23.6847273
  21.2021821  24.9479218  23.6051735  20.6930030  23.6049703  23.1265315
  15.6053445  29.5328432  21.9625502  15.4906960  28.6313690  22.2632601
  14.7497963  29.7792129  21.6110319  22.6845283  37.4746173  23.5613003
  22.2409137  36.6882551  23.2433908  23.3462497  37.6625323  22.8956894
  17.4432404  39.0041974  18.0873682  17.9939829  38.8759038  17.3150675
  16.6043880  39.3036863  17.7368574  24.7826521  37.7548973  21.5894404
  24.7644996  38.5757854  21.0974673  25.7046441  37.6303048  21.8144545
  21.2399575  35.2693102  22.4317913  21.7727912  34.5081390  22.2017221
  20.7113656  34.9766754  23.1742067  27.5845134  32.5928115  15.0603771
  26.9268808  33.2827376  15.1483900  28.3885533  32.9824547  15.4037757
  27.1612389  35.9278489  11.2386855  26.7074716  35.0869399  11.2952046
  26.5306356  36.5639887  11.5761636  25.6045328  37.7654986  12.1736673
  25.8968303  38.3260043  11.4549039  26.1143949  38.0583547  12.9289833
  20.5678953  38.5435337  13.2630127  20.5255132  38.7696183  12.3338659
  21.4841652  38.3098711  13.4115928  24.0144587  29.0119404  20.1610756
  24.3693975  29.2390878  21.0205222  24.6616718  29.3437781  19.5388011
  29.7711704  34.2014367  15.8771356  30.2048210  34.1089656  16.7254410
  30.4843284  34.1771868  15.2391372  23.5039599  37.8016461  17.4104457
  23.5576621  38.3707398  18.1782173  22.6354380  37.9718346  17.0458494
  30.6327253  34.2438068  18.4104242  30.8263143  35.1483878  18.6563517
  30.5327871  33.7845487  19.2442827  22.2863564  24.1295959  20.9094569
  21.6391479  24.8285908  20.8159046  23.0564579  24.5632102  21.2770817
  25.6942362  34.3944811  23.9845122  25.5427868  34.1655362  23.0675206
  25.6847041  35.3515412  23.9976467  22.4627698  31.9676723  18.9691389
  23.3919758  32.1187883  18.7960356  22.0418728  32.0560744  18.1140035
  21.2616030  35.9927388  16.7389927  21.1227116  35.6246172  17.6115865
  20.4730626  36.5075027  16.5673884  22.8121245  35.3708991  14.1278764
  22.4771078  35.3309761  15.0236414  22.3125191  34.7053707  13.6549175
  16.7865489  30.7776621  19.6531345  16.6485287  30.0456859  20.2542885
  17.6970413  30.6885521  19.3715533  19.4147790  30.4896580  19.1415025
  20.1247408  29.8489772  19.1001644  19.3717098  30.7409475  20.0641206
  27.4034569  37.4263933  22.0621604  27.3447115  36.7423153  21.3952187
  27.8054087  38.1682923  21.6102230  18.1276724  27.4761798  20.9610665
  17.5914081  27.0252536  21.6132261  17.5393432  27.6107707  20.2181129
  16.4225267  44.2425847  14.8555323  16.6621866  44.8744371  15.5334342
  15.5794464  43.8913887  15.1420682  27.4051976  35.3903517  20.2935584
  26.5178755  35.0529439  20.4161983  27.9750527  34.6586548  20.5304349
  20.9353129  40.0504970  17.2596827  20.8623301  40.8559941  17.7716132
  20.4930522  40.2496935  16.4344849  20.7242909  39.2876740  10.7699649
  19.9410431  39.8298420  10.8637873  21.4235654  39.8050719  11.1693890
  31.8869316  30.8011735  15.0552146  31.8759193  31.6836450  14.6846079
  31.0186696  30.4483285  14.8606683  23.3951813  39.9491804  19.4154986
  24.1079785  40.5839268  19.3430887  22.9041841  40.0455670  18.5994988
  18.4463726  37.6986247  20.2360557  19.1473186  38.3322730  20.3889951
  17.9758841  38.0400979  19.4756196  26.2465012  30.2530855  18.0613107
  25.5936463  30.5006762  17.4065560  26.6245392  29.4394993  17.7275584
  23.2072186  40.2890548  12.1641277  23.3894581  39.4712204  12.6269030
  24.0305172  40.5058240  11.7266167  22.2952585  30.9950666  24.5479144
  21.6193222  30.8944795  25.2181519  23.1180219  30.8389879  25.0115141
  14.0431444  37.2322602  17.1691659  14.6284881  36.4866290  17.3019564
  13.8456283  37.5426559  18.0528323  16.8970100  40.2673850  12.1854102
  16.2280475  40.7519977  11.7018142  16.7582969  40.5143070  13.0997480
  21.0375368  42.3017593  18.7836760  21.5893676  42.4649215  19.5485845
  21.3781562  42.8922031  18.1116785  15.4892134  26.7215875  23.0331679
  16.1164173  26.3392953  23.6469203  14.6320053  26.5030077  23.3987372
  25.8886243  37.1278851  24.6385415  26.4326147  37.7408809  24.1440369
  25.3073087  37.6858429  25.1552428  24.1743755  40.2499569  15.7700442
  24.0494895  39.4489308  15.2611388  24.8322847  40.7445762  15.2814412
  26.2378664  38.0508589  17.3979992  25.2908999  37.9313940  17.3258319
  26.5861437  37.1631087  17.4806254  18.5978237  23.9402728  21.2218234
  19.1212639  24.1865024  21.9844544  18.3790570  24.7722762  20.8021372
  23.2425097  37.8461305  13.5984345  23.0950060  36.9178012  13.7791915
  24.0678591  37.8681396  13.1141420  26.8459219  38.6689864  14.6849217
  27.7705766  38.4632725  14.5473668  26.6774522  38.4206265  15.5938559
  26.6354535  39.1875531  10.0411309  26.8091413  38.6221954   9.2885161
  27.1283426  39.9876426   9.8590799  32.4893926  31.9511954  11.6601609
  32.9325072  31.2019279  11.2620732  31.6120437  31.9422090  11.2775341
  13.2397517  30.3260096  21.0005024  12.4979253  30.4742732  21.5869655
  12.9190261  30.5868362  20.1371774  21.1841180  39.8676075  20.7985414
  21.4928306  39.6225221  21.6708114  21.9816662  40.0722713  20.3104285
  21.2061792  42.0213984  13.0290791  20.7666782  41.5290363  13.7223648
  21.9569909  41.4786952  12.7882866  18.6535664  37.5651993  15.1013093
  18.0315673  36.9022698  14.8015321  19.3240531  37.5913125  14.4186740
  18.7260191  26.0433781  24.6945599  18.7748347  26.9195904  24.3123368
  19.2682705  25.5011174  24.1217242  29.2115037  36.5874905  23.9746736
  28.4210581  36.5699043  23.4351235  28.9748391  37.1263198  24.7295772
  29.3312912  33.4367371  21.2879464  29.3810917  33.2717378  22.2294987
  29.2226835  32.5694630  20.8977345  26.6216674  29.4198299  22.6038771
  27.5226537  29.2804764  22.3122769  26.6964649  29.5852754  23.5436948
  20.9559480  26.7965154  21.4491957  20.0862789  27.0898720  21.1774546
  21.1918960  27.3805599  22.1699221  30.8331109  35.8564312  21.5321486
  30.5415917  36.2194293  22.3684947  30.2203240  35.1431321  21.3534818
  32.0326791  33.4217192  14.0524056  32.8673682  33.8606996  14.2161616
  32.1685920  32.9455845  13.2332302  29.0818297  30.9796927  20.0001544
  29.5572419  31.1724573  19.1920395  28.1583862  31.0356113  19.7544928
  23.6598513  23.0144771  18.9657378  24.1780457  23.7505798  18.6403866
  23.3053646  23.3208764  19.8004137  27.7819966  27.8562687  18.2329849
  28.7337389  27.9560785  18.2542073  27.6123416  27.0640956  18.7427934
  25.8034345  24.9418270  18.4189250  25.2084278  25.2223283  17.7235739
  25.5184042  25.4312171  19.1905991  30.2608044  31.0768807  17.3472149
  30.2284364  30.1384808  17.5331833  30.8708667  31.1552844  16.6137974
  30.4102532  27.8679850  17.3930432  29.8941581  27.0838307  17.2060361
  31.2942481  27.5398567  17.5576952  36.0784594  32.1384814  16.4878186
  36.8087982  31.8770102  17.0485889  35.4691539  31.4013536  16.5280254
  34.1599891  30.2792676  17.0852637  33.4333054  30.1448641  16.4769129
  33.7447178  30.5869505  17.8909355  21.9830067  33.9982606  24.8500010
  22.9033077  34.1761205  25.0440057  21.9479650  33.0538651  24.6979709
  14.9792140  31.9083641  17.4922791  15.1978150  32.8400748  17.5110825
  15.3917914  31.5491615  18.2777595  19.8520005  27.4816846  26.8825540
  19.7516732  28.4311203  26.8137631  19.6341547  27.1535085  26.0101610
  19.7151275  30.9113985  25.6990602  19.2318357  31.7114345  25.9054491
  19.8012214  30.9221930  24.7458046  15.6424613  34.8018520  17.7359036
  16.5967866  34.7702462  17.6688967  15.4437136  34.3409144  18.5509262
  16.2323995  33.3719636  20.3029833  17.0516884  33.8663715  20.3264671
  16.5060802  32.4551604  20.2747401  31.7777686  26.5004529  14.4386069
  32.3722176  26.2600264  13.7279377  31.8504269  25.7811659  15.0659605
  13.9974841  40.3438139  14.7529234  13.8629309  39.5838540  14.1867232
  13.5806904  41.0679039  14.2858022  34.0848758  29.8070729  13.2129490
  33.5248316  29.8763919  13.9861052  33.4792262  29.6311714  12.4928986
  17.1543967  41.2407456  14.9647676  17.0376351  42.1852889  14.8626366
  16.3336414  40.9381018  15.3533475  24.0112301  34.7738617  26.5014171
  24.8803461  34.9479270  26.1400806  23.5319053  35.5933034  26.3789900
  18.1798481  41.8935718  18.1803605  19.0825728  41.9259329  18.4970100
  17.9535851  40.9636169  18.1949940  19.9352083  40.6466705  14.8413683
  18.9847714  40.6468567  14.7278056  20.2384570  39.8999439  14.3249718
  15.8256400  24.8525387  25.0997045  16.6887862  24.4962192  25.3100369
  15.2521811  24.5139282  25.7872449  35.6704777  46.4827243  15.9059446
  36.3083187  46.3633991  15.2022786  35.5525620  47.4308087  15.9647398
  32.4794483  46.4354671  15.8420970  32.1412995  46.3195736  14.9541505
  33.3484251  46.0345837  15.8221976  28.3381299  48.2890148  11.8317861
  27.7746164  48.1980085  11.0634149  28.2233694  47.4690052  12.3120354
  32.9614266  47.5889523  21.8007176  32.9502907  47.1942321  20.9287679
  33.1234906  46.8555596  22.3940947  25.8845731  49.7841339  14.6702082
  26.6767023  49.4432164  14.2548381  26.1242381  49.8936314  15.5904235
  33.9180858  51.9561116   7.1432326  33.2668837  52.5415196   6.7566340
  34.7125220  52.4867310   7.2027364  27.8436485  49.0450253   7.5419461
  28.6167361  48.4979240   7.4032336  28.1961884  49.9094502   7.7533922
  29.6821527  50.3726635  20.7486360  29.3911393  51.2772266  20.6333026
  30.3178512  50.4143163  21.4630429  30.6077734  47.7503483  17.3387719
  31.2041306  47.5259506  16.6244682  30.6652706  47.0088229  17.9413167
  30.1802763  45.2042919   5.1737910  30.4328283  44.6824440   4.4121373
  29.2427322  45.0409064   5.2764594  35.2246045  44.2078697  12.9812654
  36.0109135  43.7898120  12.6303071  35.4884750  45.1124789  13.1494302
  35.3956123  49.6451547   7.6801310  34.7601956  49.7186174   8.3922215
  35.0653529  50.2345146   7.0020390  40.6254473  44.1453930  13.8845632
  41.3579644  43.5753147  14.1183462  39.8693828  43.7575531  14.3252138
  29.8999051  47.1071025   7.3762285  29.7835309  46.4315928   8.0443370
  30.0101311  46.6203399   6.5594438  32.2430592  46.5681172  11.0808975
  31.8788799  46.0411793  11.7921896  33.0997708  46.1779641  10.9075460
  38.1479893  37.8575504  18.3440241  37.8163218  38.7270915  18.1201456
  37.5525506  37.5411788  19.0234271  31.8836079  41.5971072   6.0770323
  32.0510482  42.4651308   6.4440794  31.6933248  41.7598353   5.1531612
  34.6411412  50.0588050  17.7436154  34.3412135  50.9613089  17.6351961
  34.2962472  49.7920234  18.5957306  28.0923894  46.5101847  13.7772858
  27.1674390  46.3778061  13.9850550  28.3408307  47.2896067  14.2742800
  38.0408556  42.5770591  15.4233591  37.1325434  42.5085999  15.1292352
  37.9896152  43.0542536  16.2515416  31.8625300  44.0528729   7.0616990
  31.7424925  44.4985780   7.9002470  31.1677888  44.4014047   6.5030528
  25.4532705  46.1535121  14.6116647  25.5825086  46.4069600  15.5256059
  24.7730156  46.7462829  14.2921302  29.6232192  56.8232371  10.7107121
  29.5456222  57.7740196  10.7895602  29.0193836  56.4778243  11.3682048
  32.1149422  43.9960236  23.3668488  31.3382756  44.5554156  23.3571353
  32.7539985  44.4817019  23.8883358  39.9070203  40.7787029  17.2011465
  39.2644583  41.0719562  16.5551259  39.4025131  40.6639949  18.0064661
  37.5610366  44.5250202   7.8897324  38.4728222  44.7577589   7.7145022
  37.0520013  45.1087246   7.3272403  30.3695794  46.8045690  22.9286455
  31.1110479  47.3430734  22.6521279  29.6632780  47.4311978  23.0858007
  35.8451134  48.9474830  21.5258617  36.2534490  48.5057241  20.7813249
  35.1228395  48.3727458  21.7792809  32.1982204  43.8847437  18.8992174
  33.0443399  44.3086850  19.0426823  32.1380842  43.2281061  19.5930737
  36.1679949  49.5076021  15.2810905  35.5388811  49.6721735  14.5786973
  35.7805611  49.9217630  16.0521869  40.0469180  50.4430459  12.6355269
  39.3620219  50.8229360  12.0852303  40.1313030  51.0525785  13.3687217
  35.3481649  41.5451805  20.5573347  35.1042581  42.2993866  20.0207623
  35.6241580  41.9237153  21.3920594  37.3020112  48.0890418  19.2350613
  37.5137007  48.7322177  18.5584994  37.2549860  47.2552734  18.7672543
  34.9046341  40.7008238  16.1387185  34.0430820  40.9989492  16.4303922
  34.9308776  40.9178637  15.2068218  31.7207910  49.2450429  12.5460991
  32.1846256  49.5238132  11.7565613  31.4564709  48.3433873  12.3634081
  28.6131991  48.7921910  15.4840754  29.1833349  49.2209179  14.8458238
  29.2040103  48.5104495  16.1824939  30.6576796  45.3673581   9.3550556
  31.3600840  45.8194625   9.8224482  30.3257425  44.7257400   9.9830449
  29.1057158  43.9585338  23.7301765  28.4755819  44.6401619  23.9637162
  28.9993246  43.8468419  22.7854903  24.4002130  43.6257134  14.6567689
  23.6101184  43.8814662  14.1807800  24.8913378  44.4405472  14.7619730
  38.4165940  50.9662373  17.4072970  39.2383384  50.5642560  17.1255652
  38.4128343  50.8630607  18.3589086  26.3516876  43.9901713  11.6151166
  25.5548039  44.1020407  12.1334662  26.1242468  44.3288365  10.7492056
  32.1822543  50.5146416  19.5633681  32.2466976  50.9766824  20.3991852
  31.4733467  49.8843781  19.6915990  22.6839833  43.8787624  17.0882680
  22.9347872  44.7634634  17.3540256  23.2199382  43.6992226  16.3157772
  46.5071933  47.3101121  13.7557942  45.7535641  46.7408520  13.6001946
  46.6419474  47.2763786  14.7028576  31.8970561  52.1814524   9.4312661
  31.7616236  53.0266059   9.8597509  32.4380374  52.3833801   8.6678595
  28.3837901  38.2606104  26.0927016  27.9904846  37.7072302  26.7674660
  29.2004041  38.5716682  26.4833534  25.3499958  49.6989962  10.0040586
  25.8624479  50.4933212  10.1546151  26.0022671  49.0016252   9.9374187
  27.1594843  52.8155718  12.0863339  27.3361472  53.7373683  11.8984323
  27.9551677  52.5014137  12.5157719  31.3005862  39.6763983  23.6847273
  32.0415575  40.2771136  23.6051735  31.5323785  38.9341620  23.1265315
  26.4447200  44.8620350  21.9625502  26.3300715  43.9605607  22.2632601
  25.5891717  45.1084047  21.6110319  33.5239037  52.8038090  23.5613003
  33.0802892  52.0174469  23.2433908  34.1856251  52.9917241  22.8956894
  28.2826159  54.3333892  18.0873682  28.8333584  54.2050955  17.3150675
  27.4437635  54.6328781  17.7368574  35.6220276  53.0840890  21.5894404
  35.6038751  53.9049771  21.0974673  36.5440196  52.9594965  21.8144545
  32.0793330  50.5985020  22.4317913  32.6121667  49.8373308  22.2017221
  31.5507411  50.3058671  23.1742067  35.2463025  35.7045086  17.9611554
  34.9027294  36.5946727  17.8850665  35.6141987  35.5146743  17.0981139
  23.3148875  48.0278616  10.7800157  24.1524097  48.4375624  10.5633864
  23.4927143  47.0878058  10.7500350  35.2113307  45.6953697   6.4683990
  34.6959931  46.4658301   6.7072377  34.9390616  45.0218833   7.0917051
  32.7960418  40.5403398  11.5269228  31.9402015  40.1510248  11.3474867
  33.2087370  40.6195358  10.6669013  34.3259565  38.0749741  15.9260788
  33.8224361  38.0379876  15.1128593  34.6190172  38.9842484  15.9857444
  30.5702451  38.1588471  14.9326969  31.4355448  37.9631279  14.5732859
  30.6379960  37.9298822  15.8596326  40.1847582  48.4486051   8.4037163
  39.4077024  48.1097211   7.9592325  40.8639062  48.4538675   7.7292128
  34.9999611  43.5680789   8.2943771  34.6949746  43.8826938   9.1453914
  35.9530053  43.6462209   8.3371104  33.4446042  49.7271012   9.9436725
  32.9167404  48.9923772   9.6309962  32.9433545  50.5045689   9.6976693
  38.4238888  47.9220033  15.0603771  37.7662563  48.6119294  15.1483900
  39.2279288  48.3116465  15.4037757  28.1764770  40.3890678  12.3043336
  28.7508522  40.1665860  11.5716529  28.7635752  40.4579373  13.0571937
  37.2344347  46.2764405  13.1107713  37.7476229  46.9094397  13.6129422
  37.8845571  45.6765601  12.7451073  30.4787438  37.2631927  11.0318406
  29.8251850  36.9480945  10.4075020  30.4367912  36.6407668  11.7578229
  31.5898643  47.5451222   2.9471698  30.6825704  47.3140476   3.1462847
  32.0869675  46.7488842   3.1345679  34.4966721  56.2548730   5.8668384
  33.8228420  56.5580426   6.4753342  34.8832543  57.0577810   5.5173841
  33.7125178  43.7513861  15.3566053  32.7947739  43.9728808  15.1987741
  34.1285322  43.8260171  14.4977761  34.4960226  45.1505277  10.4868733
  35.2432045  45.6626674  10.1775856  34.7651815  44.8289329  11.3473127
  32.7686876  47.6463817   7.4695688  31.8598095  47.3622850   7.5668158
  32.7981960  48.0662896   6.6098995  38.0006143  51.2570407  11.2386855
  37.5468471  50.4161317  11.2952046  37.3700110  51.8931805  11.5761636
  36.9439063  42.1862393  12.4687523  36.2061820  41.6739779  12.7997765
  37.1965837  41.7462774  11.6570800  36.4439083  53.0946903  12.1736673
  36.7362057  53.6551961  11.4549039  36.9537703  53.3875464  12.9289833
  37.0450690  34.9638645  13.0629292  37.3509567  34.1036008  12.7755207
  37.7703295  35.5556265  12.8628286  23.3375046  45.3669331  11.4510890
  23.1399446  44.7738692  10.7261957  22.7821710  45.0621542  12.1686829
  31.3171770  45.2592438  13.5705483  31.3720380  44.3066274  13.4947960
  30.5062972  45.4151877  14.0546782  32.4662964  49.1872561   4.8083766
  32.0282394  48.4708420   4.3489404  33.2073405  49.4148676   4.2468858
  29.2564130  43.8769498  11.3295862  28.4431996  44.1763668  11.7361054
  29.7523124  43.4825186  12.0470344  31.4072708  53.8727255  13.2630127
  31.3648887  54.0988101  12.3338659  32.3235407  53.6390629  13.4115928
  34.8538342  44.3411322  20.1610756  35.2087729  44.5682795  21.0205222
  35.5010473  44.6729699  19.5388011  40.5836079  47.4629758  10.8660085
  40.4453977  47.6531354   9.9381274  40.2272297  48.2249141  11.3228136
  28.7478205  41.4487853  16.9457097  29.3877584  41.3076612  16.2480060
  27.9155735  41.1622367  16.5695699  40.6105458  49.5306285  15.8771356
  41.0441965  49.4381574  16.7254410  41.3237039  49.5063785  15.2391372
  29.5238509  50.7490284  13.0592089  30.3179107  50.2540604  12.8574664
  28.8130201  50.2208147  12.6959795  34.3433353  53.1308379  17.4104457
  34.3970375  53.6999315  18.1782173  33.4748134  53.3010264  17.0458494
  25.8321272  44.8933365   9.1351842  24.9018860  44.8317821   9.3521804
  25.9278744  44.3709318   8.3388483  25.7506821  41.4188178  11.7230084
  26.0113638  42.3333511  11.6139244  26.5723993  40.9512621  11.8726697
  27.2231746  42.8325935  18.8928908  27.8954800  42.6243297  18.2441557
  26.3961533  42.6348021  18.4534141  41.4721008  49.5729986  18.4104242
  41.6656898  50.4775796  18.6563517  41.3721626  49.1137405  19.2442827
  33.1257319  39.4587876  20.9094569  32.4785234  40.1577826  20.8159046
  33.8958334  39.8924020  21.2770817  36.5336116  49.7236728  23.9845122
  36.3821623  49.4947280  23.0675206  36.5240796  50.6807330  23.9976467
  33.3021453  47.2968641  18.9691389  34.2313513  47.4479801  18.7960356
  32.8812483  47.3852662  18.1140035  32.1009785  51.3219306  16.7389927
  31.9620870  50.9538090  17.6115865  31.3124381  51.8366945  16.5673884
  32.6957937  56.4228402   8.0815463  32.8709692  55.9516445   8.8961086
  32.0090725  57.0494168   8.3096724  33.6515000  50.7000908  14.1278764
  33.3164832  50.6601678  15.0236414  33.1518945  50.0345624  13.6549175
  27.6259244  46.1068538  19.6531345  27.4879042  45.3748777  20.2542885
  28.5364167  46.0177438  19.3715533  36.5874191  48.0456943   4.4015824
  35.9703362  47.3203771   4.3048877  36.1190680  48.8066303   4.0582898
  30.2541544  45.8188498  19.1415025  30.9641163  45.1781690  19.1001644
  30.2110853  46.0701392  20.0641206  38.2428323  52.7555851  22.0621604
  38.1840869  52.0715071  21.3952187  38.6447841  53.4974841  21.6102230
  28.9670478  42.8053716  20.9610665  28.4307835  42.3544454  21.6132261
  28.3787187  42.9399624  20.2181129  27.2619022  59.5717765  14.8555323
  27.5015620  60.2036289  15.5334342  26.4188218  59.2205805  15.1420682
  38.2445730  50.7195435  20.2935584  37.3572509  50.3821357  20.4161983
  38.8144281  49.9878466  20.5304349  19.8974877  47.0519527  13.6178635
  20.5845917  46.7381257  13.0299651  19.7423006  47.9560891  13.3445887
  24.7009600  41.9409723  18.0463659  24.6167788  41.3335393  17.3114069
  23.8792306  42.4318742  18.0473155  31.7746884  55.3796887  17.2596827
  31.7017055  56.1851859  17.7716132  31.3324277  55.5788853  16.4344849
  31.5636663  54.6168657  10.7699649  30.7804185  55.1590337  10.8637873
  32.2629409  55.1342637  11.1693890  34.8733313  40.4263287  13.4133854
  35.3702013  39.6733249  13.0934924  34.1020295  40.4627603  12.8477063
  42.7263071  46.1303652  15.0552146  42.7152947  47.0128368  14.6846079
  41.8580450  45.7775203  14.8606683  34.2345567  55.2783721  19.4154986
  34.9473539  55.9131186  19.3430887  33.7435596  55.3747587  18.5994988
  35.9563094  49.1834974  10.9872278  35.0219373  49.3036436  10.8176982
  36.1339763  48.2807441  10.7232287  31.4568282  42.5680670  13.1405539
  31.0866070  42.0151710  13.8286444  31.9527375  41.9638803  12.5880539
  39.3435646  45.0252293  11.5222312  39.8096098  45.8580285  11.4482614
  39.7943146  44.5597275  12.2267570  29.2857481  53.0278165  20.2360557
  29.9866940  53.6614648  20.3889951  28.8152596  53.3692896  19.4756196
  37.4111877  51.3696115   8.5208464  37.6871721  51.2552709   9.4302338
  36.5416375  50.9713599   8.4820637  37.3152308  37.3932880  15.5613213
  36.4015388  37.6237107  15.7295420  37.7445410  37.4771324  16.4127245
  37.0858767  45.5822772  18.0613107  36.4330217  45.8298680  17.4065560
  37.4639147  44.7686910  17.7275584  34.0465941  55.6182465  12.1641277
  34.2288335  54.8004121  12.6269030  34.8698927  55.8350158  11.7266167
  34.3808106  54.5450651   9.4256326  34.9095873  54.0343105   8.8126488
  34.6436326  54.2293181  10.2901859  33.1346340  46.3242583  24.5479144
  32.4586977  46.2236713  25.2181519  33.9573974  46.1681797  25.0115141
  24.8825199  52.5614520  17.1691659  25.4678636  51.8158208  17.3019564
  24.6850037  52.8718477  18.0528323  27.7363854  55.5965767  12.1854102
  27.0674229  56.0811895  11.7018142  27.5976724  55.8434988  13.0997480
  19.4742854  45.1320120  15.8896103  19.5126953  44.5983711  16.6833221
  18.9683146  44.6055326  15.2707080  31.8769123  57.6309511  18.7836760
  32.4287431  57.7941132  19.5485845  32.2175316  58.2213949  18.1116785
  26.8533616  39.9784661  19.3858645  26.9174942  40.8399491  18.9736043
  26.7900736  39.3658662  18.6531003  26.3285888  42.0507793  23.0331679
  26.9557927  41.6684870  23.6469203  25.4713807  41.8321995  23.3987372
  36.7279997  52.4570768  24.6385415  37.2719901  53.0700726  24.1440369
  36.1466842  53.0150347  25.1552428  23.1051431  43.8584222   8.9650034
  23.4004872  42.9494901   8.9117088  22.2039467  43.8371962   8.6431036
  35.0137510  55.5791486  15.7700442  34.8888649  54.7781226  15.2611388
  35.6716601  56.0737680  15.2814412  26.6345678  41.9340219  14.9477582
  25.9132264  42.5476186  14.8085056  27.4238934  42.4697984  14.8694228
  37.0772418  53.3800506  17.3979992  36.1302754  53.2605858  17.3258319
  37.4255191  52.4923004  17.4806254  29.4371992  39.2694645  21.2218234
  29.9606394  39.5156942  21.9844544  29.2184325  40.1014680  20.8021372
  24.8339273  41.5398320   9.0889359  24.5051979  40.6595699   8.9064465
  25.1878643  41.4845989   9.9765748  34.0818852  53.1753223  13.5984345
  33.9343814  52.2469930  13.7791915  34.9072345  53.1973313  13.1141420
  27.9481096  41.8271290   9.4564837  28.2877168  42.3557211   8.7343445
  28.3953216  42.1651696  10.2323403  37.6852973  53.9981781  14.6849217
  38.6099521  53.7924643  14.5473668  37.5168277  53.7498182  15.5938559
  30.6424537  40.2108340  18.9067905  30.3021357  39.4116153  19.3088585
  29.9363543  40.5110051  18.3344738  31.2941009  37.2957653  17.3595228
  32.1167078  36.8218131  17.2374118  31.5379072  38.0748137  17.8593914
  29.9349243  40.3245911   7.6558129  30.6557606  40.7027164   7.1521846
  29.3114547  41.0434788   7.7593107  34.0780366  41.0291060   8.5916462
  34.2943980  41.9115698   8.2905290  33.5974433  40.6377274   7.8622104
  28.8179587  43.9876773  15.1687206  28.6724168  44.3017076  16.0611488
  28.3404791  44.6061674  14.6158105  30.6775970  40.9779321  15.2168096
  30.6637539  40.0820415  14.8800394  31.3948398  40.9849985  15.8506382
  32.5302101  41.4116662  17.2621223  32.2719879  42.3333732  17.2605554
  31.9987141  41.0147096  17.9521688  37.4748290  54.5167449  10.0411309
  37.6485167  53.9513871   9.2885161  37.9677181  55.3168344   9.8590799
  23.2925249  46.5282118  18.1074868  22.7478718  47.3041926  18.2395142
  24.1704599  46.8752922  17.9493989  30.0812866  39.8593702  10.4855666
  30.2028777  38.9310348  10.6846554  29.7914909  39.8732388   9.5733982
  32.9504057  37.5448612  13.6222386  32.9725753  37.6087945  12.6674365
  33.3672116  36.7053121  13.8162892  43.3287681  47.2803872  11.6601609
  43.7718827  46.5311197  11.2620732  42.4514191  47.2714008  11.2775341
  38.4623462  53.8334213   7.1408207  39.1574367  54.4540906   7.3595522
  38.8046612  52.9829564   7.4160585  24.0791271  45.6552014  21.0005024
  23.3373007  45.8034649  21.5869655  23.7584016  45.9160280  20.1371774
  40.3614885  51.2833919   8.6695538  40.8866209  51.6221191   7.9444858
  40.2737238  50.3480934   8.4858672  32.0234934  55.1967992  20.7985414
  32.3322060  54.9517139  21.6708114  32.8210416  55.4014631  20.3104285
  32.0455546  57.3505902  13.0290791  31.6060536  56.8582281  13.7223648
  32.7963663  56.8078870  12.7882866  24.5247885  53.5417443  13.0315419
  25.3505905  53.2421215  12.6514063  24.1741937  52.7725065  13.4805208
  29.4929418  52.8943911  15.1013093  28.8709427  52.2314616  14.8015321
  30.1634285  52.9205043  14.4186740  22.7256490  51.4603769  13.9904353
  21.8888398  51.0325944  13.8088354  22.6980136  51.6536213  14.9275144
  29.5653946  41.3725699  24.6945599  29.6142101  42.2487822  24.3123368
  30.1076460  40.8303092  24.1217242  40.0508791  51.9166822  23.9746736
  39.2604335  51.8990961  23.4351235  39.8142146  52.4555116  24.7295772
  40.1706666  48.7659289  21.2879464  40.2204671  48.6009296  22.2294987
  40.0620590  47.8986548  20.8977345  29.0542925  51.4447834   8.5771553
  29.2031045  52.1283299   7.9238226  29.8609369  51.4252924   9.0921009
  37.4610429  44.7490217  22.6038771  38.3620292  44.6096682  22.3122769
  37.5358403  44.9144672  23.5436948  31.7953234  42.1257071  21.4491957
  30.9256544  42.4190637  21.1774546  32.0312715  42.7097516  22.1699221
  41.6724863  51.1856230  21.5321486  41.3809672  51.5486211  22.3684947
  41.0596995  50.4723238  21.3534818  42.8720546  48.7509110  14.0524056
  43.7067437  49.1898914  14.2161616  43.0079674  48.2747763  13.2332302
  39.9212051  46.3088845  20.0001544  40.3966173  46.5016491  19.1920395
  38.9977617  46.3648031  19.7544928  26.8095558  47.4713012   9.5832622
  26.5641600  46.5675342   9.7812832  26.9791473  47.4730162   8.6412100
  34.4992268  38.3436688  18.9657378  35.0174212  39.0797715  18.6403866
  34.1447401  38.6500682  19.8004137  34.7504862  34.7636971  14.4858274
  35.0306616  34.0960160  15.1118701  35.5355469  34.9566067  13.9732938
  32.5538331  53.9395965   6.0483301  31.9812298  54.5586152   5.5953773
  33.1271124  54.4895326   6.5823223  38.6213720  43.1854605  18.2329849
  39.5731143  43.2852703  18.2542073  38.4517171  42.3932873  18.7427934
  36.6428100  40.2710188  18.4189250  36.0478032  40.5515201  17.7235739
  36.3577797  40.7604089  19.1905991  35.7735590  54.2233115   7.1791883
  36.7066264  54.1578677   7.3824758  35.6858803  55.0589382   6.7206416
  38.4023607  53.5398985   4.1395830  38.3237239  53.2058849   5.0331588
  39.2233274  54.0320753   4.1387303  41.1001798  46.4060725  17.3472149
  41.0678118  45.4676725  17.5331833  41.7102422  46.4844761  16.6137974
  32.9385129  45.2756778   3.3899353  33.8844234  45.1462986   3.4587771
  32.5599374  44.5371439   3.8668781  41.2496287  43.1971768  17.3930432
  40.7335335  42.4130225  17.2060361  42.1336235  42.8690485  17.5576952
  38.9107014  36.9412784  13.3526245  38.7131835  36.6327872  14.2369577
  39.5206719  37.6674422  13.4824175  46.9178348  47.4676731  16.4878186
  47.6481737  47.2062020  17.0485889  46.3085294  46.7305453  16.5280254
  44.9993645  45.6084594  17.0852637  44.2726809  45.4740559  16.4769129
  44.5840932  45.9161423  17.8909355  32.8223822  49.3274524  24.8500010
  33.7426831  49.5053123  25.0440057  32.7873405  48.3830569  24.6979709
  22.0405987  44.5213117  13.7753285  21.7208771  43.6678426  13.4827659
  21.4939415  44.7361695  14.5311252  25.8185894  47.2375558  17.4922791
  26.0371904  48.1692666  17.5110825  26.2311668  46.8783533  18.2777595
  32.7390112  37.7443644   9.4798480  31.9290840  37.3990729   9.8553726
  33.4274529  37.4351187  10.0686091  34.6680660  36.8221690  11.1022776
  35.2211699  37.2417144  11.7612799  34.9050747  35.8957439  11.1445732
  30.6913760  42.8108764  26.8825540  30.5910486  43.7603121  26.8137631
  30.4735302  42.4827003  26.0101610  21.9094247  48.1416029  15.7446406
  21.2157718  47.7269982  15.2316361  22.6567238  48.1836565  15.1479825
  38.0459467  38.9322216  10.6101441  37.4658136  39.5907020  10.2279493
  37.7795400  38.1099560  10.1988858  36.4963034  38.3327273  12.8122761
  36.9962812  38.4443808  12.0037080  37.1398642  38.0288326  13.4523569
  30.5545030  46.2405903  25.6990602  30.0712111  47.0406263  25.9054491
  30.6405969  46.2513848  24.7458046  23.8230989  48.0734283  13.6212421
  23.8001677  48.1721970  12.6694304  24.1331626  48.9199433  13.9429587
  26.4818367  50.1310438  17.7359036  27.4361621  50.0994380  17.6688967
  26.2830891  49.6701061  18.5509262  27.0717749  48.7011554  20.3029833
  27.8910638  49.1955632  20.3264671  27.3454557  47.7843522  20.2747401
  36.8284345  41.0922306   9.6657789  35.9410200  41.3771957   9.4477984
  37.2438334  40.9316069   8.8185066  40.1798882  41.1168827  13.3812128
  40.9559272  41.6065279  13.6536745  39.4547016  41.5426881  13.8383998
  42.6171440  41.8296446  14.4386069  43.2115931  41.5892182  13.7279377
  42.6898024  41.1103577  15.0659605  24.8368596  55.6730057  14.7529234
  24.7023064  54.9130458  14.1867232  24.4200658  56.3970957  14.2858022
  35.9727559  50.8566981   3.7605809  36.6763409  51.0616983   4.3763464
  35.2490208  51.4243743   4.0254892  36.8025369  46.6076842   9.8808079
  36.7460571  47.0645393   9.0415711  37.3553712  45.8467527   9.7030922
  40.6130175  42.3966574  10.7058198  40.3567109  41.9963209  11.5366406
  39.9883043  43.1110368  10.5808338  44.9242513  45.1362647  13.2129490
  44.3642071  45.2055836  13.9861052  44.3186016  44.9603632  12.4928986
  27.9937722  56.5699374  14.9647676  27.8770106  57.5144807  14.8626366
  27.1730168  56.2672936  15.3533475  37.8814256  51.2949510   5.8104269
  38.7159860  50.8630708   5.6281744  37.7198599  51.1231524   6.7381163
  37.5360148  47.7981623   7.1760608  37.4808952  47.6325895   6.2349052
  36.9106204  48.5057656   7.3322798  22.3252663  43.0349688  21.0022030
  22.9711527  42.5248642  21.4909256  22.1169815  43.7718369  21.5765456
  34.8506056  50.1030535  26.5014171  35.7197215  50.2771187  26.1400806
  34.3712807  50.9224952  26.3789900  29.0192236  57.2227636  18.1803605
  29.9219483  57.2551246  18.4970100  28.7929606  56.2928087  18.1949940
  30.7745838  55.9758623  14.8413683  29.8241469  55.9760484  14.7278056
  31.0778324  55.2291357  14.3249718  34.6608393  33.8932509  11.0091863
  33.8940789  33.3390996  11.1548546  35.0719098  33.9654378  11.8706015
  26.6650154  40.1817305  25.0997045  27.5281616  39.8254109  25.3100369
  26.0915565  39.8431199  25.7872449  46.5098531  61.8119161  15.9059446
  47.1476941  61.6925908  15.2022786  46.3919374  62.7600005  15.9647398
  43.3188238  61.7646589  15.8420970  42.9806749  61.6487654  14.9541505
  44.1878006  61.3637754  15.8221976  39.1775053  63.6182066  11.8317861
  38.6139918  63.5272002  11.0634149  39.0627448  62.7981970  12.3120354
  43.8008021  62.9181441  21.8007176  43.7896661  62.5234239  20.9287679
  43.9628660  62.1847513  22.3940947  36.7239485  65.1133257  14.6702082
  37.5160777  64.7724082  14.2548381  36.9636135  65.2228232  15.5904235
  44.7574612  67.2853033   7.1432326  44.1062592  67.8707114   6.7566340
  45.5518975  67.8159228   7.2027364  38.6830239  64.3742170   7.5419461
  39.4561115  63.8271157   7.4032336  39.0355638  65.2386420   7.7533922
  40.5215282  65.7018553  20.7486360  40.2305148  66.6064183  20.6333026
  41.1572266  65.7435080  21.4630429  41.4471489  63.0795401  17.3387719
  42.0435061  62.8551424  16.6244682  41.5046460  62.3380147  17.9413167
  41.0196517  60.5334836   5.1737910  41.2722038  60.0116358   4.4121373
  40.0821076  60.3700982   5.2764594  46.0639800  59.5370615  12.9812654
  46.8502889  59.1190038  12.6303071  46.3278504  60.4416707  13.1494302
  46.2349877  64.9743465   7.6801310  45.5995710  65.0478092   8.3922215
  45.9047284  65.5637064   7.0020390  51.4648227  59.4745848  13.8845632
  52.1973399  58.9045065  14.1183462  50.7087583  59.0867448  14.3252138
  40.7392806  62.4362942   7.3762285  40.6229064  61.7607846   8.0443370
  40.8495066  61.9495316   6.5594438  43.0824347  61.8973090  11.0808975
  42.7182554  61.3703711  11.7921896  43.9391463  61.5071559  10.9075460
  48.9873647  53.1867422  18.3440241  48.6556972  54.0562833  18.1201456
  48.3919261  52.8703706  19.0234271  42.7229834  56.9262989   6.0770323
  42.8904236  57.7943226   6.4440794  42.5327003  57.0890271   5.1531612
  45.4805167  65.3879968  17.7436154  45.1805890  66.2905007  17.6351961
  45.1356226  65.1212151  18.5957306  38.9317648  61.8393765  13.7772858
  38.0068145  61.7069979  13.9850550  39.1802062  62.6187984  14.2742800
  48.8802311  57.9062508  15.4233591  47.9719188  57.8377917  15.1292352
  48.8289906  58.3834453  16.2515416  42.7019055  59.3820647   7.0616990
  42.5818680  59.8277697   7.9002470  42.0071643  59.7305964   6.5030528
  36.2926459  61.4827039  14.6116647  36.4218841  61.7361517  15.5256059
  35.6123911  62.0754747  14.2921302  40.4625947  72.1524288  10.7107121
  40.3849976  73.1032114  10.7895602  39.8587590  71.8070161  11.3682048
  42.9543176  59.3252154  23.3668488  42.1776511  59.8846074  23.3571353
  43.5933740  59.8108937  23.8883358  50.7463957  56.1078947  17.2011465
  50.1038337  56.4011480  16.5551259  50.2418886  55.9931867  18.0064661
  48.4004121  59.8542120   7.8897324  49.3121977  60.0869507   7.7145022
  47.8913768  60.4379164   7.3272403  41.2089549  62.1337607  22.9286455
  41.9504233  62.6722651  22.6521279  40.5026534  62.7603896  23.0858007
  46.6844888  64.2766748  21.5258617  47.0928244  63.8349158  20.7813249
  45.9622150  63.7019375  21.7792809  43.0375958  59.2139355  18.8992174
  43.8837154  59.6378768  19.0426823  42.9774596  58.5572979  19.5930737
  47.0073703  64.8367938  15.2810905  46.3782565  65.0013652  14.5786973
  46.6199365  65.2509548  16.0521869  50.8862935  65.7722376  12.6355269
  50.2013973  66.1521278  12.0852303  50.9706784  66.3817703  13.3687217
  46.1875404  56.8743723  20.5573347  45.9436336  57.6285783  20.0207623
  46.4635334  57.2529070  21.3920594  48.1413867  63.4182335  19.2350613
  48.3530762  64.0614095  18.5584994  48.0943615  62.5844652  18.7672543
  45.7440095  56.0300156  16.1387185  44.8824575  56.3281409  16.4303922
  45.7702530  56.2470555  15.2068218  42.5601665  64.5742346  12.5460991
  43.0240010  64.8530049  11.7565613  42.2958463  63.6725791  12.3634081
  39.4525746  64.1213828  15.4840754  40.0227103  64.5501096  14.8458238
  40.0433858  63.8396413  16.1824939  41.4970551  60.6965499   9.3550556
  42.1994594  61.1486542   9.8224482  41.1651179  60.0549318   9.9830449
  39.9450912  59.2877255  23.7301765  39.3149573  59.9693536  23.9637162
  39.8387000  59.1760337  22.7854903  35.2395885  58.9549051  14.6567689
  34.4494939  59.2106580  14.1807800  35.7307132  59.7697389  14.7619730
  49.2559694  66.2954291  17.4072970  50.0777138  65.8934478  17.1255652
  49.2522097  66.1922525  18.3589086  37.1910630  59.3193631  11.6151166
  36.3941794  59.4312325  12.1334662  36.9636223  59.6580283  10.7492056
  43.0216298  65.8438334  19.5633681  43.0860730  66.3058741  20.3991852
  42.3127222  65.2135699  19.6915990  33.5233588  59.2079542  17.0882680
  33.7741626  60.0926552  17.3540256  34.0593136  59.0284143  16.3157772
  57.3465688  62.6393039  13.7557942  56.5929396  62.0700437  13.6001946
  57.4813229  62.6055704  14.7028576  42.7364316  67.5106441   9.4312661
  42.6009990  68.3557977   9.8597509  43.2774128  67.7125719   8.6678595
  39.2231655  53.5898021  26.0927016  38.8298601  53.0364220  26.7674660
  40.0397796  53.9008600  26.4833534  36.1893713  65.0281879  10.0040586
  36.7018234  65.8225130  10.1546151  36.8416426  64.3308170   9.9374187
  37.9988598  68.1447636  12.0863339  38.1755226  69.0665600  11.8984323
  38.7945431  67.8306055  12.5157719  42.1399616  55.0055900  23.6847273
  42.8809330  55.6063054  23.6051735  42.3717539  54.2633538  23.1265315
  37.2840954  60.1912268  21.9625502  37.1694469  59.2897525  22.2632601
  36.4285472  60.4375964  21.6110319  44.3632792  68.1330008  23.5613003
  43.9196646  67.3466387  23.2433908  45.0250006  68.3209158  22.8956894
  39.1219913  69.6625810  18.0873682  39.6727338  69.5342873  17.3150675
  38.2831389  69.9620699  17.7368574  46.4614030  68.4132808  21.5894404
  46.4432505  69.2341689  21.0974673  47.3833950  68.2886883  21.8144545
  42.9187084  65.9276937  22.4317913  43.4515421  65.1665226  22.2017221
  42.3901165  65.6350589  23.1742067  46.0856779  51.0337003  17.9611554
  45.7421049  51.9238645  17.8850665  46.4535742  50.8438661  17.0981139
  34.1542630  63.3570534  10.7800157  34.9917852  63.7667542  10.5633864
  34.3320897  62.4169976  10.7500350  46.0507062  61.0245614   6.4683990
  45.5353685  61.7950219   6.7072377  45.7784370  60.3510751   7.0917051
  43.6354173  55.8695315  11.5269228  42.7795769  55.4802166  11.3474867
  44.0481125  55.9487276  10.6669013  45.1653320  53.4041658  15.9260788
  44.6618115  53.3671794  15.1128593  45.4583926  54.3134401  15.9857444
  41.4096205  53.4880388  14.9326969  42.2749202  53.2923197  14.5732859
  41.4773714  53.2590740  15.8596326  51.0241336  63.7777969   8.4037163
  50.2470779  63.4389129   7.9592325  51.7032817  63.7830592   7.7292128
  45.8393365  58.8972707   8.2943771  45.5343501  59.2118856   9.1453914
  46.7923807  58.9754126   8.3371104  44.2839797  65.0562930   9.9436725
  43.7561158  64.3215689   9.6309962  43.7827300  65.8337606   9.6976693
  49.2632643  63.2511950  15.0603771  48.6056317  63.9411212  15.1483900
  50.0673042  63.6408382  15.4037757  39.0158525  55.7182596  12.3043336
  39.5902276  55.4957778  11.5716529  39.6029507  55.7871291  13.0571937
  48.0738102  61.6056323  13.1107713  48.5869983  62.2386315  13.6129422
  48.7239326  61.0057519  12.7451073  39.3428112  57.7487057   6.3239221
  38.5065424  58.0861744   6.6448496  39.2032881  57.6136037   5.3866358
  41.3181192  52.5923845  11.0318406  40.6645605  52.2772862  10.4075020
  41.2761666  51.9699585  11.7578229  42.4292397  62.8743140   2.9471698
  41.5219459  62.6432394   3.1462847  42.9263429  62.0780759   3.1345679
  45.3360476  71.5840647   5.8668384  44.6622175  71.8872344   6.4753342
  45.7226298  72.3869728   5.5173841  44.5518933  59.0805779  15.3566053
  43.6341494  59.3020726  15.1987741  44.9679076  59.1552089  14.4977761
  45.3353980  60.4797194  10.4868733  46.0825799  60.9918591  10.1775856
  45.6045570  60.1581247  11.3473127  43.6080631  62.9755735   7.4695688
  42.6991850  62.6914768   7.5668158  43.6375714  63.3954814   6.6098995
  48.8399898  66.5862324  11.2386855  48.3862225  65.7453234  11.2952046
  48.2093865  67.2223723  11.5761636  47.7832817  57.5154311  12.4687523
  47.0455574  57.0031697  12.7997765  48.0359591  57.0754692  11.6570800
  47.2832837  68.4238821  12.1736673  47.5755812  68.9843878  11.4549039
  47.7931458  68.7167382  12.9289833  47.8844445  50.2930563  13.0629292
  48.1903322  49.4327926  12.7755207  48.6097050  50.8848183  12.8628286
  34.1768801  60.6961249  11.4510890  33.9793201  60.1030610  10.7261957
  33.6215465  60.3913459  12.1686829  42.1565525  60.5884356  13.5705483
  42.2114134  59.6358192  13.4947960  41.3456727  60.7443795  14.0546782
  43.3056718  64.5164479   4.8083766  42.8676148  63.8000338   4.3489404
  44.0467159  64.7440593   4.2468858  40.0957884  59.2061415  11.3295862
  39.2825750  59.5055586  11.7361054  40.5916879  58.8117104  12.0470344
  42.2466462  69.2019172  13.2630127  42.2042641  69.4280019  12.3338659
  43.1629161  68.9682547  13.4115928  45.6932096  59.6703240  20.1610756
  46.0481484  59.8974713  21.0205222  46.3404227  60.0021617  19.5388011
  51.4229833  62.7921676  10.8660085  51.2847732  62.9823272   9.9381274
  51.0666052  63.5541058  11.3228136  39.5871959  56.7779771  16.9457097
  40.2271339  56.6368530  16.2480060  38.7549490  56.4914284  16.5695699
  51.4499213  64.8598203  15.8771356  51.8835719  64.7673492  16.7254410
  52.1630793  64.8355703  15.2391372  40.3632263  66.0782201  13.0592089
  41.1572862  65.5832521  12.8574664  39.6523956  65.5500064  12.6959795
  45.1827108  68.4600297  17.4104457  45.2364130  69.0291233  18.1782173
  44.3141889  68.6302182  17.0458494  36.6715027  60.2225283   9.1351842
  35.7412615  60.1609738   9.3521804  36.7672499  59.7001236   8.3388483
  36.5900576  56.7480096  11.7230084  36.8507393  57.6625429  11.6139244
  37.4117748  56.2804538  11.8726697  38.0625501  58.1617853  18.8928908
  38.7348554  57.9535215  18.2441557  37.2355288  57.9639939  18.4534141
  52.3114762  64.9021903  18.4104242  52.5050652  65.8067714  18.6563517
  52.2115380  64.4429322  19.2442827  43.9651073  54.7879794  20.9094569
  43.3178988  55.4869744  20.8159046  44.7352088  55.2215938  21.2770817
  47.3729871  65.0528646  23.9845122  47.2215377  64.8239198  23.0675206
  47.3634550  66.0099248  23.9976467  44.1415207  62.6260559  18.9691389
  45.0707267  62.7771718  18.7960356  43.7206237  62.7144580  18.1140035
  42.9403539  66.6511223  16.7389927  42.8014625  66.2830008  17.6115865
  42.1518135  67.1658863  16.5673884  43.5351691  71.7520320   8.0815463
  43.7103447  71.2808363   8.8961086  42.8484479  72.3786086   8.3096724
  44.4908754  66.0292826  14.1278764  44.1558587  65.9893596  15.0236414
  43.9912700  65.3637542  13.6549175  38.4652998  61.4360456  19.6531345
  38.3272796  60.7040695  20.2542885  39.3757922  61.3469356  19.3715533
  47.4267946  63.3748860   4.4015824  46.8097117  62.6495688   4.3048877
  46.9584434  64.1358221   4.0582898  41.0935299  61.1480415  19.1415025
  41.8034917  60.5073607  19.1001644  41.0504607  61.3993310  20.0641206
  49.0822078  68.0847769  22.0621604  49.0234624  67.4006989  21.3952187
  49.4841596  68.8266759  21.6102230  39.8064233  58.1345633  20.9610665
  39.2701590  57.6836372  21.6132261  39.2180941  58.2691542  20.2181129
  38.1012776  74.9009682  14.8555323  38.3409375  75.5328207  15.5334342
  37.2581973  74.5497723  15.1420682  39.2166492  57.5934285   3.5237128
  38.3395958  57.4723085   3.1599375  39.6924245  56.8020363   3.2716017
  49.0839485  66.0487353  20.2935584  48.1966264  65.7113274  20.4161983
  49.6538036  65.3170384  20.5304349  30.7368632  62.3811444  13.6178635
  31.4239672  62.0673174  13.0299651  30.5816761  63.2852809  13.3445887
  35.5403354  57.2701641  18.0463659  35.4561543  56.6627310  17.3114069
  34.7186061  57.7610659  18.0473155  42.6140638  70.7088805  17.2596827
  42.5410810  71.5143776  17.7716132  42.1718031  70.9080771  16.4344849
  42.4030418  69.9460575  10.7699649  41.6197940  70.4882255  10.8637873
  43.1023163  70.4634555  11.1693890  45.7127068  55.7555204  13.4133854
  46.2095768  55.0025167  13.0934924  44.9414049  55.7919521  12.8477063
  53.5656825  61.4595570  15.0552146  53.5546702  62.3420285  14.6846079
  52.6974205  61.1067121  14.8606683  45.0739322  70.6075639  19.4154986
  45.7867294  71.2423104  19.3430887  44.5829350  70.7039505  18.5994988
  46.7956849  64.5126892  10.9872278  45.8613127  64.6328354  10.8176982
  46.9733517  63.6099358  10.7232287  42.2962037  57.8972587  13.1405539
  41.9259824  57.3443628  13.8286444  42.7921129  57.2930721  12.5880539
  50.1829400  60.3544211  11.5222312  50.6489852  61.1872203  11.4482614
  50.6336901  59.8889192  12.2267570  40.1251235  68.3570082  20.2360557
  40.8260695  68.9906565  20.3889951  39.6546350  68.6984814  19.4756196
  48.2505631  66.6988032   8.5208464  48.5265475  66.5844627   9.4302338
  47.3810130  66.3005517   8.4820637  48.1546063  52.7224798  15.5613213
  47.2409143  52.9529025  15.7295420  48.5839164  52.8063242  16.4127245
  47.9252521  60.9114690  18.0613107  47.2723972  61.1590597  17.4065560
  48.3032901  60.0978828  17.7275584  44.8859695  70.9474383  12.1641277
  45.0682090  70.1296039  12.6269030  45.7092681  71.1642075  11.7266167
  45.2201861  69.8742568   9.4256326  45.7489627  69.3635023   8.8126488
  45.4830080  69.5585098  10.2901859  43.9740094  61.6534501  24.5479144
  43.2980731  61.5528630  25.2181519  44.7967728  61.4973715  25.0115141
  35.7218953  67.8906437  17.1691659  36.3072390  67.1450125  17.3019564
  35.5243792  68.2010394  18.0528323  38.5757609  70.9257685  12.1854102
  37.9067984  71.4103812  11.7018142  38.4370478  71.1726905  13.0997480
  30.3136608  60.4612038  15.8896103  30.3520708  59.9275628  16.6833221
  29.8076901  59.9347243  15.2707080  42.7162877  72.9601428  18.7836760
  43.2681185  73.1233050  19.5485845  43.0569071  73.5505866  18.1116785
  37.6927370  55.3076578  19.3858645  37.7568697  56.1691409  18.9736043
  37.6294491  54.6950580  18.6531003  37.1679643  57.3799711  23.0331679
  37.7951682  56.9976788  23.6469203  36.3107562  57.1613913  23.3987372
  47.5673752  67.7862686  24.6385415  48.1113655  68.3992644  24.1440369
  46.9860596  68.3442264  25.1552428  33.9445186  59.1876140   8.9650034
  34.2398627  58.2786818   8.9117088  33.0433221  59.1663879   8.6431036
  45.8531264  70.9083404  15.7700442  45.7282404  70.1073144  15.2611388
  46.5110356  71.4029597  15.2814412  37.4739433  57.2632136  14.9477582
  36.7526018  57.8768104  14.8085056  38.2632688  57.7989901  14.8694228
  47.9166173  68.7092424  17.3979992  46.9696508  68.5897775  17.3258319
  48.2648946  67.8214922  17.4806254  40.2765746  54.5986563  21.2218234
  40.8000148  54.8448859  21.9844544  40.0578079  55.4306598  20.8021372
  35.6733027  56.8690237   9.0889359  35.3445733  55.9887616   8.9064465
  36.0272398  56.8137906   9.9765748  44.9212606  68.5045140  13.5984345
  44.7737569  67.5761848  13.7791915  45.7466100  68.5265231  13.1141420
  38.7874850  57.1563207   9.4564837  39.1270923  57.6849129   8.7343445
  39.2346971  57.4943613  10.2323403  48.5246728  69.3273699  14.6849217
  49.4493275  69.1216560  14.5473668  48.3562031  69.0790100  15.5938559
  41.4818291  55.5400258  18.9067905  41.1415112  54.7408071  19.3088585
  40.7757298  55.8401969  18.3344738  42.1334763  52.6249570  17.3595228
  42.9560832  52.1510049  17.2374118  42.3772827  53.4040054  17.8593914
  40.7742998  55.6537829   7.6558129  41.4951360  56.0319082   7.1521846
  40.1508302  56.3726706   7.7593107  44.9174120  56.3582978   8.5916462
  45.1337735  57.2407616   8.2905290  44.4368188  55.9669191   7.8622104
  39.6573342  59.3168691  15.1687206  39.5117923  59.6308994  16.0611488
  39.1798545  59.9353591  14.6158105  41.5169725  56.3071239  15.2168096
  41.5031293  55.4112332  14.8800394  42.2342153  56.3141903  15.8506382
  43.3695855  56.7408579  17.2621223  43.1113633  57.6625650  17.2605554
  42.8380896  56.3439014  17.9521688  48.3142044  69.8459366  10.0411309
  48.4878922  69.2805789   9.2885161  48.8070935  70.6460261   9.8590799
  34.1319004  61.8574035  18.1074868  33.5872472  62.6333843  18.2395142
  35.0098354  62.2044840  17.9493989  40.9206621  55.1885619  10.4855666
  41.0422532  54.2602266  10.6846554  40.6308663  55.2024305   9.5733982
  43.7897811  52.8740530  13.6222386  43.8119508  52.9379863  12.6674365
  44.2065870  52.0345038  13.8162892  54.1681435  62.6095789  11.6601609
  54.6112581  61.8603115  11.2620732  53.2907946  62.6005926  11.2775341
  49.3017217  69.1626131   7.1408207  49.9968121  69.7832823   7.3595522
  49.6440367  68.3121482   7.4160585  34.9185026  60.9843932  21.0005024
  34.1766762  61.1326567  21.5869655  34.5977770  61.2452197  20.1371774
  51.2008640  66.6125836   8.6695538  51.7259964  66.9513109   7.9444858
  51.1130992  65.6772852   8.4858672  42.8628688  70.5259910  20.7985414
  43.1715815  70.2809057  21.6708114  43.6604171  70.7306548  20.3104285
  42.8849301  72.6797820  13.0290791  42.4454291  72.1874198  13.7223648
  43.6357418  72.1370787  12.7882866  35.3641640  68.8709360  13.0315419
  36.1899659  68.5713132  12.6514063  35.0135692  68.1016983  13.4805208
  40.3323173  68.2235829  15.1013093  39.7103182  67.5606534  14.8015321
  41.0028040  68.2496961  14.4186740  33.5650245  66.7895687  13.9904353
  32.7282153  66.3617861  13.8088354  33.5373890  66.9828130  14.9275144
  40.4047700  56.7017617  24.6945599  40.4535856  57.5779740  24.3123368
  40.9470214  56.1595010  24.1217242  50.8902546  67.2458740  23.9746736
  50.0998090  67.2282879  23.4351235  50.6535900  67.7847034  24.7295772
  51.0100421  64.0951206  21.2879464  51.0598426  63.9301214  22.2294987
  50.9014344  63.2278465  20.8977345  39.8936680  66.7739752   8.5771553
  40.0424800  67.4575216   7.9238226  40.7003123  66.7544842   9.0921009
  48.3004183  60.0782134  22.6038771  49.2014046  59.9388599  22.3122769
  48.3752158  60.2436589  23.5436948  42.6346989  57.4548989  21.4491957
  41.7650298  57.7482555  21.1774546  42.8706469  58.0389434  22.1699221
  52.5118618  66.5148148  21.5321486  52.2203426  66.8778128  22.3684947
  51.8990749  65.8015156  21.3534818  53.7114300  64.0801028  14.0524056
  54.5461191  64.5190832  14.2161616  53.8473429  63.6039681  13.2332302
  50.7605806  61.6380762  20.0001544  51.2359928  61.8308409  19.1920395
  49.8371371  61.6939948  19.7544928  37.6489313  62.8004930   9.5832622
  37.4035355  61.8967260   9.7812832  37.8185227  62.8022080   8.6412100
  45.3386022  53.6728606  18.9657378  45.8567966  54.4089633  18.6403866
  44.9841155  53.9792599  19.8004137  36.9184960  58.5333287   7.0818784
  36.2254205  58.6077642   6.4258820  36.6736712  57.7693631   7.6040301
  45.5898617  50.0928889  14.4858274  45.8700370  49.4252078  15.1118701
  46.3749224  50.2857984  13.9732938  43.3932085  69.2687882   6.0483301
  42.8206052  69.8878070   5.5953773  43.9664879  69.8187244   6.5823223
  49.4607475  58.5146523  18.2329849  50.4124898  58.6144620  18.2542073
  49.2910925  57.7224791  18.7427934  47.4821854  55.6002106  18.4189250
  46.8871787  55.8807118  17.7235739  47.1971551  56.0896007  19.1905991
  46.6129345  69.5525033   7.1791883  47.5460018  69.4870594   7.3824758
  46.5252558  70.3881299   6.7206416  49.2417362  68.8690903   4.1395830
  49.1630993  68.5350767   5.0331588  50.0627028  69.3612671   4.1387303
  51.9395553  61.7352642  17.3472149  51.9071873  60.7968643  17.5331833
  52.5496176  61.8136679  16.6137974  43.7778884  60.6048695   3.3899353
  44.7237988  60.4754903   3.4587771  43.3993129  59.8663357   3.8668781
  52.0890041  58.5263686  17.3930432  51.5729090  57.7422142  17.2060361
  52.9729990  58.1982402  17.5576952  49.7500768  52.2704701  13.3526245
  49.5525589  51.9619789  14.2369577  50.3600474  52.9966340  13.4824175
  57.7572103  62.7968649  16.4878186  58.4875491  62.5353937  17.0485889
  57.1479048  62.0597371  16.5280254  55.8387400  60.9376512  17.0852637
  55.1120563  60.8032477  16.4769129  55.4234687  61.2453340  17.8909355
  43.6617576  64.6566441  24.8500010  44.5820586  64.8345040  25.0440057
  43.6267159  63.7122487  24.6979709  41.9621801  58.5298672   3.3254238
  41.0553256  58.2331784   3.4016952  42.2397782  58.2328490   2.4588525
  32.8799741  59.8505035  13.7753285  32.5602526  58.9970343  13.4827659
  32.3333169  60.0653613  14.5311252  36.6579649  62.5667476  17.4922791
  36.8765658  63.4984584  17.5110825  37.0705423  62.2075450  18.2777595
  43.5783867  53.0735561   9.4798480  42.7684595  52.7282646   9.8553726
  44.2668283  52.7643105  10.0686091  45.5074415  52.1513608  11.1022776
  46.0605453  52.5709062  11.7612799  45.7444501  51.2249356  11.1445732
  41.5307514  58.1400682  26.8825540  41.4304241  59.0895039  26.8137631
  41.3129056  57.8118921  26.0101610  40.7320585  55.3885607   3.4666218
  41.5939749  55.7140505   3.7262035  40.9170930  54.6017103   2.9539283
  32.7488001  63.4707947  15.7446406  32.0551473  63.0561899  15.2316361
  33.4960992  63.5128483  15.1479825  48.8853222  54.2614133  10.6101441
  48.3051891  54.9198937  10.2279493  48.6189155  53.4391478  10.1988858
  47.3356788  53.6619191  12.8122761  47.8356567  53.7735726  12.0037080
  47.9792396  53.3580244  13.4523569  41.3938784  61.5697821  25.6990602
  40.9105866  62.3698181  25.9054491  41.4799723  61.5805765  24.7458046
  34.6624744  63.4026200  13.6212421  34.6395432  63.5013888  12.6694304
  34.9725380  64.2491351  13.9429587  37.3212122  65.4602355  17.7359036
  38.2755375  65.4286298  17.6688967  37.1224645  64.9992979  18.5509262
  37.9111504  64.0303471  20.3029833  38.7304393  64.5247550  20.3264671
  38.1848311  63.1135440  20.2747401  47.6678100  56.4214224   9.6657789
  46.7803955  56.7063874   9.4477984  48.0832089  56.2607987   8.8185066
  51.0192636  56.4460745  13.3812128  51.7953026  56.9357197  13.6536745
  50.2940770  56.8718799  13.8383998  53.4565195  57.1588364  14.4386069
  54.0509685  56.9184100  13.7279377  53.5291778  56.4395494  15.0659605
  35.6762350  71.0021975  14.7529234  35.5416818  70.2422376  14.1867232
  35.2594413  71.7262875  14.2858022  46.8121313  66.1858898   3.7605809
  47.5157163  66.3908901   4.3763464  46.0883962  66.7535660   4.0254892
  47.6419124  61.9368760   9.8808079  47.5854325  62.3937311   9.0415711
  48.1947466  61.1759444   9.7030922  51.4523930  57.7258491  10.7058198
  51.1960864  57.3255127  11.5366406  50.8276798  58.4402285  10.5808338
  55.7636267  60.4654565  13.2129490  55.2035825  60.5347754  13.9861052
  55.1579771  60.2895549  12.4928986  38.8331476  71.8991292  14.9647676
  38.7163860  72.8436724  14.8626366  38.0123923  71.5964853  15.3533475
  48.7208011  66.6241428   5.8104269  49.5553615  66.1922626   5.6281744
  48.5592354  66.4523441   6.7381163  48.3753903  63.1273541   7.1760608
  48.3202707  62.9617812   6.2349052  47.7499958  63.8349574   7.3322798
  33.1646418  58.3641605  21.0022030  33.8105282  57.8540559  21.4909256
  32.9563569  59.1010287  21.5765456  45.6899810  65.4322453  26.5014171
  46.5590970  65.6063105  26.1400806  45.2106562  66.2516870  26.3789900
  41.6850028  52.6281650   6.7545927  41.6728698  53.5723490   6.9114197
  42.5773450  52.4451795   6.4605388  39.8585990  72.5519554  18.1803605
  40.7613237  72.5843164  18.4970100  39.6323360  71.6220005  18.1949940
  41.6139592  71.3050540  14.8413683  40.6635223  71.3052402  14.7278056
  41.9172079  70.5583275  14.3249718  45.5002148  49.2224426  11.0091863
  44.7334544  48.6682913  11.1548546  45.9112853  49.2946295  11.8706015
  37.5043909  55.5109222  25.0997045  38.3675370  55.1546027  25.3100369
  36.9309320  55.1723117  25.7872449  57.3492286  77.1411079  15.9059446
  57.9870696  77.0217826  15.2022786  57.2313129  78.0891923  15.9647398
  54.1581992  77.0938507  15.8420970  53.8200504  76.9779571  14.9541505
  55.0271760  76.6929672  15.8221976  50.0168808  78.9473983  11.8317861
  49.4533673  78.8563920  11.0634149  49.9021203  78.1273888  12.3120354
  54.6401775  78.2473358  21.8007176  54.6290416  77.8526157  20.9287679
  54.8022415  77.5139431  22.3940947  47.5633240  80.4425175  14.6702082
  48.3554532  80.1015999  14.2548381  47.8029890  80.5520150  15.5904235
  55.5968367  82.6144951   7.1432326  54.9456346  83.1999031   6.7566340
  56.3912729  83.1451146   7.2027364  49.5223994  79.7034088   7.5419461
  50.2954870  79.1563075   7.4032336  49.8749393  80.5678337   7.7533922
  51.3609036  81.0310470  20.7486360  51.0698902  81.9356101  20.6333026
  51.9966021  81.0726998  21.4630429  52.2865243  78.4087319  17.3387719
  52.8828815  78.1843341  16.6244682  52.3440215  77.6672064  17.9413167
  51.8590272  75.8626754   5.1737910  52.1115792  75.3408275   4.4121373
  50.9214831  75.6992900   5.2764594  56.9033554  74.8662533  12.9812654
  57.6896644  74.4481956  12.6303071  57.1672259  75.7708625  13.1494302
  57.0743632  80.3035383   7.6801310  56.4389465  80.3770009   8.3922215
  56.7441038  80.8928982   7.0020390  62.3041981  74.8037766  13.8845632
  63.0367153  74.2336983  14.1183462  61.5481337  74.4159366  14.3252138
  51.5786560  77.7654860   7.3762285  51.4622818  77.0899763   8.0443370
  51.6888820  77.2787234   6.5594438  53.9218101  77.2265007  11.0808975
  53.5576308  76.6995628  11.7921896  54.7785217  76.8363476  10.9075460
  59.8267402  68.5159340  18.3440241  59.4950727  69.3854751  18.1201456
  59.2313015  68.1995624  19.0234271  53.5623588  72.2554907   6.0770323
  53.7297991  73.1235143   6.4440794  53.3720757  72.4182189   5.1531612
  56.3198921  80.7171886  17.7436154  56.0199644  81.6196925  17.6351961
  55.9749981  80.4504069  18.5957306  49.7711403  77.1685683  13.7772858
  48.8461899  77.0361897  13.9850550  50.0195816  77.9479902  14.2742800
  59.7196065  73.2354426  15.4233591  58.8112942  73.1669834  15.1292352
  59.6683661  73.7126371  16.2515416  53.5412809  74.7112564   7.0616990
  53.4212434  75.1569615   7.9002470  52.8465397  75.0597882   6.5030528
  47.1320214  76.8118956  14.6116647  47.2612595  77.0653435  15.5256059
  46.4517665  77.4046664  14.2921302  51.3019701  87.4816206  10.7107121
  51.2243731  88.4324031  10.7895602  50.6981345  87.1362079  11.3682048
  53.7936931  74.6544072  23.3668488  53.0170265  75.2137992  23.3571353
  54.4327494  75.1400855  23.8883358  61.5857712  71.4370864  17.2011465
  60.9432092  71.7303398  16.5551259  61.0812640  71.3223785  18.0064661
  59.2397875  75.1834038   7.8897324  60.1515731  75.4161424   7.7145022
  58.7307522  75.7671082   7.3272403  52.0483303  77.4629525  22.9286455
  52.7897988  78.0014569  22.6521279  51.3420289  78.0895814  23.0858007
  57.5238643  79.6058665  21.5258617  57.9321999  79.1641076  20.7813249
  56.8015904  79.0311293  21.7792809  53.8769713  74.5431272  18.8992174
  54.7230908  74.9670686  19.0426823  53.8168351  73.8864896  19.5930737
  57.8467458  80.1659856  15.2810905  57.2176320  80.3305570  14.5786973
  57.4593120  80.5801466  16.0521869  61.7256689  81.1014294  12.6355269
  61.0407728  81.4813195  12.0852303  61.8100539  81.7109621  13.3687217
  57.0269158  72.2035641  20.5573347  56.7830090  72.9577701  20.0207623
  57.3029089  72.5820988  21.3920594  58.9807621  78.7474253  19.2350613
  59.1924516  79.3906013  18.5584994  58.9337369  77.9136569  18.7672543
  56.5833850  71.3592074  16.1387185  55.7218329  71.6573327  16.4303922
  56.6096285  71.5762472  15.2068218  53.3995419  79.9034264  12.5460991
  53.8633765  80.1821967  11.7565613  53.1352218  79.0017709  12.3634081
  50.2919500  79.4505746  15.4840754  50.8620858  79.8793014  14.8458238
  50.8827612  79.1688330  16.1824939  52.3364305  76.0257416   9.3550556
  53.0388349  76.4778460   9.8224482  52.0044934  75.3841235   9.9830449
  50.7844667  74.6169173  23.7301765  50.1543328  75.2985454  23.9637162
  50.6780755  74.5052255  22.7854903  46.0789639  74.2840969  14.6567689
  45.2888693  74.5398498  14.1807800  46.5700887  75.0989307  14.7619730
  60.0953449  81.6246208  17.4072970  60.9170893  81.2226396  17.1255652
  60.0915852  81.5214442  18.3589086  48.0304385  74.6485548  11.6151166
  47.2335548  74.7604243  12.1334662  47.8029977  74.9872201  10.7492056
  53.8610052  81.1730252  19.5633681  53.9254485  81.6350659  20.3991852
  53.1520976  80.5427617  19.6915990  44.3627342  74.5371460  17.0882680
  44.6135381  75.4218470  17.3540256  44.8986891  74.3576061  16.3157772
  68.1859442  77.9684957  13.7557942  67.4323150  77.3992355  13.6001946
  68.3206983  77.9347621  14.7028576  53.5758070  82.8398359   9.4312661
  53.4403745  83.6849895   9.8597509  54.1167883  83.0417637   8.6678595
  50.0625410  68.9189939  26.0927016  49.6692355  68.3656138  26.7674660
  50.8791550  69.2300517  26.4833534  47.0287467  80.3573797  10.0040586
  47.5411988  81.1517047  10.1546151  47.6810180  79.6600088   9.9374187
  48.8382352  83.4739553  12.0863339  49.0148981  84.3957518  11.8984323
  49.6339186  83.1597973  12.5157719  52.9793371  70.3347818  23.6847273
  53.7203084  70.9354971  23.6051735  53.2111294  69.5925456  23.1265315
  48.1234709  75.5204185  21.9625502  48.0088224  74.6189443  22.2632601
  47.2679226  75.7667882  21.6110319  55.2026546  83.4621926  23.5613003
  54.7590401  82.6758304  23.2433908  55.8643760  83.6501076  22.8956894
  49.9613668  84.9917727  18.0873682  50.5121093  84.8634791  17.3150675
  49.1225144  85.2912616  17.7368574  57.3007785  83.7424726  21.5894404
  57.2826260  84.5633607  21.0974673  58.2227705  83.6178801  21.8144545
  53.7580839  81.2568855  22.4317913  54.2909175  80.4957143  22.2017221
  53.2294920  80.9642507  23.1742067  56.9250534  66.3628921  17.9611554
  56.5814803  67.2530563  17.8850665  57.2929496  66.1730579  17.0981139
  44.9936384  78.6862451  10.7800157  45.8311606  79.0959460  10.5633864
  45.1714652  77.7461894  10.7500350  56.8900816  76.3537532   6.4683990
  56.3747440  77.1242137   6.7072377  56.6178125  75.6802668   7.0917051
  54.4747927  71.1987233  11.5269228  53.6189524  70.8094083  11.3474867
  54.8874879  71.2779194  10.6669013  56.0047074  68.7333576  15.9260788
  55.5011870  68.6963711  15.1128593  56.2977681  69.6426319  15.9857444
  52.2489960  68.8172306  14.9326969  53.1142957  68.6215115  14.5732859
  52.3167469  68.5882658  15.8596326  61.8635091  79.1069887   8.4037163
  61.0864533  78.7681046   7.9592325  62.5426571  79.1122510   7.7292128
  56.6787120  74.2264624   8.2943771  56.3737255  74.5410773   9.1453914
  57.6317562  74.3046044   8.3371104  55.1233551  80.3854848   9.9436725
  54.5954913  79.6507607   9.6309962  54.6221054  81.1629524   9.6976693
  60.1026397  78.5803868  15.0603771  59.4450072  79.2703129  15.1483900
  60.9066797  78.9700300  15.4037757  49.8552279  71.0474514  12.3043336
  50.4296031  70.8249695  11.5716529  50.4423261  71.1163208  13.0571937
  58.9131856  76.9348241  13.1107713  59.4263738  77.5678233  13.6129422
  59.5633080  76.3349436  12.7451073  50.1821866  73.0778975   6.3239221
  49.3459178  73.4153661   6.6448496  50.0426636  72.9427955   5.3866358
  52.1574947  67.9215763  11.0318406  51.5039359  67.6064780  10.4075020
  52.1155421  67.2991503  11.7578229  53.2686152  78.2035058   2.9471698
  52.3613213  77.9724311   3.1462847  53.7657184  77.4072677   3.1345679
  55.3912687  74.4097696  15.3566053  54.4735248  74.6312643  15.1987741
  55.8072831  74.4844007  14.4977761  56.1747735  75.8089112  10.4868733
  56.9219554  76.3210509  10.1775856  56.4439324  75.4873165  11.3473127
  54.4474385  78.3047653   7.4695688  53.5385604  78.0206685   7.5668158
  54.4769469  78.7246731   6.6098995  59.6793652  81.9154242  11.2386855
  59.2255980  81.0745152  11.2952046  59.0487619  82.5515641  11.5761636
  58.6226572  72.8446228  12.4687523  57.8849329  72.3323614  12.7997765
  58.8753346  72.4046610  11.6570800  58.1226592  83.7530739  12.1736673
  58.4149566  84.3135796  11.4549039  58.6325212  84.0459300  12.9289833
  58.7238199  65.6222480  13.0629292  59.0297076  64.7619844  12.7755207
  59.4490804  66.2140100  12.8628286  45.0162555  76.0253167  11.4510890
  44.8186955  75.4322527  10.7261957  44.4609219  75.7205377  12.1686829
  52.9959279  75.9176273  13.5705483  53.0507889  74.9650110  13.4947960
  52.1850481  76.0735712  14.0546782  54.1450473  79.8456396   4.8083766
  53.7069903  79.1292255   4.3489404  54.8860914  80.0732511   4.2468858
  50.9351639  74.5353333  11.3295862  50.1219505  74.8347504  11.7361054
  51.4310633  74.1409022  12.0470344  53.0860217  84.5311090  13.2630127
  53.0436396  84.7571936  12.3338659  54.0022916  84.2974465  13.4115928
  56.5325851  74.9995157  20.1610756  56.8875238  75.2266631  21.0205222
  57.1797982  75.3313534  19.5388011  62.2623588  78.1213593  10.8660085
  62.1241486  78.3115189   9.9381274  61.9059806  78.8832976  11.3228136
  50.4265714  72.1071689  16.9457097  51.0665093  71.9660448  16.2480060
  49.5943244  71.8206202  16.5695699  62.2892967  80.1890120  15.8771356
  62.7229474  80.0965409  16.7254410  63.0024548  80.1647621  15.2391372
  51.2026018  81.4074119  13.0592089  51.9966616  80.9124439  12.8574664
  50.4917710  80.8791982  12.6959795  56.0220862  83.7892214  17.4104457
  56.0757884  84.3583151  18.1782173  55.1535643  83.9594100  17.0458494
  47.5108781  75.5517201   9.1351842  46.5806369  75.4901656   9.3521804
  47.6066253  75.0293153   8.3388483  47.4294330  72.0772014  11.7230084
  47.6901147  72.9917347  11.6139244  48.2511502  71.6096456  11.8726697
  48.9019255  73.4909771  18.8928908  49.5742309  73.2827133  18.2441557
  48.0749042  73.2931857  18.4534141  63.1508517  80.2313821  18.4104242
  63.3444407  81.1359632  18.6563517  63.0509135  79.7721240  19.2442827
  54.8044827  70.1171712  20.9094569  54.1572743  70.8161661  20.8159046
  55.5745843  70.5507856  21.2770817  58.2123625  80.3820564  23.9845122
  58.0609132  80.1531115  23.0675206  58.2028305  81.3391165  23.9976467
  54.9808962  77.9552477  18.9691389  55.9101022  78.1063636  18.7960356
  54.5599992  78.0436497  18.1140035  53.7797294  81.9803141  16.7389927
  53.6408379  81.6121925  17.6115865  52.9911890  82.4950780  16.5673884
  54.3745446  87.0812237   8.0815463  54.5497201  86.6100281   8.8961086
  53.6878234  87.7078004   8.3096724  55.3302509  81.3584744  14.1278764
  54.9952341  81.3185514  15.0236414  54.8306454  80.6929460  13.6549175
  49.3046753  76.7652374  19.6531345  49.1666551  76.0332612  20.2542885
  50.2151676  76.6761274  19.3715533  51.9329053  76.4772333  19.1415025
  52.6428672  75.8365525  19.1001644  51.8898362  76.7285228  20.0641206
  59.9215832  83.4139686  22.0621604  59.8628378  82.7298906  21.3952187
  60.3235350  84.1558676  21.6102230  50.6457987  73.4637551  20.9610665
  50.1095344  73.0128289  21.6132261  50.0574696  73.5983460  20.2181129
  48.9406531  90.2301600  14.8555323  49.1803129  90.8620124  15.5334342
  48.0975727  89.8789640  15.1420682  50.0560246  72.9226202   3.5237128
  49.1789713  72.8015003   3.1599375  50.5317999  72.1312281   3.2716017
  59.9233239  81.3779270  20.2935584  59.0360018  81.0405192  20.4161983
  60.4931790  80.6462301  20.5304349  41.5762386  77.7103362  13.6178635
  42.2633426  77.3965092  13.0299651  41.4210515  78.6144727  13.3445887
  46.3797109  72.5993559  18.0463659  46.2955297  71.9919228  17.3114069
  45.5579815  73.0902577  18.0473155  53.4534393  86.0380723  17.2596827
  53.3804564  86.8435694  17.7716132  53.0111786  86.2372688  16.4344849
  53.2424172  85.2752493  10.7699649  52.4591694  85.8174173  10.8637873
  53.9416918  85.7926472  11.1693890  56.5520822  71.0847122  13.4133854
  57.0489522  70.3317084  13.0934924  55.7807804  71.1211439  12.8477063
  64.4050580  76.7887488  15.0552146  64.3940456  77.6712203  14.6846079
  63.5367959  76.4359038  14.8606683  55.9133076  85.9367557  19.4154986
  56.6261048  86.5715021  19.3430887  55.4223105  86.0331423  18.5994988
  57.6350603  79.8418809  10.9872278  56.7006882  79.9620272  10.8176982
  57.8127272  78.9391276  10.7232287  53.1355791  73.2264505  13.1405539
  52.7653579  72.6735545  13.8286444  53.6314884  72.6222639  12.5880539
  61.0223155  75.6836129  11.5222312  61.4883607  76.5164120  11.4482614
  61.4730655  75.2181110  12.2267570  50.9644990  83.6862000  20.2360557
  51.6654449  84.3198483  20.3889951  50.4940105  84.0276732  19.4756196
  59.0899386  82.0279950   8.5208464  59.3659230  81.9136544   9.4302338
  58.2203884  81.6297435   8.4820637  58.9939817  68.0516716  15.5613213
  58.0802897  68.2820942  15.7295420  59.4232919  68.1355160  16.4127245
  58.7646276  76.2406608  18.0613107  58.1117726  76.4882515  17.4065560
  59.1426656  75.4270746  17.7275584  55.7253450  86.2766301  12.1641277
  55.9075844  85.4587957  12.6269030  56.5486436  86.4933993  11.7266167
  56.0595615  85.2034486   9.4256326  56.5883382  84.6926940   8.8126488
  56.3223835  84.8877016  10.2901859  54.8133849  76.9826419  24.5479144
  54.1374486  76.8820548  25.2181519  55.6361483  76.8265632  25.0115141
  46.5612708  83.2198355  17.1691659  47.1466145  82.4742043  17.3019564
  46.3637546  83.5302312  18.0528323  49.4151363  86.2549603  12.1854102
  48.7461738  86.7395730  11.7018142  49.2764233  86.5018823  13.0997480
  41.1530363  75.7903955  15.8896103  41.1914462  75.2567546  16.6833221
  40.6470655  75.2639161  15.2707080  53.5556632  88.2893346  18.7836760
  54.1074940  88.4524968  19.5485845  53.8962825  88.8797784  18.1116785
  48.5321125  70.6368496  19.3858645  48.5962451  71.4983327  18.9736043
  48.4688245  70.0242498  18.6531003  48.0073397  72.7091628  23.0331679
  48.6345436  72.3268706  23.6469203  47.1501316  72.4905830  23.3987372
  58.4067506  83.1154604  24.6385415  58.9507410  83.7284562  24.1440369
  57.8254351  83.6734182  25.1552428  44.7838940  74.5168058   8.9650034
  45.0792381  73.6078736   8.9117088  43.8826976  74.4955797   8.6431036
  56.6925019  86.2375322  15.7700442  56.5676158  85.4365061  15.2611388
  57.3504110  86.7321515  15.2814412  48.3133187  72.5924054  14.9477582
  47.5919773  73.2060022  14.8085056  49.1026443  73.1281819  14.8694228
  58.7559927  84.0384342  17.3979992  57.8090263  83.9189693  17.3258319
  59.1042700  83.1506840  17.4806254  51.1159501  69.9278481  21.2218234
  51.6393903  70.1740777  21.9844544  50.8971834  70.7598515  20.8021372
  46.5126782  72.1982155   9.0889359  46.1839488  71.3179534   8.9064465
  46.8666152  72.1429824   9.9765748  55.7606361  83.8337058  13.5984345
  55.6131323  82.9053765  13.7791915  56.5859854  83.8557149  13.1141420
  49.6268605  72.4855125   9.4564837  49.9664677  73.0141046   8.7343445
  50.0740725  72.8235531  10.2323403  59.3640482  84.6565617  14.6849217
  60.2887030  84.4508478  14.5473668  59.1955786  84.4082018  15.5938559
  52.3212046  70.8692176  18.9067905  51.9808866  70.0699989  19.3088585
  51.6151052  71.1693887  18.3344738  52.9728518  67.9541488  17.3595228
  53.7954587  67.4801966  17.2374118  53.2166581  68.7331972  17.8593914
  51.6136752  70.9829747   7.6558129  52.3345115  71.3610999   7.1521846
  50.9902056  71.7018623   7.7593107  55.7567875  71.6874896   8.5916462
  55.9731489  72.5699533   8.2905290  55.2761942  71.2961109   7.8622104
  50.4967096  74.6460609  15.1687206  50.3511677  74.9600912  16.0611488
  50.0192300  75.2645509  14.6158105  52.3563479  71.6363157  15.2168096
  52.3425048  70.7404250  14.8800394  53.0735907  71.6433820  15.8506382
  54.2089610  72.0700497  17.2621223  53.9507388  72.9917568  17.2605554
  53.6774650  71.6730931  17.9521688  59.1535799  85.1751284  10.0411309
  59.3272676  84.6097707   9.2885161  59.6464690  85.9752179   9.8590799
  51.7600375  70.5177537  10.4855666  51.8816286  69.5894183  10.6846554
  51.4702418  70.5316223   9.5733982  54.6291566  68.2032447  13.6222386
  54.6513262  68.2671781  12.6674365  55.0459625  67.3636956  13.8162892
  65.0075190  77.9387707  11.6601609  65.4506336  77.1895032  11.2620732
  64.1301700  77.9297843  11.2775341  45.7578780  76.3135849  21.0005024
  45.0160516  76.4618485  21.5869655  45.4371525  76.5744115  20.1371774
  62.0402394  81.9417754   8.6695538  62.5653718  82.2805027   7.9444858
  61.9524747  81.0064769   8.4858672  53.7022443  85.8551828  20.7985414
  54.0109569  85.6100974  21.6708114  54.4997925  86.0598466  20.3104285
  53.7243055  88.0089737  13.0290791  53.2848045  87.5166116  13.7223648
  54.4751172  87.4662705  12.7882866  46.2035394  84.2001278  13.0315419
  47.0293414  83.9005050  12.6514063  45.8529446  83.4308901  13.4805208
  51.1716927  83.5527746  15.1013093  50.5496936  82.8898451  14.8015321
  51.8421794  83.5788878  14.4186740  44.4043999  82.1187605  13.9904353
  43.5675907  81.6909779  13.8088354  44.3767644  82.3120048  14.9275144
  51.2441455  72.0309534  24.6945599  51.2929610  72.9071657  24.3123368
  51.7863969  71.4886927  24.1217242  61.7296300  82.5750658  23.9746736
  60.9391844  82.5574796  23.4351235  61.4929655  83.1138951  24.7295772
  61.8494175  79.4243124  21.2879464  61.8992180  79.2593131  22.2294987
  61.7408099  78.5570383  20.8977345  50.7330434  82.1031670   8.5771553
  50.8818554  82.7867134   7.9238226  51.5396878  82.0836760   9.0921009
  59.1397938  75.4074052  22.6038771  60.0407801  75.2680517  22.3122769
  59.2145912  75.5728507  23.5436948  53.4740743  72.7840907  21.4491957
  52.6044053  73.0774473  21.1774546  53.7100223  73.3681352  22.1699221
  63.3512372  81.8440066  21.5321486  63.0597181  82.2070046  22.3684947
  62.7384504  81.1307074  21.3534818  64.5508055  79.4092945  14.0524056
  65.3854946  79.8482749  14.2161616  64.6867183  78.9331599  13.2332302
  61.5999560  76.9672680  20.0001544  62.0753682  77.1600326  19.1920395
  60.6765126  77.0231866  19.7544928  48.4883067  78.1296847   9.5832622
  48.2429109  77.2259177   9.7812832  48.6578982  78.1313998   8.6412100
  56.1779777  69.0020524  18.9657378  56.6961721  69.7381551  18.6403866
  55.8234910  69.3084517  19.8004137  47.7578715  73.8625205   7.0818784
  47.0647960  73.9369560   6.4258820  47.5130467  73.0985549   7.6040301
  56.4292371  65.4220806  14.4858274  56.7094125  64.7543995  15.1118701
  57.2142978  65.6149902  13.9732938  60.3001229  73.8438440  18.2329849
  61.2518652  73.9436538  18.2542073  60.1304680  73.0516709  18.7427934
  58.3215609  70.9294023  18.4189250  57.7265541  71.2099036  17.7235739
  58.0365306  71.4187924  19.1905991  62.7789307  77.0644560  17.3472149
  62.7465627  76.1260561  17.5331833  63.3889931  77.1428597  16.6137974
  54.6172638  75.9340613   3.3899353  55.5631743  75.8046821   3.4587771
  54.2386883  75.1955275   3.8668781  62.9283796  73.8555603  17.3930432
  62.4122844  73.0714060  17.2060361  63.8123744  73.5274320  17.5576952
  60.5894523  67.5996619  13.3526245  60.3919344  67.2911707  14.2369577
  61.1994228  68.3258258  13.4824175  68.5965857  78.1260567  16.4878186
  69.3269246  77.8645855  17.0485889  67.9872803  77.3889289  16.5280254
  66.6781154  76.2668429  17.0852637  65.9514318  76.1324394  16.4769129
  66.2628441  76.5745258  17.8909355  54.5011331  79.9858359  24.8500010
  55.4214340  80.1636958  25.0440057  54.4660914  79.0414404  24.6979709
  52.8015555  73.8590589   3.3254238  51.8947011  73.5623702   3.4016952
  53.0791536  73.5620407   2.4588525  43.7193496  75.1796953  13.7753285
  43.3996280  74.3262261  13.4827659  43.1726924  75.3945531  14.5311252
  47.4973403  77.8959394  17.4922791  47.7159413  78.8276502  17.5110825
  47.9099177  77.5367368  18.2777595  54.4177621  68.4027479   9.4798480
  53.6078349  68.0574564   9.8553726  55.1062038  68.0935023  10.0686091
  56.3468169  67.4805526  11.1022776  56.8999208  67.9000979  11.7612799
  56.5838256  66.5541274  11.1445732  52.3701269  73.4692599  26.8825540
  52.2697995  74.4186956  26.8137631  52.1522811  73.1410838  26.0101610
  51.5714340  70.7177525   3.4666218  52.4333504  71.0432423   3.7262035
  51.7564684  69.9309020   2.9539283  43.5881756  78.7999864  15.7446406
  42.8945227  78.3853817  15.2316361  44.3354747  78.8420401  15.1479825
  59.7246976  69.5906051  10.6101441  59.1445645  70.2490855  10.2279493
  59.4582909  68.7683396  10.1988858  58.1750543  68.9911109  12.8122761
  58.6750321  69.1027643  12.0037080  58.8186151  68.6872162  13.4523569
  52.2332539  76.8989738  25.6990602  51.7499620  77.6990098  25.9054491
  52.3193478  76.9097683  24.7458046  45.5018498  78.7318118  13.6212421
  45.4789186  78.8305805  12.6694304  45.8119135  79.5783269  13.9429587
  48.1605876  80.7894273  17.7359036  49.1149130  80.7578215  17.6688967
  47.9618400  80.3284897  18.5509262  48.7505258  79.3595389  20.3029833
  49.5698147  79.8539468  20.3264671  49.0242066  78.4427357  20.2747401
  58.5071854  71.7506141   9.6657789  57.6197709  72.0355792   9.4477984
  58.9225843  71.5899905   8.8185066  61.8586391  71.7752662  13.3812128
  62.6346781  72.2649115  13.6536745  61.1334525  72.2010717  13.8383998
  64.2958949  72.4880282  14.4386069  64.8903440  72.2476018  13.7279377
  64.3685533  71.7687412  15.0659605  46.5156105  86.3313892  14.7529234
  46.3810573  85.5714293  14.1867232  46.0988167  87.0554792  14.2858022
  58.4812878  77.2660677   9.8808079  58.4248080  77.7229229   9.0415711
  59.0341221  76.5051362   9.7030922  62.2917684  73.0550409  10.7058198
  62.0354618  72.6547045  11.5366406  61.6670552  73.7694203  10.5808338
  66.6030022  75.7946482  13.2129490  66.0429580  75.8639672  13.9861052
  65.9973525  75.6187467  12.4928986  49.6725231  87.2283210  14.9647676
  49.5557615  88.1728642  14.8626366  48.8517677  86.9256771  15.3533475
  59.2147657  78.4565459   7.1760608  59.1596461  78.2909730   6.2349052
  58.5893713  79.1641491   7.3322798  44.0040172  73.6933523  21.0022030
  44.6499036  73.1832477  21.4909256  43.7957324  74.4302205  21.5765456
  56.5293565  80.7614370  26.5014171  57.3984724  80.9355023  26.1400806
  56.0500316  81.5808787  26.3789900  52.5243783  67.9573568   6.7545927
  52.5122453  68.9015407   6.9114197  53.4167205  67.7743713   6.4605388
  50.6979745  87.8811471  18.1803605  51.6006992  87.9135082  18.4970100
  50.4717115  86.9511922  18.1949940  52.4533347  86.6342458  14.8413683
  51.5028978  86.6344320  14.7278056  52.7565833  85.8875193  14.3249718
  56.3395902  64.5516344  11.0091863  55.5728298  63.9974831  11.1548546
  56.7506607  64.6238213  11.8706015  48.3437663  70.8401140  25.0997045
  49.2069125  70.4837945  25.3100369  47.7703074  70.5015035  25.7872449
  64.9975747  92.4230424  15.8420970  64.6594258  92.3071489  14.9541505
  65.8665515  92.0221590  15.8221976  65.4795530  93.5765276  21.8007176
  65.4684170  93.1818074  20.9287679  65.6416169  92.8431349  22.3940947
  58.4026994  95.7717092  14.6702082  59.1948286  95.4307917  14.2548381
  58.6423644  95.8812068  15.5904235  62.2002791  96.3602388  20.7486360
  61.9092657  97.2648019  20.6333026  62.8359775  96.4018916  21.4630429
  63.1258998  93.7379236  17.3387719  63.7222570  93.5135259  16.6244682
  63.1833969  92.9963982  17.9413167  70.6661156  83.8451257  18.3440241
  70.3344481  84.7146668  18.1201456  70.0706770  83.5287541  19.0234271
  60.6105157  92.4977600  13.7772858  59.6855654  92.3653814  13.9850550
  60.8589571  93.2771820  14.2742800  70.5589820  88.5646344  15.4233591
  69.6506697  88.4961752  15.1292352  70.5077415  89.0418289  16.2515416
  57.9713968  92.1410874  14.6116647  58.1006350  92.3945353  15.5256059
  57.2911420  92.7338582  14.2921302  64.6330685  89.9835989  23.3668488
  63.8564019  90.5429909  23.3571353  65.2721248  90.4692772  23.8883358
  72.4251466  86.7662782  17.2011465  71.7825846  87.0595315  16.5551259
  71.9206395  86.6515702  18.0064661  62.8877058  92.7921443  22.9286455
  63.6291742  93.3306487  22.6521279  62.1814043  93.4187731  23.0858007
  68.3632397  94.9350583  21.5258617  68.7715753  94.4932994  20.7813249
  67.6409659  94.3603211  21.7792809  64.7163467  89.8723190  18.8992174
  65.5624663  90.2962603  19.0426823  64.6562105  89.2156814  19.5930737
  67.8662913  87.5327558  20.5573347  67.6223845  88.2869619  20.0207623
  68.1422843  87.9112906  21.3920594  69.8201376  94.0766171  19.2350613
  70.0318271  94.7197930  18.5584994  69.7731124  93.2428487  18.7672543
  67.4227604  86.6883991  16.1387185  66.5612084  86.9865245  16.4303922
  67.4490039  86.9054390  15.2068218  61.6238421  89.9461091  23.7301765
  60.9937082  90.6277372  23.9637162  61.5174509  89.8344172  22.7854903
  56.9183394  89.6132887  14.6567689  56.1282448  89.8690415  14.1807800
  57.4094641  90.4281225  14.7619730  64.7003807  96.5022169  19.5633681
  64.7648239  96.9642577  20.3991852  63.9914731  95.8719534  19.6915990
  55.2021097  89.8663377  17.0882680  55.4529135  90.7510387  17.3540256
  55.7380645  89.6867979  16.3157772  60.9019164  84.2481857  26.0927016
  60.5086110  83.6948055  26.7674660  61.7185305  84.5592435  26.4833534
  63.8187125  85.6639736  23.6847273  64.5596839  86.2646889  23.6051735
  64.0505048  84.9217374  23.1265315  58.9628463  90.8496103  21.9625502
  58.8481978  89.9481360  22.2632601  58.1072981  91.0959800  21.6110319
  66.0420301  98.7913843  23.5613003  65.5984155  98.0050222  23.2433908
  66.7037515  98.9792994  22.8956894  68.1401539  99.0716643  21.5894404
  68.1220014  99.8925524  21.0974673  69.0621459  98.9470718  21.8144545
  64.5974593  96.5860773  22.4317913  65.1302930  95.8249061  22.2017221
  64.0688674  96.2934425  23.1742067  67.7644288  81.6920839  17.9611554
  67.4208558  82.5822480  17.8850665  68.1323251  81.5022496  17.0981139
  66.8440829  84.0625494  15.9260788  66.3405624  84.0255629  15.1128593
  67.1371435  84.9718237  15.9857444  63.0883714  84.1464224  14.9326969
  63.9536711  83.9507032  14.5732859  63.1561223  83.9174575  15.8596326
  60.6946033  86.3766431  12.3043336  61.2689785  86.1541613  11.5716529
  61.2817016  86.4455126  13.0571937  62.9968701  83.2507680  11.0318406
  62.3433114  82.9356698  10.4075020  62.9549175  82.6283421  11.7578229
  66.2306442  89.7389614  15.3566053  65.3129003  89.9604561  15.1987741
  66.6466585  89.8135924  14.4977761  69.5631954  80.9514398  13.0629292
  69.8690831  80.0911761  12.7755207  70.2884559  81.5432018  12.8628286
  55.8556310  91.3545084  11.4510890  55.6580710  90.7614445  10.7261957
  55.3002974  91.0497295  12.1686829  63.8353034  91.2468191  13.5705483
  63.8901643  90.2942027  13.4947960  63.0244236  91.4027630  14.0546782
  67.3719605  90.3287075  20.1610756  67.7268993  90.5558548  21.0205222
  68.0191736  90.6605452  19.5388011  61.2659468  87.4363606  16.9457097
  61.9058848  87.2952365  16.2480060  60.4336999  87.1498120  16.5695699
  58.2688085  87.4063931  11.7230084  58.5294902  88.3209264  11.6139244
  59.0905257  86.9388374  11.8726697  59.7413010  88.8201688  18.8928908
  60.4136063  88.6119050  18.2441557  58.9142796  88.6223774  18.4534141
  65.6438582  85.4463629  20.9094569  64.9966497  86.1453579  20.8159046
  66.4139597  85.8799773  21.2770817  69.0517380  95.7112481  23.9845122
  68.9002886  95.4823033  23.0675206  69.0422059  96.6683083  23.9976467
  65.8202716  93.2844394  18.9691389  66.7494776  93.4355554  18.7960356
  65.3993746  93.3728415  18.1140035  60.1440507  92.0944291  19.6531345
  60.0060305  91.3624530  20.2542885  61.0545431  92.0053191  19.3715533
  62.7722808  91.8064251  19.1415025  63.4822426  91.1657443  19.1001644
  62.7292116  92.0577146  20.0641206  70.7609587  98.7431604  22.0621604
  70.7022133  98.0590824  21.3952187  71.1629105  99.4850594  21.6102230
  61.4851742  88.7929469  20.9610665  60.9489099  88.3420207  21.6132261
  60.8968450  88.9275377  20.2181129  70.7626994  96.7071188  20.2935584
  69.8753773  96.3697110  20.4161983  71.3325545  95.9754219  20.5304349
  52.4156141  93.0395280  13.6178635  53.1027181  92.7257010  13.0299651
  52.2604270  93.9436644  13.3445887  57.2190863  87.9285476  18.0463659
  57.1349052  87.3211146  17.3114069  56.3973570  88.4194495  18.0473155
  67.3914577  86.4139040  13.4133854  67.8883277  85.6609002  13.0934924
  66.6201558  86.4503356  12.8477063  63.9749546  88.5556423  13.1405539
  63.6047333  88.0027463  13.8286444  64.4708638  87.9514556  12.5880539
  61.8038744  99.0153918  20.2360557  62.5048204  99.6490401  20.3889951
  61.3333859  99.3568649  19.4756196  69.8333572  83.3808633  15.5613213
  68.9196652  83.6112860  15.7295420  70.2626673  83.4647077  16.4127245
  69.6040030  91.5698525  18.0613107  68.9511480  91.8174433  17.4065560
  69.9820410  90.7562663  17.7275584  65.6527603  92.3118336  24.5479144
  64.9768240  92.2112466  25.2181519  66.4755237  92.1557550  25.0115141
  57.4006462  98.5490273  17.1691659  57.9859899  97.8033961  17.3019564
  57.2031301  98.8594230  18.0528323  51.9924117  91.1195873  15.8896103
  52.0308217  90.5859464  16.6833221  51.4864410  90.5931079  15.2707080
  59.3714879  85.9660414  19.3858645  59.4356206  86.8275244  18.9736043
  59.3082000  85.3534415  18.6531003  58.8467152  88.0383546  23.0331679
  59.4739191  87.6560623  23.6469203  57.9895071  87.8197748  23.3987372
  69.2461260  98.4446521  24.6385415  69.7901164  99.0576480  24.1440369
  68.6648105  99.0026100  25.1552428  59.1526942  87.9215972  14.9477582
  58.4313527  88.5351939  14.8085056  59.9420197  88.4573737  14.8694228
  61.9553255  85.2570398  21.2218234  62.4787657  85.5032695  21.9844544
  61.7365588  86.0890433  20.8021372  57.3520536  87.5274073   9.0889359
  57.0233242  86.6471452   8.9064465  57.7059907  87.4721742   9.9765748
  63.1605800  86.1984093  18.9067905  62.8202621  85.3991906  19.3088585
  62.4544807  86.4985804  18.3344738  63.8122272  83.2833406  17.3595228
  64.6348341  82.8093884  17.2374118  64.0560336  84.0623890  17.8593914
  61.3360851  89.9752526  15.1687206  61.1905432  90.2892829  16.0611488
  60.8586054  90.5937427  14.6158105  63.1957234  86.9655074  15.2168096
  63.1818802  86.0696168  14.8800394  63.9129662  86.9725738  15.8506382
  65.0483364  87.3992415  17.2621223  64.7901142  88.3209485  17.2605554
  64.5168405  87.0022849  17.9521688  55.8106513  92.5157871  18.1074868
  55.2659981  93.2917679  18.2395142  56.6885863  92.8628675  17.9493989
  65.4685320  83.5324365  13.6222386  65.4907017  83.5963698  12.6674365
  65.8853379  82.6928874  13.8162892  56.5972535  91.6427767  21.0005024
  55.8554271  91.7910402  21.5869655  56.2765279  91.9036033  20.1371774
  64.5416197 101.1843745  20.7985414  64.8503324 100.9392892  21.6708114
  65.3391680 101.3890384  20.3104285  55.2437754  97.4479522  13.9904353
  54.4069662  97.0201697  13.8088354  55.2161399  97.6411966  14.9275144
  62.0835209  87.3601452  24.6945599  62.1323365  88.2363575  24.3123368
  62.6257723  86.8178845  24.1217242  72.5690055  97.9042575  23.9746736
  71.7785599  97.8866714  23.4351235  72.3323409  98.4430869  24.7295772
  72.6887930  94.7535042  21.2879464  72.7385935  94.5885049  22.2294987
  72.5801853  93.8862301  20.8977345  69.9791692  90.7365970  22.6038771
  70.8801555  90.5972435  22.3122769  70.0539667  90.9020425  23.5436948
  64.3134498  88.1132824  21.4491957  63.4437807  88.4066391  21.1774546
  64.5493978  88.6973269  22.1699221  74.1906127  97.1731983  21.5321486
  73.8990935  97.5361964  22.3684947  73.5778258  96.4598991  21.3534818
  72.4393315  92.2964598  20.0001544  72.9147437  92.4892244  19.1920395
  71.5158880  92.3523784  19.7544928  67.0173531  84.3312441  18.9657378
  67.5355475  85.0673468  18.6403866  66.6628664  84.6376435  19.8004137
  67.2686126  80.7512724  14.4858274  67.5487879  80.0835913  15.1118701
  68.0536733  80.9441820  13.9732938  71.1394984  89.1730358  18.2329849
  72.0912407  89.2728456  18.2542073  70.9698434  88.3808626  18.7427934
  69.1609363  86.2585941  18.4189250  68.5659296  86.5390954  17.7235739
  68.8759060  86.7479842  19.1905991  73.7677550  89.1847521  17.3930432
  73.2516599  88.4005978  17.2060361  74.6517499  88.8566238  17.5576952
  71.4288277  82.9288537  13.3526245  71.2313098  82.6203625  14.2369577
  72.0387983  83.6550176  13.4824175  65.3405085  95.3150277  24.8500010
  66.2608095  95.4928876  25.0440057  65.3054668  94.3706322  24.6979709
  54.5587250  90.5088870  13.7753285  54.2390034  89.6554179  13.4827659
  54.0120678  90.7237449  14.5311252  58.3367158  93.2251311  17.4922791
  58.5553167  94.1568419  17.5110825  58.7492932  92.8659286  18.2777595
  67.1861924  82.8097443  11.1022776  67.7392962  83.2292897  11.7612799
  67.4232010  81.8833192  11.1445732  63.2095023  88.7984517  26.8825540
  63.1091750  89.7478874  26.8137631  62.9916565  88.4702756  26.0101610
  54.4275510  94.1291782  15.7446406  53.7338982  93.7145735  15.2316361
  55.1748501  94.1712318  15.1479825  69.0144297  84.3203026  12.8122761
  69.5144076  84.4319561  12.0037080  69.6579905  84.0164079  13.4523569
  63.0726293  92.2281656  25.6990602  62.5893375  93.0282016  25.9054491
  63.1587232  92.2389601  24.7458046  56.3412253  94.0610036  13.6212421
  56.3182941  94.1597723  12.6694304  56.6512889  94.9075186  13.9429587
  58.9999631  96.1186191  17.7359036  59.9542884  96.0870133  17.6688967
  58.8012154  95.6576814  18.5509262  59.5899013  94.6887307  20.3029833
  60.4091902  95.1831385  20.3264671  59.8635820  93.7719275  20.2747401
  54.8433927  89.0225441  21.0022030  55.4892791  88.5124395  21.4909256
  54.6351078  89.7594122  21.5765456  67.3687319  96.0906288  26.5014171
  68.2378479  96.2646940  26.1400806  66.8894071  96.9100705  26.3789900
  67.1789657  79.8808262  11.0091863  66.4122053  79.3266749  11.1548546
  67.5900362  79.9530131  11.8706015  59.1831418  86.1693058  25.0997045
  60.0462879  85.8129863  25.3100369  58.6096829  85.8306952  25.7872449
  71.7412919  99.5773774  26.0927016  71.3479864  99.0239973  26.7674660
  72.5579059  99.8884353  26.4833534  69.6860906 103.3675464  23.0331679
  70.3132945 102.9852541  23.6469203  68.8288825 103.1489666  23.3987372
  74.0488777 104.1276435  26.8825540  73.9485504 105.0770792  26.8137631
  73.8310320 103.7994674  26.0101610  70.0225172 101.4984975  25.0997045
  70.8856634 101.1421780  25.3100369  69.4490583 101.1598870  25.7872449
  36.7279998  29.4632891  11.3630721  37.2719902  30.0762849  10.8685676
  36.1466843  30.0212469  11.8797734  40.0508793  28.9228945  10.6992042
  39.2604336  28.9053084  10.1596542  39.8142147  29.4617239  11.4541079
  34.8506057  27.1092658  13.2259478  35.7197217  27.2833310  12.8646112
  34.3712808  27.9287074  13.1035207  46.5098533  38.8181284   2.6304752
  47.1476943  38.6988031   1.9268092  46.3919376  39.7662128   2.6892704
  43.8008022  39.9243563   8.5252482  43.7896663  39.5296362   7.6532986
  43.9628661  39.1909636   9.1186254  40.5215283  42.7080675   7.4731666
  40.2305149  43.6126306   7.3578333  41.1572267  42.7497203   8.1875736
  41.4471490  40.0857524   4.0633026  42.0435062  39.8613546   3.3489989
  41.5046461  39.3442269   4.6658474  51.4648228  36.4807971   0.6090939
  52.1973400  35.9107187   0.8428768  50.7087584  36.0929571   1.0497444
  48.9873649  30.1929545   5.0685547  48.6556973  31.0624956   4.8446762
  48.3919262  29.8765829   5.7479578  45.4805168  42.3942091   4.4681460
  45.1805891  43.2967130   4.3597267  45.1356228  42.1274274   5.3202613
  40.4625948  49.1586411  -2.5647572  40.3849978  50.1094236  -2.4859092
  39.8587592  48.8132284  -1.9072646  42.9543178  36.3314277  10.0913795
  42.1776512  36.8908197  10.0816659  43.5933741  36.8171059  10.6128665
  50.7463958  33.1141069   3.9256771  50.1038339  33.4073602   3.2796566
  50.2418887  32.9993990   4.7309968  41.2089550  39.1399730   9.6531762
  41.9504234  39.6784774   9.3766585  40.5026535  39.7666019   9.8103314
  46.6844890  41.2828870   8.2503923  47.0928246  40.8411281   7.5058556
  45.9622151  40.7081498   8.5038116  43.0375960  36.2201477   5.6237480
  43.8837155  36.6440891   5.7672129  42.9774597  35.5635101   6.3176043
  47.0073704  41.8430061   2.0056212  46.3782567  42.0075775   1.3032280
  46.6199366  42.2571671   2.7767176  50.8862936  42.7784499  -0.6399424
  50.2013974  43.1583400  -1.1902391  50.9706786  43.3879825   0.0932524
  46.1875405  33.8805845   7.2818654  45.9436337  34.6347906   6.7452929
  46.4635336  34.2591193   8.1165901  48.1413868  40.4244458   5.9595919
  48.3530763  41.0676218   5.2830300  48.0943616  39.5906774   5.4917849
  39.4525747  41.1275951   2.2086060  40.0227104  41.5563219   1.5703545
  40.0433859  40.8458535   2.9070246  39.9450914  36.2939378  10.4547072
  39.3149574  36.9755659  10.6882469  39.8387002  36.1822460   9.5100210
  49.2559696  43.3016413   4.1318277  50.0777139  42.8996601   3.8500958
  49.2522099  43.1984647   5.0834393  43.0216299  42.8500457   6.2878987
  43.0860732  43.3120864   7.1237159  42.3127223  42.2197821   6.4161297
  57.3465689  39.6455162   0.4803248  56.5929397  39.0762560   0.3247253
  57.4813230  39.6117826   1.4273883  39.2231656  30.5960144  12.8172323
  38.8298602  30.0426342  13.4919967  40.0397797  30.9070722  13.2078840
  42.1399617  32.0118023  10.4092579  42.8809331  32.6125176  10.3297042
  42.3717540  31.2695661   9.8510622  37.2840955  37.1974390   8.6870809
  37.1694471  36.2959647   8.9877908  36.4285473  37.4438087   8.3355626
  44.3632793  45.1392131  10.2858310  43.9196647  44.3528509   9.9679214
  45.0250007  45.3271281   9.6202200  39.1219914  46.6687932   4.8118988
  39.6727340  46.5404995   4.0395982  38.2831390  46.9682821   4.4613881
  46.4614031  45.4194930   8.3139711  46.4432507  46.2403812   7.8219980
  47.3833951  45.2949006   8.5389852  42.9187085  42.9339060   9.1563219
  43.4515422  42.1727348   8.9262527  42.3901167  42.6412712   9.8987374
  49.2632644  40.2574073   1.7849078  48.6056319  40.9473334   1.8729206
  50.0673043  40.6470505   2.1283064  48.8399899  43.5924447  -2.0367838
  48.3862226  42.7515357  -1.9802648  48.2093866  44.2285845  -1.6993058
  47.2832838  45.4300944  -1.1018020  47.5755813  45.9906001  -1.8205654
  47.7931459  45.7229505  -0.3464861  42.2466464  46.2081295  -0.0124567
  42.2042642  46.4342141  -0.9416035  43.1629162  45.9744669   0.1361234
  45.6932097  36.6765362   6.8856063  46.0481485  36.9036836   7.7450528
  46.3404229  37.0083739   6.2633318  51.4499214  41.8660325   2.6016663
  51.8835721  41.7735614   3.4499717  52.1630795  41.8417826   1.9636679
  45.1827109  45.4662419   4.1349764  45.2364131  46.0353356   4.9027480
  44.3141890  45.6364304   3.7703801  52.3114764  41.9084026   5.1349548
  52.5050654  42.8129836   5.3808823  52.2115382  41.4491445   5.9688133
  43.9651074  31.7941917   7.6339876  43.3178989  32.4931866   7.5404352
  44.7352090  32.2278060   8.0016124  47.3729872  42.0590769  10.7090429
  47.2215379  41.8301320   9.7920513  47.3634552  43.0161370  10.7221774
  44.1415209  39.6322681   5.6936696  45.0707269  39.7833841   5.5205663
  43.7206239  39.7206702   4.8385342  42.9403540  43.6573346   3.4635233
  42.8014626  43.2892130   4.3361171  42.1518137  44.1720985   3.2919191
  44.4908756  43.0354949   0.8524071  44.1558588  42.9955719   1.7481721
  43.9912701  42.3699664   0.3794481  38.4653000  38.4422579   6.3776652
  38.3272797  37.7102817   6.9788191  39.3757923  38.3531479   6.0960840
  41.0935300  38.1542538   5.8660332  41.8034919  37.5135730   5.8246950
  41.0504608  38.4055433   6.7886513  49.0822079  45.0909891   8.7866911
  49.0234625  44.4069111   8.1197494  49.4841597  45.8328881   8.3347537
  39.8064234  35.1407756   7.6855971  39.2701591  34.6898494   8.3377568
  39.2180943  35.2753665   6.9426436  38.1012778  51.9071805   1.5800630
  38.3409376  52.5390329   2.2579648  37.2581974  51.5559845   1.8665989
  49.0839486  43.0549475   7.0180891  48.1966265  42.7175397   7.1407289
  49.6538037  42.3232506   7.2549656  42.6140640  47.7150928   3.9842134
  42.5410811  48.5205899   4.4961438  42.1718033  47.9142893   3.1590155
  42.4030419  46.9522698  -2.5055045  41.6197941  47.4944378  -2.4116820
  43.1023164  47.4696677  -2.1060803  53.5656827  38.4657693   1.7797452
  53.5546703  39.3482408   1.4091385  52.6974206  38.1129243   1.5851989
  45.0739323  47.6137762   6.1400292  45.7867295  48.2485226   6.0676194
  44.5829352  47.7101628   5.3240294  40.1251237  45.3632205   6.9605863
  40.8260696  45.9968688   7.1135258  39.6546352  45.7046937   6.2001503
  47.9252523  37.9176812   4.7858414  47.2723973  38.1652720   4.1310866
  48.3032902  37.1040951   4.4520891  44.8859696  47.9536506  -1.1113416
  45.0682091  47.1358162  -0.6485664  45.7092682  48.1704198  -1.5488526
  43.9740096  38.6596624  11.2724451  43.2980733  38.5590753  11.9426826
  44.7967729  38.5035837  11.7360448  35.7218955  44.8968560   3.8936966
  36.3072391  44.1512248   4.0264870  35.5243793  45.2072517   4.7773630
  38.5757610  47.9319807  -1.0900592  37.9067985  48.4165935  -1.5736552
  38.4370480  48.1789028  -0.1757213  42.7162878  49.9663551   5.5082067
  43.2681186  50.1295172   6.2731152  43.0569072  50.5567989   4.8362092
  37.1679644  34.3861833   9.7576986  37.7951683  34.0038911  10.3714510
  36.3107563  34.1676035  10.1232678  47.5673753  44.7924808  11.3630721
  48.1113657  45.4054767  10.8685676  46.9860598  45.3504387  11.8797734
  45.8531266  47.9145526   2.4945749  45.7282405  47.1135266   1.9856694
  46.5110357  48.4091720   2.0059719  47.9166174  45.7154547   4.1225299
  46.9696510  45.5959898   4.0503626  48.2648947  44.8277045   4.2051560
  40.2765747  31.6048686   7.9463541  40.8000149  31.8510982   8.7089850
  40.0578081  32.4368720   7.5266678  44.9212607  45.5107263   0.3229651
  44.7737570  44.5823970   0.5037221  45.7466101  45.5327354  -0.1613274
  48.5246729  46.3335822   1.4094524  49.4493277  46.1278683   1.2718975
  48.3562033  46.0852223   2.3183865  48.3142045  46.8521489  -3.2343385
  48.4878923  46.2867911  -3.9869532  48.8070937  47.6522384  -3.4163895
  54.1681437  39.6157912  -1.6153085  54.6112583  38.8665237  -2.0133962
  53.2907947  39.6068048  -1.9979353  34.9185027  37.9906054   7.7250331
  34.1766763  38.1388690   8.3114962  34.5977771  38.2514320   6.8617080
  42.8628690  47.5322033   7.5230721  43.1715816  47.2871179   8.3953421
  43.6604172  47.7368671   7.0349591  42.8849302  49.6859942  -0.2463902
  42.4454292  49.1936321   0.4468954  43.6357419  49.1432910  -0.4871827
  40.3323174  45.2297951   1.8258399  39.7103183  44.5668656   1.5260627
  41.0028041  45.2559083   1.1432047  40.4047701  33.7079739  11.4190905
  40.4535857  34.5841862  11.0368675  40.9470216  33.1657132  10.8462549
  50.8902547  44.2520863  10.6992042  50.0998091  44.2345001  10.1596542
  50.6535902  44.7909156  11.4541079  51.0100422  41.1013329   8.0124771
  51.0598427  40.9363336   8.9540294  50.9014346  40.2340588   7.6222652
  48.3004185  37.0844257   9.3284078  49.2014047  36.9450722   9.0368075
  48.3752159  37.2498712  10.2682255  42.6346990  34.4611112   8.1737264
  41.7650299  34.7544678   7.9019853  42.8706470  35.0451557   8.8944528
  52.5118619  43.5210270   8.2566792  52.2203427  43.8840251   9.0930253
  51.8990750  42.8077279   8.0780125  53.7114301  41.0863150   0.7769363
  54.5461193  41.5252954   0.9406923  53.8473430  40.6101803  -0.0422392
  50.7605807  38.6442885   6.7246850  51.2359929  38.8370531   5.9165702
  49.8371373  38.7002071   6.4790234  45.3386024  30.6790729   5.6902684
  45.8567968  31.4151756   5.3649173  44.9841157  30.9854722   6.5249443
  49.4607476  35.5208645   4.9575156  50.4124899  35.6206743   4.9787380
  49.2910927  34.7286914   5.4673240  47.4821856  32.6064228   5.1434557
  46.8871788  32.8869241   4.4481046  47.1971552  33.0958129   5.9151298
  51.9395554  38.7414765   4.0717456  51.9071874  37.8030766   4.2577140
  52.5496178  38.8198802   3.3383281  52.0890043  35.5325808   4.1175739
  51.5729091  34.7484265   3.9305668  52.9729991  35.2044525   4.2822258
  57.7572104  39.8030772   3.2123493  58.4875492  39.5416060   3.7731196
  57.1479049  39.0659494   3.2525561  55.8387401  37.9438634   3.8097944
  55.1120565  37.8094599   3.2014435  55.4234688  38.2515463   4.6154662
  43.6617577  41.6628564  11.5745317  44.5820587  41.8407163  11.7685363
  43.6267160  40.7184609  11.4225016  36.6579650  39.5729599   4.2168098
  36.8765660  40.5046706   4.2356132  37.0705424  39.2137573   5.0022902
  41.5307515  35.1462804  13.6070847  41.4304242  36.0957161  13.5382938
  41.3129057  34.8181043  12.7346917  41.3938785  38.5759943  12.4235908
  40.9105867  39.3760303  12.6299798  41.4799724  38.5867888  11.4703352
  37.3212123  42.4664478   4.4604342  38.2755376  42.4348420   4.3934274
  37.1224646  42.0055102   5.2754568  37.9111505  41.0365594   7.0275140
  38.7304394  41.5309673   7.0509977  38.1848313  40.1197562   6.9992707
  53.4565196  34.1650486   1.1631375  54.0509687  33.9246222   0.4524684
  53.5291780  33.4457617   1.7904912  35.6762352  48.0084097   1.4774540
  35.5416820  47.2484498   0.9112538  35.2594414  48.7324997   1.0103329
  55.7636269  37.4716687  -0.0625203  55.2035827  37.5409877   0.7106359
  55.1579772  37.2957672  -0.7825707  38.8331477  48.9053414   1.6892983
  38.7163862  49.8498847   1.5871673  38.0123924  48.6026976   2.0778782
  45.6899811  42.4384575  13.2259478  46.5590971  42.6125228  12.8646112
  45.2106563  43.2578992  13.1035207  39.8585992  49.5581676   4.9048911
  40.7613238  49.5905287   5.2215406  39.6323362  48.6282127   4.9195247
  41.6139594  48.3112663   1.5658990  40.6635225  48.3114524   1.4523362
  41.9172080  47.5645397   1.0495024  37.5043910  32.5171345  11.8242351
  38.3675372  32.1608150  12.0345676  36.9309321  32.1785240  12.5117756
  57.3492287  54.1473201   2.6304752  57.9870697  54.0279949   1.9268092
  57.2313130  55.0954045   2.6892704  54.1581993  54.1000629   2.5666277
  53.8200505  53.9841694   1.6786812  55.0271762  53.6991794   2.5467283
  50.0168809  55.9536106  -1.4436832  49.4533674  55.8626043  -2.2120544
  49.9021204  55.1336010  -0.9634340  54.6401776  55.2535481   8.5252482
  54.6290417  54.8588279   7.6532986  54.8022416  54.5201554   9.1186254
  47.5633241  57.4487297   1.3947388  48.3554533  57.1078122   0.9793688
  47.8029891  57.5582272   2.3149542  55.5968368  59.6207073  -6.1322367
  54.9456348  60.2061154  -6.5188353  56.3912731  60.1513268  -6.0727330
  49.5223995  56.7096211  -5.7335233  50.2954871  56.1625198  -5.8722357
  49.8749394  57.5740460  -5.5220771  51.3609038  58.0372593   7.4731666
  51.0698904  58.9418224   7.3578333  51.9966022  58.0789121   8.1875736
  52.2865244  55.4149441   4.0633026  52.8828817  55.1905464   3.3489989
  52.3440216  54.6734187   4.6658474  51.8590273  52.8688877  -8.1016783
  52.1115793  52.3470398  -8.8633320  50.9214832  52.7055022  -7.9990099
  56.9033556  51.8724655  -0.2942040  57.6896645  51.4544078  -0.6451623
  57.1672260  52.7770747  -0.1260391  57.0743633  57.3097505  -5.5953383
  56.4389466  57.3832132  -4.8832478  56.7441039  57.8991104  -6.2734304
  62.3041983  51.8099888   0.6090939  63.0367155  51.2399105   0.8428768
  61.5481338  51.4221489   1.0497444  51.5786562  54.7716983  -5.8992408
  51.4622820  54.0961886  -5.2311324  51.6888821  54.2849357  -6.7160255
  53.9218102  54.2327130  -2.1945719  53.5576310  53.7057751  -1.4832797
  54.7785218  53.8425599  -2.3679233  59.8267403  45.5221462   5.0685547
  59.4950728  46.3916873   4.8446762  59.2313016  45.2057746   5.7479578
  53.5623589  49.2617029  -7.1984370  53.7297992  50.1297266  -6.8313899
  53.3720759  49.4244311  -8.1223081  56.3198923  57.7234008   4.4681460
  56.0199646  58.6259047   4.3597267  55.9749982  57.4566192   5.3202613
  49.7711404  54.1747805   0.5018165  48.8461901  54.0424019   0.7095856
  50.0195817  54.9542024   0.9988107  59.7196066  50.2416549   2.1478897
  58.8112944  50.1731957   1.8537658  59.6683662  50.7188494   2.9760723
  53.5412810  51.7174687  -6.2137703  53.4212436  52.1631738  -5.3752223
  52.8465399  52.0660005  -6.7724165  47.1320215  53.8181079   1.3361954
  47.2612596  54.0715558   2.2501365  46.4517666  54.4108787   1.0166609
  51.3019702  64.4878329  -2.5647572  51.2243732  65.4386154  -2.4859092
  50.6981346  64.1424201  -1.9072646  53.7936932  51.6606194  10.0913795
  53.0170266  52.2200114  10.0816659  54.4327495  52.1462977  10.6128665
  61.5857713  48.4432987   3.9256771  60.9432093  48.7365520   3.2796566
  61.0812641  48.3285907   4.7309968  59.2397876  52.1896160  -5.3857369
  60.1515733  52.4223547  -5.5609672  58.7307524  52.7733204  -5.9482291
  52.0483305  54.4691648   9.6531762  52.7897989  55.0076692   9.3766585
  51.3420290  55.0957936   9.8103314  57.5238644  56.6120788   8.2503923
  57.9322000  56.1703199   7.5058556  56.8015906  56.0373416   8.5038116
  53.8769714  51.5493395   5.6237480  54.7230909  51.9732808   5.7672129
  53.8168352  50.8927019   6.3176043  57.8467459  57.1721979   2.0056212
  57.2176321  57.3367693   1.3032280  57.4593121  57.5863588   2.7767176
  61.7256691  58.1076416  -0.6399424  61.0407729  58.4875318  -1.1902391
  61.8100540  58.7171743   0.0932524  57.0269160  49.2097763   7.2818654
  56.7830091  49.9639824   6.7452929  57.3029090  49.5883111   8.1165901
  58.9807622  55.7536376   5.9595919  59.1924518  56.3968135   5.2830300
  58.9337371  54.9198692   5.4917849  56.5833851  48.3654196   2.8632492
  55.7218330  48.6635450   3.1549229  56.6096286  48.5824595   1.9313524
  53.3995421  56.9096387  -0.7293703  53.8633766  57.1884090  -1.5189080
  53.1352219  56.0079831  -0.9120612  50.2919502  56.4567868   2.2086060
  50.8620859  56.8855137   1.5703545  50.8827614  56.1750453   2.9070246
  52.3364307  53.0319539  -3.9204138  53.0388350  53.4840583  -3.4530211
  52.0044935  52.3903358  -3.2924245  50.7844668  51.6231296  10.4547072
  50.1543329  52.3047577  10.6882469  50.6780756  51.5114377   9.5100210
  46.0789641  51.2903092   1.3812996  45.2888695  51.5460620   0.9053107
  46.5700888  52.1051430   1.4865036  60.0953450  58.6308331   4.1318277
  60.9170894  58.2288518   3.8500958  60.0915853  58.5276565   5.0834393
  48.0304386  51.6547671  -1.6603527  47.2335549  51.7666365  -1.1420032
  47.8029978  51.9934323  -2.5262637  53.8610054  58.1792374   6.2878987
  53.9254486  58.6412781   7.1237159  53.1520978  57.5489739   6.4161297
  44.3627344  51.5433582   3.8127987  44.6135382  52.4280592   4.0785563
  44.8986892  51.3638184   3.0403079  68.1859443  54.9747079   0.4803248
  67.4323152  54.4054477   0.3247253  68.3206984  54.9409744   1.4273883
  53.5758071  59.8460482  -3.8442032  53.4403746  60.6912017  -3.4157185
  54.1167884  60.0479759  -4.6076099  50.0625411  45.9252062  12.8172323
  49.6692357  45.3718260  13.4919967  50.8791551  46.2362640  13.2078840
  47.0287469  57.3635920  -3.2714107  47.5411989  58.1579170  -3.1208543
  47.6810182  56.6662210  -3.3380506  48.8382353  60.4801676  -1.1891354
  49.0148982  61.4019641  -1.3770370  49.6339187  60.1660095  -0.7596974
  52.9793372  47.3409941  10.4092579  53.7203085  47.9417094  10.3297042
  53.2111295  46.5987578   9.8510622  48.1234710  52.5266308   8.6870809
  48.0088225  51.6251565   8.9877908  47.2679228  52.7730005   8.3355626
  55.2026548  60.4684048  10.2858310  54.7590402  59.6820427   9.9679214
  55.8643761  60.6563199   9.6202200  49.9613669  61.9979850   4.8118988
  50.5121094  61.8696913   4.0395982  49.1225145  62.2974739   4.4613881
  57.3007786  60.7486848   8.3139711  57.2826261  61.5695729   7.8219980
  58.2227706  60.6240923   8.5389852  53.7580840  58.2630978   9.1563219
  54.2909177  57.5019266   8.9262527  53.2294921  57.9704629   9.8987374
  56.9250535  43.3691044   4.6856861  56.5814804  44.2592685   4.6095972
  57.2929498  43.1792701   3.8226446  44.9936386  55.6924574  -2.4954537
  45.8311608  56.1021582  -2.7120829  45.1714653  54.7524016  -2.5254343
  56.8900818  53.3599655  -6.8070704  56.3747441  54.1304259  -6.5682316
  56.6178126  52.6864791  -6.1837642  54.4747929  48.2049355  -1.7485465
  53.6189525  47.8156206  -1.9279827  54.8874880  48.2841316  -2.6085680
  56.0047075  45.7395699   2.6506094  55.5011871  45.7025834   1.8373900
  56.2977682  46.6488441   2.7102751  52.2489961  45.8234428   1.6572276
  53.1142958  45.6277237   1.2978165  52.3167470  45.5944780   2.5841633
  61.8635092  56.1132009  -4.8717530  61.0864535  55.7743169  -5.3162368
  62.5426573  56.1184633  -5.5462565  56.6787121  51.2326747  -4.9810923
  56.3737256  51.5472896  -4.1300779  57.6317563  51.3108167  -4.9383590
  55.1233553  57.3916970  -3.3317969  54.5954914  56.6569730  -3.6444731
  54.6221055  58.1691646  -3.5778000  60.1026399  55.5865991   1.7849078
  59.4450073  56.2765252   1.8729206  60.9066798  55.9762423   2.1283064
  49.8552280  48.0536636  -0.9711357  50.4296032  47.8311818  -1.7038164
  50.4423263  48.1225331  -0.2182756  58.9131857  53.9410363  -0.1646981
  59.4263739  54.5740355   0.3374729  59.5633081  53.3411559  -0.5303621
  52.1574948  44.9277885  -2.2436288  51.5039360  44.6126902  -2.8679673
  52.1155422  44.3053626  -1.5176465  53.2686153  55.2097180 -10.3282996
  52.3613215  54.9786434 -10.1291847  53.7657185  54.4134800 -10.1409014
  55.3912688  51.4159819   2.0811360  54.4735250  51.6374766   1.9233048
  55.8072832  51.4906129   1.2223067  56.1747736  52.8151235  -2.7885960
  56.9219555  53.3272632  -3.0978838  56.4439326  52.4935287  -1.9281566
  54.4474386  55.3109775  -5.8059006  53.5385606  55.0268808  -5.7086536
  54.4769470  55.7308854  -6.6655699  59.6793654  58.9216365  -2.0367838
  59.2255981  58.0807275  -1.9802648  59.0487620  59.5577763  -1.6993058
  58.6226573  49.8508351  -0.8067171  57.8849330  49.3385737  -0.4756928
  58.8753347  49.4108732  -1.6183894  58.1226593  60.7592861  -1.1018020
  58.4149567  61.3197919  -1.8205654  58.6325213  61.0521422  -0.3464861
  58.7238201  42.6284603  -0.2125401  59.0297077  41.7681966  -0.4999486
  59.4490805  43.2202223  -0.4126407  45.0162557  53.0315289  -1.8243803
  44.8186956  52.4384650  -2.5492737  44.4609221  52.7267500  -1.1067865
  52.9959280  52.9238396   0.2950790  53.0507890  51.9712232   0.2193266
  52.1850482  53.0797835   0.7792088  54.1450474  56.8518519  -8.4670927
  53.7069904  56.1354378  -8.9265290  54.8860915  57.0794634  -9.0285836
  50.9351640  51.5415456  -1.9458831  50.1219506  51.8409626  -1.5393639
  51.4310634  51.1471144  -1.2284349  53.0860218  61.5373213  -0.0124567
  53.0436397  61.7634059  -0.9416035  54.0022917  61.3036587   0.1361234
  56.5325852  52.0057280   6.8856063  56.8875240  52.2328753   7.7450528
  57.1797983  52.3375657   6.2633318  62.2623589  55.1275716  -2.4094608
  62.1241487  55.3177312  -3.3373419  61.9059808  55.8895099  -1.9526557
  50.4265715  49.1133811   3.6702404  51.0665094  48.9722570   2.9725367
  49.5943246  48.8268325   3.2941006  62.2892968  57.1952243   2.6016663
  62.7229475  57.1027532   3.4499717  63.0024549  57.1709743   1.9636679
  51.2026019  58.4136242  -0.2162604  51.9966617  57.9186562  -0.4180029
  50.4917711  57.8854105  -0.5794898  56.0220863  60.7954337   4.1349764
  56.0757886  61.3645273   4.9027480  55.1535645  60.9656222   3.7703801
  47.5108782  52.5579323  -4.1402851  46.5806370  52.4963779  -3.9232889
  47.6066254  52.0355276  -4.9366210  47.4294331  49.0834136  -1.5524610
  47.6901149  49.9979469  -1.6615449  48.2511504  48.6158579  -1.4027997
  48.9019257  50.4971893   5.6174215  49.5742310  50.2889255   4.9686864
  48.0749043  50.2993979   5.1779447  63.1508518  57.2375944   5.1349548
  63.3444408  58.1421754   5.3808823  63.0509136  56.7783363   5.9688133
  54.8044829  47.1233834   7.6339876  54.1572744  47.8223784   7.5404352
  55.5745844  47.5569978   8.0016124  58.2123627  57.3882686  10.7090429
  58.0609133  57.1593238   9.7920513  58.2028306  58.3453288  10.7221774
  54.9808963  54.9614599   5.6936696  55.9101023  55.1125759   5.5205663
  54.5599993  55.0498620   4.8385342  53.7797295  58.9865264   3.4635233
  53.6408381  58.6184048   4.3361171  52.9911891  59.5012903   3.2919191
  54.3745447  64.0874360  -5.1939230  54.5497203  63.6162403  -4.3793608
  53.6878235  64.7140126  -4.9657970  55.3302510  58.3646866   0.8524071
  54.9952343  58.3247636   1.7481721  54.8306456  57.6991582   0.3794481
  49.3046754  53.7714496   6.3776652  49.1666552  53.0394735   6.9788191
  50.2151677  53.6823396   6.0960840  51.9329055  53.4834456   5.8660332
  52.6428673  52.8427648   5.8246950  51.8898363  53.7347350   6.7886513
  59.9215833  60.4201809   8.7866911  59.8628379  59.7361029   8.1197494
  60.3235352  61.1620799   8.3347537  50.6457989  50.4699673   7.6855971
  50.1095346  50.0190412   8.3377568  50.0574697  50.6045582   6.9426436
  48.9406532  67.2363723   1.5800630  49.1803130  67.8682247   2.2579648
  48.0975729  66.8851763   1.8665989  59.9233241  58.3841393   7.0180891
  59.0360019  58.0467315   7.1407289  60.4931792  57.6524424   7.2549656
  41.5762388  54.7165485   0.3423942  42.2633428  54.4027215  -0.2455043
  41.4210516  55.6206849   0.0691193  46.3797110  49.6055681   4.7708966
  46.2955299  48.9981351   4.0359376  45.5579816  50.0964699   4.7718462
  53.4534394  63.0442845   3.9842134  53.3804565  63.8497817   4.4961438
  53.0111787  63.2434811   3.1590155  53.2424174  62.2814615  -2.5055045
  52.4591696  62.8236295  -2.4116820  53.9416919  62.7988595  -2.1060803
  56.5520824  48.0909245   0.1379161  57.0489523  47.3379207  -0.1819769
  55.7807805  48.1273561  -0.4277630  64.4050581  53.7949610   1.7797452
  64.3940457  54.6774326   1.4091385  63.5367961  53.4421161   1.5851989
  55.9133078  62.9429679   6.1400292  56.6261050  63.5777144   6.0676194
  55.4223106  63.0393545   5.3240294  57.6350604  56.8480932  -2.2882416
  56.7006883  56.9682394  -2.4577712  57.8127273  55.9453399  -2.5522406
  53.1355792  50.2326628  -0.1349155  52.7653580  49.6797668   0.5531751
  53.6314885  49.6284761  -0.6874155  61.0223156  52.6898251  -1.7532382
  61.4883608  53.5226243  -1.8272079  61.4730656  52.2243233  -1.0487123
  50.9644991  60.6924123   6.9605863  51.6654451  61.3260606   7.1135258
  50.4940106  61.0338854   6.2001503  59.0899387  59.0342072  -4.7546230
  59.3659231  58.9198667  -3.8452356  58.2203886  58.6359557  -4.7934057
  58.9939819  45.0578838   2.2858520  58.0802898  45.2883065   2.4540727
  59.4232920  45.1417282   3.1372552  58.7646277  53.2468730   4.7858414
  58.1117727  53.4944638   4.1310866  59.1426657  52.4332868   4.4520891
  55.7253451  63.2828423  -1.1113416  55.9075845  62.4650079  -0.6485664
  56.5486437  63.4996116  -1.5488526  56.0595616  62.2096608  -3.8498368
  56.5883383  61.6989063  -4.4628205  56.3223836  61.8939139  -2.9852835
  54.8133850  53.9888541  11.2724451  54.1374487  53.8882671  11.9426826
  55.6361484  53.8327755  11.7360448  46.5612709  60.2260478   3.8936966
  47.1466146  59.4804166   4.0264870  46.3637548  60.5364434   4.7773630
  49.4151364  63.2611725  -1.0900592  48.7461740  63.7457853  -1.5736552
  49.2764234  63.5080946  -0.1757213  41.1530364  52.7966078   2.6141409
  41.1914463  52.2629669   3.4078527  40.6470657  52.2701283   1.9952386
  53.5556633  65.2955469   5.5082067  54.1074941  65.4587090   6.2731152
  53.8962826  65.8859906   4.8362092  48.5321126  47.6430618   6.1103951
  48.5962453  48.5045449   5.6981349  48.4688246  47.0304620   5.3776310
  48.0073399  49.7153751   9.7576986  48.6345437  49.3330828  10.3714510
  47.1501318  49.4967953  10.1232678  58.4067507  60.1216726  11.3630721
  58.9507411  60.7346684  10.8685676  57.8254352  60.6796305  11.8797734
  44.7838941  51.5230180  -4.3104659  45.0792383  50.6140859  -4.3637606
  43.8826977  51.5017920  -4.6323657  56.6925020  63.2437444   2.4945749
  56.5676160  62.4427184   1.9856694  57.3504111  63.7383638   2.0059719
  48.3133188  49.5986177   1.6722889  47.5919774  50.2122144   1.5330362
  49.1026444  50.1343942   1.5939535  58.7559929  61.0446464   4.1225299
  57.8090264  60.9251815   4.0503626  59.1042702  60.1568962   4.2051560
  51.1159502  46.9340603   7.9463541  51.6393904  47.1802900   8.7089850
  50.8971835  47.7660638   7.5266678  46.5126783  49.2044278  -4.1865334
  46.1839489  48.3241657  -4.3690228  46.8666154  49.1491946  -3.2988945
  55.7606362  60.8399180   0.3229651  55.6131324  59.9115888   0.5037221
  56.5859855  60.8619271  -0.1613274  49.6268606  49.4917248  -3.8189857
  49.9664679  50.0203169  -4.5411248  50.0740727  49.8297654  -3.0431290
  59.3640484  61.6627739   1.4094524  60.2887031  61.4570601   1.2718975
  59.1955787  61.4144140   2.3183865  52.3212047  47.8754298   5.6313211
  51.9808867  47.0762111   6.0333891  51.6151053  48.1756009   5.0590045
  52.9728519  44.9603611   4.0840534  53.7954588  44.4864089   3.9619425
  53.2166582  45.7394094   4.5839221  51.6136753  47.9891869  -5.6196564
  52.3345116  48.3673122  -6.1232847  50.9902057  48.7080746  -5.5161586
  55.7567876  48.6937018  -4.6838232  55.9731491  49.5761656  -4.9849403
  55.2761943  48.3023232  -5.4132590  50.4967098  51.6522731   1.8932513
  50.3511678  51.9663034   2.7856795  50.0192301  52.2707632   1.3403412
  52.3563480  48.6425279   1.9413403  52.3425049  47.7466373   1.6045701
  53.0735909  48.6495943   2.5751689  54.2089611  49.0762620   3.9866530
  53.9507389  49.9979690   3.9850860  53.6774652  48.6793054   4.6766994
  59.1535800  62.1813407  -3.2343385  59.3272677  61.6159829  -3.9869532
  59.6464691  62.9814302  -3.4163895  44.9712760  54.1928076   4.8320174
  44.4266228  54.9687884   4.9640449  45.8492110  54.5398880   4.6739296
  51.7600376  47.5239660  -2.7899027  51.8816288  46.5956306  -2.5908140
  51.4702419  47.5378346  -3.7020712  54.6291567  45.2094570   0.3467693
  54.6513264  45.2733903  -0.6080328  55.0459626  44.3699079   0.5408199
  65.0075191  54.9449830  -1.6153085  65.4506337  54.1957155  -2.0133962
  64.1301701  54.9359966  -1.9979353  45.7578782  53.3197972   7.7250331
  45.0160518  53.4680607   8.3114962  45.4371526  53.5806238   6.8617080
  62.0402396  58.9479877  -4.6059156  62.5653720  59.2867149  -5.3309836
  61.9524748  58.0126892  -4.7896021  53.7022444  62.8613950   7.5230721
  54.0109571  62.6163097   8.3953421  54.4997926  63.0660589   7.0349591
  53.7243056  65.0151860  -0.2463902  53.2848047  64.5228239   0.4468954
  54.4751173  64.4724828  -0.4871827  46.2035395  61.2063401  -0.2439274
  47.0293415  60.9067173  -0.6240631  45.8529447  60.4371023   0.2050514
  51.1716928  60.5589869   1.8258399  50.5496938  59.8960574   1.5260627
  51.8421795  60.5851001   1.1432047  44.4044000  59.1249727   0.7149659
  43.5675909  58.6971902   0.5333661  44.3767646  59.3182171   1.6520451
  51.2441456  49.0371657  11.4190905  51.2929611  49.9133780  11.0368675
  51.7863970  48.4949050  10.8462549  61.7296302  59.5812780  10.6992042
  60.9391845  59.5636919  10.1596542  61.4929656  60.1201074  11.4541079
  61.8494177  56.4305247   8.0124771  61.8992182  56.2655254   8.9540294
  61.7408100  55.5632506   7.6222652  50.7330435  59.1093792  -4.6983140
  50.8818556  59.7929257  -5.3516467  51.5396879  59.0898882  -4.1833684
  59.1397939  52.4136175   9.3284078  60.0407802  52.2742639   9.0368075
  59.2145914  52.5790629  10.2682255  53.4740744  49.7903029   8.1737264
  52.6044054  50.0836595   7.9019853  53.7100225  50.3743474   8.8944528
  63.3512373  58.8502188   8.2566792  63.0597182  59.2132169   9.0930253
  62.7384505  58.1369196   8.0780125  64.5508056  56.4155068   0.7769363
  65.3854947  56.8544872   0.9406923  64.6867185  55.9393721  -0.0422392
  61.5999562  53.9734803   6.7246850  62.0753683  54.1662449   5.9165702
  60.6765127  54.0293989   6.4790234  48.4883068  55.1358970  -3.6922071
  48.2429110  54.2321300  -3.4941861  48.6578983  55.1376120  -4.6342593
  56.1779778  46.0082646   5.6902684  56.6961722  46.7443673   5.3649173
  55.8234911  46.3146640   6.5249443  56.4292372  42.4282929   1.2103581
  56.7094126  41.7606118   1.8364008  57.2142979  42.6212024   0.6978245
  60.3001231  50.8500563   4.9575156  61.2518654  50.9498661   4.9787380
  60.1304681  50.0578831   5.4673240  58.3215610  47.9356146   5.1434557
  57.7265542  48.2161159   4.4481046  58.0365307  48.4250047   5.9151298
  62.7789309  54.0706683   4.0717456  62.7465629  53.1322683   4.2577140
  63.3889932  54.1490719   3.3383281  54.6172639  52.9402736  -9.8855340
  55.5631744  52.8108944  -9.8166922  54.2386884  52.2017397  -9.4085912
  62.9283797  50.8617726   4.1175739  62.4122846  50.0776183   3.9305668
  63.8123746  50.5336443   4.2822258  60.5894524  44.6058742   0.0771552
  60.3919345  44.2973830   0.9614884  61.1994230  45.3320380   0.2069481
  68.5965858  55.1322689   3.2123493  69.3269247  54.8707978   3.7731196
  67.9872804  54.3951411   3.2525561  66.6781155  53.2730552   3.8097944
  65.9514319  53.1386517   3.2014435  66.2628442  53.5807381   4.6154662
  54.5011332  56.9920482  11.5745317  55.4214341  57.1699081  11.7685363
  54.4660915  56.0476527  11.4225016  43.7193497  52.1859075   0.4998591
  43.3996281  51.3324383   0.2072965  43.1726925  52.4007653   1.2556559
  47.4973404  54.9021516   4.2168098  47.7159414  55.8338624   4.2356132
  47.9099178  54.5429491   5.0022902  54.4177622  45.4089602  -3.7956214
  53.6078351  45.0636687  -3.4200968  55.1062039  45.0997145  -3.2068602
  56.3468171  44.4867648  -2.1731917  56.8999209  44.9063102  -1.5141894
  56.5838257  43.5603397  -2.1308961  52.3701270  50.4754722  13.6070847
  52.2697997  51.4249079  13.5382938  52.1522812  50.1472961  12.7346917
  43.5881757  55.8061987   2.4691713  42.8945228  55.3915940   1.9561667
  44.3354748  55.8482523   1.8725132  59.7246978  46.5968174  -2.6653253
  59.1445647  47.2552978  -3.0475200  59.4582910  45.7745518  -3.0765835
  58.1750544  45.9973231  -0.4631932  58.6750322  46.1089766  -1.2717614
  58.8186152  45.6934284   0.1768876  52.2332540  53.9051861  12.4235908
  51.7499622  54.7052221  12.6299798  52.3193479  53.9159806  11.4703352
  45.5018499  55.7380241   0.3457728  45.4789188  55.8367928  -0.6060389
  45.8119136  56.5845391   0.6674894  48.1605877  57.7956396   4.4604342
  49.1149131  57.7640338   4.3934274  47.9618401  57.3347019   5.2754568
  48.7505259  56.3657512   7.0275140  49.5698148  56.8601590   7.0509977
  49.0242067  55.4489480   6.9992707  58.5071856  48.7568264  -3.6096905
  57.6197711  49.0417915  -3.8276710  58.9225845  48.5962027  -4.4569628
  61.8586392  48.7814785   0.1057435  62.6346782  49.2711237   0.3782052
  61.1334526  49.2072839   0.5629304  64.2958950  49.4942404   1.1631375
  64.8903441  49.2538140   0.4524684  64.3685534  48.7749535   1.7904912
  46.5156106  63.3376015   1.4774540  46.3810574  62.5776416   0.9112538
  46.0988168  64.0616915   1.0103329  58.4812879  54.2722800  -3.3946614
  58.4248081  54.7291351  -4.2338982  59.0341222  53.5113484  -3.5723772
  62.2917685  50.0612532  -2.5696495  62.0354620  49.6609167  -1.7388287
  61.6670553  50.7756326  -2.6946356  66.6030023  52.8008605  -0.0625203
  66.0429581  52.8701794   0.7106359  65.9973527  52.6249590  -0.7825707
  49.6725232  64.2345332   1.6892983  49.5557616  65.1790765   1.5871673
  48.8517678  63.9318894   2.0778782  59.2147659  55.4627581  -6.0994085
  59.1596462  55.2971853  -7.0405641  58.5893714  56.1703614  -5.9431895
  44.0040174  50.6995646   7.7267337  44.6499037  50.1894599   8.2154562
  43.7957325  51.4364327   8.3010762  56.5293566  57.7676493  13.2259478
  57.3984726  57.9417145  12.8646112  56.0500317  58.5870910  13.1035207
  50.6979746  64.8873594   4.9048911  51.6006993  64.9197204   5.2215406
  50.4717116  63.9574045   4.9195247  52.4533348  63.6404581   1.5658990
  51.5028979  63.6406442   1.4523362  52.7565834  62.8937315   1.0495024
  56.3395904  41.5578467  -2.2662830  55.5728299  41.0036953  -2.1206148
  56.7506609  41.6300336  -1.4048678  48.3437665  47.8463263  11.8242351
  49.2069126  47.4900067  12.0345676  47.7703075  47.5077157  12.5117756
  64.9975748  69.4292547   2.5666277  64.6594259  69.3133612   1.6786812
  65.8665516  69.0283712   2.5467283  65.4795531  70.5827399   8.5252482
  65.4684172  70.1880197   7.6532986  65.6416170  69.8493471   9.1186254
  58.4026996  72.7779215   1.3947388  59.1948287  72.4370040   0.9793688
  58.6423646  72.8874190   2.3149542  62.2002792  73.3664511   7.4731666
  61.9092658  74.2710141   7.3578333  62.8359776  73.4081038   8.1875736
  63.1258999  70.7441359   4.0633026  63.7222571  70.5197381   3.3489989
  63.1833970  70.0026105   4.6658474  70.6661158  60.8513380   5.0685547
  70.3344482  61.7208791   4.8446762  70.0706771  60.5349664   5.7479578
  60.6105159  69.5039723   0.5018165  59.6855655  69.3715937   0.7095856
  60.8589572  70.2833942   0.9988107  70.5589821  65.5708466   2.1478897
  69.6506698  65.5023875   1.8537658  70.5077417  66.0480411   2.9760723
  57.9713970  69.1472996   1.3361954  58.1006351  69.4007475   2.2501365
  57.2911421  69.7400704   1.0166609  64.6330687  66.9898112  10.0913795
  63.8564021  67.5492032  10.0816659  65.2721250  67.4754895  10.6128665
  72.4251467  63.7724905   3.9256771  71.7825848  64.0657438   3.2796566
  71.9206396  63.6577825   4.7309968  62.8877059  69.7983565   9.6531762
  63.6291743  70.3368609   9.3766585  62.1814044  70.4249854   9.8103314
  68.3632399  71.9412706   8.2503923  68.7715755  71.4995116   7.5058556
  67.6409660  71.3665333   8.5038116  64.7163469  66.8785312   5.6237480
  65.5624664  67.3024726   5.7672129  64.6562106  66.2218937   6.3176043
  67.8662914  64.5389681   7.2818654  67.6223846  65.2931741   6.7452929
  68.1422845  64.9175028   8.1165901  69.8201377  71.0828293   5.9595919
  70.0318272  71.7260053   5.2830300  69.7731125  70.2490610   5.4917849
  67.4227606  63.6946114   2.8632492  66.5612085  63.9927367   3.1549229
  67.4490040  63.9116513   1.9313524  61.6238423  66.9523213  10.4547072
  60.9937083  67.6339494  10.6882469  61.5174511  66.8406295   9.5100210
  56.9183395  66.6195009   1.3812996  56.1282449  66.8752538   0.9053107
  57.4094643  67.4343347   1.4865036  64.7003808  73.5084292   6.2878987
  64.7648241  73.9704699   7.1237159  63.9914732  72.8781657   6.4161297
  55.2021098  66.8725500   3.8127987  55.4529137  67.7572510   4.0785563
  55.7380647  66.6930101   3.0403079  60.9019165  61.2543979  12.8172323
  60.5086111  60.7010178  13.4919967  61.7185306  61.5654558  13.2078840
  63.8187126  62.6701858  10.4092579  64.5596840  63.2709011  10.3297042
  64.0505049  61.9279496   9.8510622  58.9628464  67.8558226   8.6870809
  58.8481980  66.9543483   8.9877908  58.1072982  68.1021922   8.3355626
  66.0420302  75.7975966  10.2858310  65.5984156  75.0112344   9.9679214
  66.7037516  75.9855116   9.6202200  68.1401540  76.0778766   8.3139711
  68.1220016  76.8987647   7.8219980  69.0621460  75.9532841   8.5389852
  64.5974594  73.5922895   9.1563219  65.1302931  72.8311183   8.9262527
  64.0688676  73.2996547   9.8987374  67.7644289  58.6982961   4.6856861
  67.4208559  59.5884603   4.6095972  68.1323252  58.5084619   3.8226446
  66.8440830  61.0687616   2.6506094  66.3405625  61.0317752   1.8373900
  67.1371437  61.9780359   2.7102751  63.0883716  61.1526346   1.6572276
  63.9536712  60.9569155   1.2978165  63.1561225  60.9236698   2.5841633
  60.6946035  63.3828554  -0.9711357  61.2689787  63.1603736  -1.7038164
  61.2817017  63.4517249  -0.2182756  62.9968702  60.2569803  -2.2436288
  62.3433115  59.9418820  -2.8679673  62.9549177  59.6345543  -1.5176465
  66.2306443  66.7451737   2.0811360  65.3129004  66.9666684   1.9233048
  66.6466586  66.8198047   1.2223067  69.5631955  57.9576520  -0.2125401
  69.8690832  57.0973884  -0.4999486  70.2884560  58.5494141  -0.4126407
  55.8556311  68.3607207  -1.8243803  55.6580711  67.7676568  -2.5492737
  55.3002975  68.0559417  -1.1067865  63.8353035  68.2530314   0.2950790
  63.8901645  67.3004150   0.2193266  63.0244237  68.4089753   0.7792088
  67.3719606  67.3349198   6.8856063  67.7268994  67.5620671   7.7450528
  68.0191738  67.6667575   6.2633318  61.2659469  64.4425729   3.6702404
  61.9058849  64.3014488   2.9725367  60.4337000  64.1560242   3.2941006
  58.2688086  64.4126054  -1.5524610  58.5294903  65.3271387  -1.6615449
  59.0905258  63.9450496  -1.4027997  59.7413011  65.8263811   5.6174215
  60.4136065  65.6181173   4.9686864  58.9142798  65.6285897   5.1779447
  65.6438583  62.4525752   7.6339876  64.9966498  63.1515702   7.5404352
  66.4139599  62.8861896   8.0016124  69.0517381  72.7174604  10.7090429
  68.9002888  72.4885156   9.7920513  69.0422061  73.6745205  10.7221774
  65.8202718  70.2906517   5.6936696  66.7494778  70.4417676   5.5205663
  65.3993748  70.3790538   4.8385342  60.1440508  69.1006414   6.3776652
  60.0060306  68.3686653   6.9788191  61.0545432  69.0115314   6.0960840
  62.7722809  68.8126373   5.8660332  63.4822428  68.1719565   5.8246950
  62.7292117  69.0639268   6.7886513  70.7609588  75.7493727   8.7866911
  70.7022134  75.0652947   8.1197494  71.1629106  76.4912717   8.3347537
  61.4851743  65.7991591   7.6855971  60.9489100  65.3482330   8.3377568
  60.8968452  65.9337500   6.9426436  70.7626995  73.7133311   7.0180891
  69.8753774  73.3759232   7.1407289  71.3325546  72.9816342   7.2549656
  52.4156142  70.0457402   0.3423942  53.1027182  69.7319132  -0.2455043
  52.2604271  70.9498767   0.0691193  57.2190864  64.9347599   4.7708966
  57.1349053  64.3273268   4.0359376  56.3973571  65.4256617   4.7718462
  67.3914578  63.4201162   0.1379161  67.8883278  62.6671125  -0.1819769
  66.6201560  63.4565479  -0.4277630  63.9749547  65.5618545  -0.1349155
  63.6047335  65.0089586   0.5531751  64.4708639  64.9576679  -0.6874155
  61.8038746  76.0216040   6.9605863  62.5048205  76.6552523   7.1135258
  61.3333861  76.3630772   6.2001503  69.8333573  60.3870756   2.2858520
  68.9196653  60.6174983   2.4540727  70.2626674  60.4709200   3.1372552
  69.6040032  68.5760648   4.7858414  68.9511482  68.8236555   4.1310866
  69.9820411  67.7624786   4.4520891  65.6527605  69.3180459  11.2724451
  64.9768242  69.2174588  11.9426826  66.4755238  69.1619673  11.7360448
  57.4006464  75.5552395   3.8936966  57.9859900  74.8096083   4.0264870
  57.2031302  75.8656352   4.7773630  51.9924118  68.1257996   2.6141409
  52.0308218  67.5921586   3.4078527  51.4864411  67.5993201   1.9952386
  59.3714881  62.9722536   6.1103951  59.4356207  63.8337367   5.6981349
  59.3082001  62.3596538   5.3776310  58.8467153  65.0445669   9.7576986
  59.4739192  64.6622746  10.3714510  57.9895072  64.8259871  10.1232678
  69.2461262  75.4508644  11.3630721  69.7901166  76.0638602  10.8685676
  68.6648107  76.0088222  11.8797734  59.1526943  64.9278094   1.6722889
  58.4313529  65.5414062   1.5330362  59.9420199  65.4635859   1.5939535
  61.9553256  62.2632521   7.9463541  62.4787658  62.5094817   8.7089850
  61.7365590  63.0952556   7.5266678  57.3520538  64.5336195  -4.1865334
  57.0233244  63.6533574  -4.3690228  57.7059908  64.4783864  -3.2988945
  63.1605801  63.2046216   5.6313211  62.8202622  62.4054029   6.0333891
  62.4544808  63.5047927   5.0590045  63.8122273  60.2895528   4.0840534
  64.6348343  59.8156007   3.9619425  64.0560337  61.0686012   4.5839221
  61.3360852  66.9814649   1.8932513  61.1905433  67.2954952   2.7856795
  60.8586056  67.5999549   1.3403412  63.1957235  63.9717197   1.9413403
  63.1818804  63.0758290   1.6045701  63.9129663  63.9787861   2.5751689
  65.0483366  64.4054537   3.9866530  64.7901143  65.3271608   3.9850860
  64.5168406  64.0084972   4.6766994  55.8106514  69.5219993   4.8320174
  55.2659982  70.2979801   4.9640449  56.6885864  69.8690798   4.6739296
  65.4685321  60.5386488   0.3467693  65.4907018  60.6025821  -0.6080328
  65.8853380  59.6990996   0.5408199  56.5972536  68.6489890   7.7250331
  55.8554272  68.7972525   8.3114962  56.2765280  68.9098155   6.8617080
  64.5416199  78.1905868   7.5230721  64.8503325  77.9455015   8.3953421
  65.3391681  78.3952506   7.0349591  55.2437755  74.4541645   0.7149659
  54.4069663  74.0263819   0.5333661  55.2161400  74.6474088   1.6520451
  62.0835210  64.3663575  11.4190905  62.1323366  65.2425697  11.0368675
  62.6257725  63.8240968  10.8462549  72.5690056  74.9104698  10.6992042
  71.7785600  74.8928837  10.1596542  72.3323411  75.4492992  11.4541079
  72.6887931  71.7597164   8.0124771  72.7385936  71.5947172   8.9540294
  72.5801854  70.8924423   7.6222652  69.9791694  67.7428092   9.3284078
  70.8801556  67.6034557   9.0368075  70.0539668  67.9082547  10.2682255
  64.3134499  65.1194947   8.1737264  63.4437808  65.4128513   7.9019853
  64.5493979  65.7035392   8.8944528  74.1906128  74.1794106   8.2566792
  73.8990936  74.5424086   9.0930253  73.5778259  73.4661114   8.0780125
  72.4393316  69.3026720   6.7246850  72.9147438  69.4954367   5.9165702
  71.5158882  69.3585906   6.4790234  67.0173533  61.3374564   5.6902684
  67.5355477  62.0735591   5.3649173  66.6628665  61.6438557   6.5249443
  67.2686127  57.7574847   1.2103581  67.5487881  57.0898036   1.8364008
  68.0536734  57.9503942   0.6978245  71.1394985  66.1792481   4.9575156
  72.0912408  66.2790578   4.9787380  70.9698436  65.3870749   5.4673240
  69.1609365  63.2648064   5.1434557  68.5659297  63.5453076   4.4481046
  68.8759061  63.7541965   5.9151298  73.7677551  66.1909644   4.1175739
  73.2516600  65.4068100   3.9305668  74.6517500  65.8628360   4.2822258
  71.4288278  59.9350659   0.0771552  71.2313100  59.6265747   0.9614884
  72.0387984  60.6612298   0.2069481  65.3405086  72.3212399  11.5745317
  66.2608096  72.4990998  11.7685363  65.3054669  71.3768445  11.4225016
  54.5587251  67.5150993   0.4998591  54.2390036  66.6616301   0.2072965
  54.0120680  67.7299571   1.2556559  58.3367159  70.2313434   4.2168098
  58.5553169  71.1630542   4.2356132  58.7492933  69.8721408   5.0022902
  67.1861925  59.8159566  -2.1731917  67.7392964  60.2355020  -1.5141894
  67.4232011  58.8895314  -2.1308961  63.2095024  65.8046640  13.6070847
  63.1091751  66.7540997  13.5382938  62.9916566  65.4764879  12.7346917
  54.4275511  71.1353904   2.4691713  53.7338983  70.7207857   1.9561667
  55.1748502  71.1774441   1.8725132  69.0144298  61.3265149  -0.4631932
  69.5144077  61.4381683  -1.2717614  69.6579906  61.0226202   0.1768876
  63.0726294  69.2343779  12.4235908  62.5893376  70.0344139  12.6299798
  63.1587233  69.2451723  11.4703352  56.3412254  71.0672158   0.3457728
  56.3182942  71.1659846  -0.6060389  56.6512890  71.9137309   0.6674894
  58.9999632  73.1248313   4.4604342  59.9542885  73.0932256   4.3934274
  58.8012155  72.6638937   5.2754568  59.5899014  71.6949429   7.0275140
  60.4091903  72.1893508   7.0509977  59.8635822  70.7781397   6.9992707
  54.8433928  66.0287563   7.7267337  55.4892792  65.5186517   8.2154562
  54.6351079  66.7656245   8.3010762  67.3687320  73.0968411  13.2259478
  68.2378480  73.2709063  12.8646112  66.8894072  73.9162827  13.1035207
  67.1789658  56.8870384  -2.2662830  66.4122054  56.3328871  -2.1206148
  67.5900363  56.9592253  -1.4048678  59.1831419  63.1755180  11.8242351
  60.0462881  62.8191985  12.0345676  58.6096830  62.8369075  12.5117756
  71.7412920  76.5835897  12.8172323  71.3479866  76.0302095  13.4919967
  72.5579060  76.8946475  13.2078840  69.6860908  80.3737586   9.7576986
  70.3132946  79.9914664  10.3714510  68.8288827  80.1551788  10.1232678
  74.0488779  81.1338557  13.6070847  73.9485506  82.0832914  13.5382938
  73.8310321  80.8056796  12.7346917  70.0225174  78.5047098  11.8242351
  70.8856635  78.1483903  12.0345676  69.4490584  78.1660993  12.5117756
  58.4067509  37.1278849  -1.9123972  58.9507412  37.7408807  -2.4069017
  57.8254353  37.6858427  -1.3956959  61.7296303  36.5874903  -2.5762651
  60.9391847  36.5699042  -3.1158152  61.4929657  37.1263197  -1.8213614
  56.5293567  34.7738616  -0.0495216  57.3984727  34.9479268  -0.4108581
  56.0500319  35.5933032  -0.1719486  65.4795532  47.5889521  -4.7502211
  65.4684173  47.1942320  -5.6221707  65.6416172  46.8555594  -4.1568439
  62.2002793  50.3726633  -5.8023027  61.9092659  51.2772264  -5.9176361
  62.8359778  50.4143161  -5.0878957  63.1259000  47.7503482  -9.2121667
  63.7222572  47.5259504  -9.9264704  63.1833972  47.0088227  -8.6096219
  70.6661159  37.8575503  -8.2069146  70.3344484  38.7270914  -8.4307931
  70.0706772  37.5411787  -7.5275116  64.6330688  43.9960234  -3.1840899
  63.8564022  44.5554155  -3.1938034  65.2721251  44.4817017  -2.6626029
  72.4251469  40.7787027  -9.3497922  71.7825849  41.0719560  -9.9958127
  71.9206397  40.6639948  -8.5444725  62.8877060  46.8045688  -3.6222932
  63.6291745  47.3430732  -3.8988108  62.1814046  47.4311977  -3.4651380
  68.3632400  48.9474828  -5.0250770  68.7715756  48.5057239  -5.7696138
  67.6409661  48.3727456  -4.7716577  64.7163470  43.8847435  -7.6517213
  65.5624665  44.3086849  -7.5082564  64.6562108  43.2281059  -6.9578650
  67.8662915  41.5451803  -5.9936040  67.6223847  42.2993864  -6.5301764
  68.1422846  41.9237151  -5.1588792  69.8201378  48.0890416  -7.3158774
  70.0318273  48.7322176  -7.9924393  69.7731126  47.2552732  -7.7836844
  61.6238424  43.9585336  -2.8207622  60.9937085  44.6401617  -2.5872225
  61.5174512  43.8468418  -3.7654483  64.7003809  50.5146414  -6.9875706
  64.7648242  50.9766822  -6.1517534  63.9914733  49.8843779  -6.8593396
  60.9019167  38.2606102  -0.4582371  60.5086112  37.7072300   0.2165274
  61.7185307  38.5716680  -0.0675853  63.8187128  39.6763981  -2.8662114
  64.5596841  40.2771134  -2.9457652  64.0505051  38.9341619  -3.4244071
  58.9628466  44.8620348  -4.5883884  58.8481981  43.9605605  -4.2876785
  58.1072983  45.1084045  -4.9399068  66.0420303  52.8038088  -2.9896384
  65.5984158  52.0174467  -3.3075479  66.7037517  52.9917239  -3.6552493
  68.1401542  53.0840888  -4.9614982  68.1220017  53.9049769  -5.4534713
  69.0621462  52.9594964  -4.7364841  64.5974596  50.5985018  -4.1191474
  65.1302932  49.8373306  -4.3492166  64.0688677  50.3058670  -3.3767320
  67.3719608  44.3411320  -6.3898631  67.7268995  44.5682793  -5.5304165
  68.0191739  44.6729697  -7.0121376  65.6438584  39.4587874  -5.6414818
  64.9966500  40.1577824  -5.7350341  66.4139600  39.8924018  -5.2738569
  69.0517382  49.7236727  -2.5664264  68.9002889  49.4947278  -3.4834181
  69.0422062  50.6807328  -2.5532919  65.8202719  47.2968639  -7.5817998
  66.7494779  47.4479799  -7.7549031  65.3993749  47.3852660  -8.4369351
  60.1440510  46.1068537  -6.8978041  60.0060308  45.3748775  -6.2966502
  61.0545433  46.0177437  -7.1793854  62.7722810  45.8188496  -7.4094362
  63.4822429  45.1781688  -7.4507743  62.7292119  46.0701391  -6.4868181
  70.7609589  52.7555849  -4.4887782  70.7022135  52.0715069  -5.1557199
  71.1629107  53.4974839  -4.9407156  61.4851744  42.8053714  -5.5898722
  60.9489101  42.3544452  -4.9377126  60.8968453  42.9399623  -6.3328258
  70.7626996  50.7195433  -6.2573803  69.8753775  50.3821355  -6.1347404
  71.3325547  49.9878464  -6.0205037  61.8038747  53.0278163  -6.3148830
  62.5048206  53.6614646  -6.1619436  61.3333862  53.3692895  -7.0753191
  69.6040033  45.5822770  -8.4896280  68.9511483  45.8298678  -9.1443827
  69.9820413  44.7686909  -8.8233802  65.6527606  46.3242581  -2.0030243
  64.9768243  46.2236711  -1.3327867  66.4755240  46.1681795  -1.5394245
  57.4006465  52.5614518  -9.3817727  57.9859902  51.8158206  -9.2489823
  57.2031303  52.8718475  -8.4981063  58.8467154  42.0507791  -3.5177708
  59.4739193  41.6684869  -2.9040183  57.9895073  41.8321993  -3.1522015
  69.2461263  52.4570766  -1.9123972  69.7901167  53.0700725  -2.4069017
  68.6648108  53.0150345  -1.3956959  61.9553258  39.2694643  -5.3291152
  62.4787660  39.5156940  -4.5664843  61.7365591  40.1014678  -5.7488015
  56.5972537  45.6552012  -5.5504362  55.8554273  45.8034648  -4.9639732
  56.2765282  45.9160278  -6.4137613  64.5416200  55.1967991  -5.7523972
  64.8503326  54.9517137  -4.8801273  65.3391682  55.4014629  -6.2405102
  62.0835212  41.3725697  -1.8563788  62.1323367  42.2487820  -2.2386018
  62.6257726  40.8303090  -2.4292145  72.5690057  51.9166821  -2.5762651
  71.7785601  51.8990959  -3.1158152  72.3323412  52.4555114  -1.8213614
  72.6887932  48.7659287  -5.2629922  72.7385937  48.6009294  -4.3214400
  72.5801856  47.8986546  -5.6532042  69.9791695  44.7490215  -3.9470616
  70.8801558  44.6096680  -4.2386618  70.0539669  44.9144670  -3.0072438
  64.3134500  42.1257070  -5.1017429  63.4437810  42.4190636  -5.3734841
  64.5493980  42.7097515  -4.3810166  74.1906129  51.1856228  -5.0187901
  73.8990938  51.5486209  -4.1824440  73.5778261  50.4723237  -5.1974569
  72.4393317  46.3088843  -6.5507843  72.9147439  46.5016489  -7.3588991
  71.5158883  46.3648029  -6.7964459  67.0173534  38.3436687  -7.5852009
  67.5355478  39.0797714  -7.9105520  66.6628667  38.6500680  -6.7505250
  71.1394986  43.1854603  -8.3179537  72.0912409  43.2852701  -8.2967313
  70.9698437  42.3932872  -7.8081453  69.1609366  40.2710186  -8.1320136
  68.5659298  40.5515199  -8.8273648  68.8759063  40.7604087  -7.3603395
  73.7677553  43.1971766  -9.1578954  73.2516601  42.4130223  -9.3449026
  74.6517501  42.8690483  -8.9932435  65.3405088  49.3274522  -1.7009377
  66.2608097  49.5053121  -1.5069330  65.3054671  48.3830567  -1.8529677
  58.3367160  47.2375557  -9.0586595  58.5553170  48.1692664  -9.0398562
  58.7492934  46.8783531  -8.2731792  63.2095026  42.8108762   0.3316153
  63.1091752  43.7603119   0.2628245  62.9916568  42.4827001  -0.5407776
  63.0726296  46.2405901  -0.8518785  62.5893377  47.0406261  -0.6454896
  63.1587235  46.2513846  -1.8051341  58.9999633  50.1310436  -8.8150351
  59.9542887  50.0994378  -8.8820420  58.8012157  49.6701060  -8.0000125
  59.5899015  48.7011552  -6.2479553  60.4091904  49.1955631  -6.2244716
  59.8635823  47.7843520  -6.2761986  67.3687322  50.1030533  -0.0495216
  68.2378481  50.2771186  -0.4108581  66.8894073  50.9224950  -0.1719486
  59.1831420  40.1817303  -1.4512342  60.0462882  39.8254108  -1.2409018
  58.6096831  39.8431198  -0.7636938  71.7412921  53.5898020  -0.4582371
  71.3479867  53.0364218   0.2165274  72.5579062  53.9008598  -0.0675853
  69.6860909  57.3799709  -3.5177708  70.3132948  56.9976786  -2.9040183
  68.8288828  57.1613911  -3.1522015  74.0488780  58.1400680   0.3316153
  73.9485507  59.0895037   0.2628245  73.8310322  57.8118919  -0.5407776
  70.0225175  55.5109221  -1.4512342  70.8856636  55.1546025  -1.2409018
  69.4490586  55.1723115  -0.7636938   3.1496913  77.9684959  40.3067325
   2.3960621  77.3992357  40.1511330   3.2844454  77.9347623  41.2537960
   3.5603328  78.1260569  43.0387570   4.2906716  77.8645857  43.5995273
   2.9510273  77.3889290  43.0789638   1.6418625  76.2668431  43.6362021
   0.9151788  76.1324396  43.0278512   1.2265912  76.5745260  44.4418739
   1.5667492  75.7946484  39.7638874   1.0067050  75.8639673  40.5370436
   0.9610996  75.6187469  39.0438370   2.7064779  90.1954452  39.5322037
   3.4927869  89.7773875  39.1812454   2.9703484  91.1000544  39.7003686
   8.1073207  90.1329685  40.4355016   8.8398378  89.5628902  40.6692845
   7.3512562  89.7451286  40.8761521   5.6298627  83.8451259  44.8949624
   5.2981952  84.7146670  44.6710839   5.0344240  83.5287543  45.5743655
   5.5227290  88.5646345  41.9742974   4.6144168  88.4961754  41.6801735
   5.4714886  89.0418290  42.8024800   7.3888937  86.7662784  43.7520848
   6.7463317  87.0595317  43.1060643   6.8843865  86.6515704  44.5574045
   5.0429100  90.5125957  34.4406708   5.9546956  90.7453344  34.2654405
   4.5338747  91.0963001  33.8781786   2.8300383  87.5327560  47.1082731
   2.5861315  88.2869621  46.5717007   3.1060314  87.9112908  47.9429978
   2.3865075  86.6883993  42.6896569   1.5249554  86.9865247  42.9813306
   2.4127510  86.9054392  41.7577601  13.9890667  93.2976876  40.3067325
  13.2354375  92.7284274  40.1511330  14.1238208  93.2639541  41.2537960
   2.7281759  81.6920840  44.5120938   2.3846028  82.5822482  44.4360049
   3.0960721  81.5022498  43.6490523   2.6932041  91.6829452  33.0193373
   2.1778665  92.4534056  33.2581761   2.4209350  91.0094588  33.6426435
   1.8078299  84.0625496  42.4770171   1.3043095  84.0255631  41.6637977
   2.1008906  84.9718238  42.5366828   7.6666316  94.4361806  34.9546547
   6.8895758  94.0972966  34.5101709   8.3457797  94.4414429  34.2801512
   2.4818345  89.5556544  34.8453154   2.1768480  89.8702693  35.6963298
   3.4348787  89.6337964  34.8880487   4.7163081  92.2640160  39.6617096
   5.2294963  92.8970152  40.1638806   5.3664305  91.6641356  39.2960456
   1.9778960  91.1381031  37.0378117   2.7250779  91.6502429  36.7285239
   2.2470549  90.8165084  37.8982511   4.4257797  88.1738148  39.0196906
   3.6880554  87.6615534  39.3507149   4.6784571  87.7338529  38.2080183
   4.5269424  80.9514400  39.6138676   4.8328301  80.0911763  39.3264591
   5.2522029  81.5432020  39.4137670   2.3357076  90.3287077  46.7120140
   2.6906463  90.5558550  47.5714605   2.9829207  90.6605454  46.0897395
   8.0654813  93.4505513  37.4169469   7.9272711  93.6407109  36.4890658
   7.7091031  94.2124896  37.8737520   2.3552048  86.4139042  39.9643238
   2.8520747  85.6609004  39.6444308   1.5839029  86.4503358  39.3986447
  10.2081805  92.1179407  41.6061529  10.1971681  93.0004123  41.2355462
   9.3399184  91.7650958  41.4116066   6.8254380  91.0128048  38.0731695
   7.2914832  91.8456040  37.9991998   7.2761880  90.5473030  38.7776954
   4.7971042  83.3808635  42.1122597   3.8834122  83.6112862  42.2804804
   5.2264144  83.4647079  42.9636629   4.5677501  91.5698527  44.6122491
   3.9148951  91.8174434  43.9574943   4.9457881  90.7562665  44.2784968
   1.5599100  87.0166815  35.1425845   1.7762714  87.8991453  34.8414674
   1.0793167  86.6253028  34.4131487  10.8106415  93.2679626  38.2110992
  11.2537561  92.5186952  37.8130115   9.9332925  93.2589763  37.8284724
   7.6525400  94.7535043  47.8388848   7.7023405  94.5885051  48.7804371
   7.5439324  93.8862302  47.4486729   4.9429163  90.7365971  49.1548155
   5.8439026  90.5972436  48.8632152   5.0177137  90.9020426  50.0946332
  10.3539280  94.7384865  40.6033440  11.1886171  95.1774669  40.7671000
  10.4898408  94.2623518  39.7841686   7.4030786  92.2964600  46.5510927
   7.8784907  92.4892246  45.7429779   6.4796351  92.3523785  46.3054311
   1.9811002  84.3312443  45.5166761   2.4992946  85.0673470  45.1913250
   1.6266135  84.6376436  46.3513521   2.2323596  80.7512726  41.0367658
   2.5125350  80.0835915  41.6628085   3.0174203  80.9441821  40.5242322
   6.1032455  89.1730360  44.7839233   7.0549877  89.2728457  44.8051457
   5.9335905  88.3808628  45.2937317   4.1246834  86.2585943  44.9698634
   3.5296766  86.5390956  44.2745123   3.8396531  86.7479844  45.7415375
   8.5820532  92.3936479  43.8981533   8.5496852  91.4552480  44.0841217
   9.1921156  92.4720516  43.1647358   8.7315021  89.1847523  43.9439816
   8.2154069  88.4005979  43.7569745   9.6154969  88.8566239  44.1086335
   6.3925748  82.9288538  39.9035629   6.1950569  82.6203627  40.7878961
   7.0025453  83.6550177  40.0333558  14.3997082  93.4552486  43.0387570
  15.1300471  93.1937774  43.5995273  13.7904028  92.7181208  43.0789638
  12.4812379  91.5960349  43.6362021  11.7545543  91.4616314  43.0278512
  12.0659666  91.9037177  44.4418739   2.1499394  82.8097445  37.6532160
   2.7030433  83.2292899  38.3122183   2.3869481  81.8833193  37.6955116
   5.5278201  84.9197970  37.1610824   4.9476870  85.5782774  36.7788877
   5.2614134  84.0975315  36.7498242   3.9781768  84.3203028  39.3632145
   4.4781546  84.4319563  38.5546463   4.6217376  84.0164081  40.0032953
   4.3103079  87.0798061  36.2167172   3.4228934  87.3647711  35.9987367
   4.7257069  86.9191824  35.3694449   7.6617616  87.1044582  39.9321512
   8.4378006  87.5941034  40.2046129   6.9365750  87.5302636  40.3893381
  10.0990174  87.8172201  40.9895452  10.6934665  87.5767937  40.2788761
  10.1716758  87.0979332  41.6168989   4.2844103  92.5952597  36.4317463
   4.2279305  93.0521148  35.5925095   4.8372446  91.8343281  36.2540305
   8.0948909  88.3842329  37.2567582   7.8385843  87.9838964  38.0875790
   7.4701777  89.0986123  37.1317721  12.4061247  91.1238402  39.7638874
  11.8460805  91.1931591  40.5370436  11.8004750  90.9479386  39.0438370
   2.1427127  79.8808264  37.5601247   1.3759523  79.3266750  37.7057929
   2.5537832  79.9530132  38.4215399  15.3663179  96.2806317  39.6138676
  15.6722056  95.4203681  39.3264591  16.0915784  96.8723938  39.4137670
  13.0717351  96.0804643  41.0367658  13.3519104  95.4127832  41.6628085
  13.8567958  96.2733739  40.5242322  12.9820882  95.2100181  37.5601247
  12.2153278  94.6558668  37.7057929  13.3931587  95.2822050  38.4215399
   3.1496914  54.9747081  27.0312632   2.3960622  54.4054479  26.8756636
   3.2844455  54.9409746  27.9783267   3.5603329  55.1322691  29.7632876
   4.2906717  54.8707979  30.3240580   2.9510274  54.3951413  29.8034944
   1.6418626  53.2730554  30.3607327   0.9151790  53.1386519  29.7523819
   1.2265913  53.5807382  31.1664045   1.5667494  52.8008607  26.4884180
   1.0067052  52.8701796  27.2615742   0.9610997  52.6249591  25.7683676
   3.1523512  69.4765121  29.1814136   3.7901922  69.3571868  28.4777476
   3.0344355  70.4245965  29.2402088   2.7064781  67.2016575  26.2567344
   3.4927870  66.7835998  25.9057761   2.9703485  68.1062667  26.4248992
   2.8774858  72.6389425  20.9556001   2.2420691  72.7124051  21.6676905
   2.5472264  73.2283024  20.2775080   8.1073208  67.1391808  27.1600322
   8.8398380  66.5691025  27.3938152   7.3512563  66.7513408  27.6006828
   5.6298628  60.8513382  31.6194931   5.2981953  61.7208793  31.3956146
   5.0344242  60.5349666  32.2988961   2.1230148  73.0525928  31.0190844
   1.8230871  73.9550967  30.9106651   1.7781207  72.7858111  31.8711997
   5.5227291  65.5708468  28.6988281   4.6144169  65.5023876  28.4047042
   5.4714887  66.0480413  29.5270107   7.3888938  63.7724906  30.4766155
   6.7463318  64.0657440  29.8305950   6.8843866  63.6577827  31.2819352
   5.0429102  67.5188080  21.1652014   5.9546958  67.7515466  20.9899712
   4.5338749  68.1025124  20.6027093   3.3269869  71.9412707  34.8013307
   3.7353225  71.4995118  34.0567939   2.6047131  71.3665335  35.0547500
   3.6498684  72.5013898  28.5565596   3.0207546  72.6659612  27.8541664
   3.2624346  72.9155508  29.3276560   7.5287916  73.4368336  25.9109960
   6.8438954  73.8167237  25.3606993   7.6131765  74.0463663  26.6441907
   2.8300385  64.5389683  33.8328037   2.5861316  65.2931743  33.2962313
   3.1060315  64.9175030  34.6675285   4.7838847  71.0828295  32.5105303
   4.9955743  71.7260055  31.8339684   4.7368596  70.2490612  32.0427233
   2.3865076  63.6946116  29.4141875   1.5249555  63.9927369  29.7058613
   2.4127511  63.9116515  28.4822908   5.8984675  73.9600250  30.6827660
   6.7202119  73.5580438  30.4010342   5.8947078  73.8568485  31.6343776
  13.9890668  70.3038999  27.0312632  13.2354377  69.7346397  26.8756636
  14.1238210  70.2701663  27.9783267   1.0057773  75.7975968  36.8367693
   0.5621627  75.0112346  36.5188598   1.6674986  75.9855118  36.1711584
   3.1039011  76.0778768  34.8649095   3.0857486  76.8987649  34.3729364
   4.0258931  75.9532843  35.0899236   2.7281760  58.6982963  31.2366245
   2.3846029  59.5884605  31.1605355   3.0960723  58.5084621  30.3735830
   2.6932043  68.6891574  19.7438680   2.1778666  69.4596179  19.9827067
   2.4209351  68.0156710  20.3671741   1.8078300  61.0687618  29.2015478
   1.3043096  61.0317753  28.3883283   2.1008907  61.9780361  29.2612135
   7.6666317  71.4423929  21.6791853   6.8895760  71.1035088  21.2347015
   8.3457798  71.4476552  21.0046818   2.4818346  66.5618666  21.5698461
   2.1768481  66.8764815  22.4208604   3.4348788  66.6400086  21.6125794
   5.9057624  70.9157910  28.3358461   5.2481298  71.6057171  28.4238590
   6.7098023  71.3054342  28.6792448   4.7163083  69.2702283  26.3862403
   5.2294964  69.9032275  26.8884113   5.3664306  68.6703478  26.0205763
   1.9778961  68.1443154  23.7623424   2.7250780  68.6564551  23.4530546
   2.2470551  67.8227207  24.6227817   5.4824879  74.2508284  24.5141546
   5.0287206  73.4099194  24.5706736   4.8518845  74.8869683  24.8516326
   4.4257798  65.1800270  25.7442213   3.6880555  64.6677656  26.0752456
   4.6784572  64.7400652  24.9325490   3.9257818  76.0884781  25.4491364
   4.2180792  76.6489838  24.7303729   4.4356439  76.3813342  26.2044523
   4.5269426  57.9576522  26.3383982   4.8328302  57.0973886  26.0509897
   5.2522030  58.5494142  26.1382976   2.3357077  67.3349200  33.4365446
   2.6906465  67.5620673  34.2959912   2.9829208  67.6667576  32.8142701
   8.0654814  70.4567635  24.1414775   7.9272712  70.6469231  23.2135964
   7.7091033  71.2187018  24.5982826   8.0924193  72.5244162  29.1526047
   8.5260700  72.4319452  30.0009101   8.8055774  72.5001663  28.5146063
   1.8252088  76.1246257  30.6859147   1.8789111  76.6937193  31.4536863
   0.9566870  76.2948142  30.3213184   8.9539743  72.5667863  31.6858932
   9.1475633  73.4713674  31.9318207   8.8540361  72.1075282  32.5197517
   4.0154852  72.7174606  37.2599813   3.8640358  72.4885158  36.3429896
   4.0059531  73.6745207  37.2731158   1.1333735  73.6938786  27.4033455
   0.7983568  73.6539556  28.2991104   0.6337681  73.0283502  26.9303865
   5.7247058  75.7493728  35.3376295   5.6659605  75.0652948  34.6706878
   6.1266577  76.4912718  34.8856921   5.7264466  73.7133312  33.5690274
   4.8391244  73.3759234  33.6916673   6.2963017  72.9816344  33.8059040
   2.3552049  63.4201164  26.6888544   2.8520748  62.6671126  26.3689615
   1.5839030  63.4565481  26.1231754  10.2081806  69.1241530  28.3306836
  10.1971682  70.0066245  27.9600769   9.3399186  68.7713081  28.1361373
   1.7164303  78.2721599  32.6909676   2.4292275  78.9069064  32.6185578
   1.2254331  78.3685465  31.8749678   3.4381829  72.1772851  24.2626968
   2.5038108  72.2974314  24.0931672   3.6158498  71.2745318  23.9986978
   6.8254381  68.0190171  24.7977002   7.2914833  68.8518162  24.7237305
   7.2761881  67.5535152  25.5022260   4.8930612  74.3633992  21.7963154
   5.1690456  74.2490587  22.7057028   4.0235111  73.9651477  21.7575327
   4.7971044  60.3870758  28.8367903   3.8834123  60.6174984  29.0050110
   5.2264145  60.4709202  29.6881936   4.5677502  68.5760650  31.3367797
   3.9148952  68.8236557  30.6820250   4.9457882  67.7624788  31.0030275
   1.5284676  78.6120343  25.4395968   1.7107070  77.7941999  25.9023720
   2.3517662  78.8288035  25.0020858   1.8626841  77.5388528  22.7011016
   2.3914608  77.0280982  22.0881178   2.1255061  77.2231058  23.5656549
   4.2098732  75.4508646  37.9140105   4.7538636  76.0638604  37.4195060
   3.6285577  76.0088224  38.4307118   2.4956245  78.5729364  29.0455133
   2.3707385  77.7719103  28.5366078   3.1535336  79.0675557  28.5569103
   4.5591154  76.3738384  30.6734683   3.6121489  76.2543735  30.6013009
   4.9073927  75.4860882  30.7560944   1.5637587  76.1691100  26.8739035
   1.4162549  75.2407807  27.0546605   2.3891080  76.1911191  26.3896110
   5.1671709  76.9919659  27.9603908   6.0918256  76.7862520  27.8228359
   4.9987012  76.7436060  28.8693249   1.5599101  64.0228938  21.8671152
   1.7762716  64.9053575  21.5659980   1.0793168  63.6315151  21.1376794
   4.9567025  77.5105326  23.3165999   5.1303903  76.9451749  22.5639852
   5.4495916  78.3106221  23.1345489  10.8106416  70.2741749  24.9356299
  11.2537562  69.5249074  24.5375422   9.9332926  70.2651885  24.5530031
   5.9442197  76.8272091  20.4162897   6.6393102  77.4478783  20.6350212
   6.2865348  75.9767442  20.6915275   7.8433621  74.2771796  21.9450228
   8.3684945  74.6159069  21.2199548   7.7555973  73.3418811  21.7613363
   7.5327527  74.9104700  37.2501426   6.7423070  74.8928839  36.7105925
   7.2960881  75.4492993  38.0050463   7.6525402  71.7597166  34.5634155
   7.7023407  71.5947174  35.5049677   7.5439325  70.8924425  34.1732035
   4.9429164  67.7428094  35.8793461   5.8439027  67.6034559  35.5877459
   5.0177139  67.9082549  36.8191639   9.1543599  74.1794108  34.8076176
   8.8628407  74.5424088  35.6439637   8.5415730  73.4661116  34.6289508
  10.3539281  71.7446987  27.3278746  11.1886172  72.1836791  27.4916307
  10.4898410  71.2685641  26.5086992   7.4030787  69.3026722  33.2756234
   7.8784908  69.4954369  32.4675086   6.4796352  69.3585908  33.0299618
   1.9811003  61.3374566  32.2412068   2.4992947  62.0735593  31.9158557
   1.6266136  61.6438559  33.0758827   2.2323597  57.7574848  27.7612965
   2.5125351  57.0898037  28.3873391   3.0174204  57.9503944  27.2487628
   6.1032456  66.1792482  31.5084540   7.0549879  66.2790580  31.5296764
   5.9335906  65.3870751  32.0182624   4.1246835  63.2648066  31.6943941
   3.5296767  63.5453078  30.9990429   3.8396532  63.7541966  32.4660682
   8.5820534  69.3998602  30.6226839   8.5496854  68.4614603  30.8086523
   9.1921157  69.4782639  29.8892664   8.7315022  66.1909645  30.6685123
   8.2154071  65.4068102  30.4815051   9.6154971  65.8628362  30.8331642
   6.3925749  59.9350661  26.6280935   6.1950570  59.6265749  27.5124267
   7.0025455  60.6612300  26.7578865  14.3997083  70.4614609  29.7632876
  15.1300472  70.1999897  30.3240580  13.7904029  69.7243331  29.8034944
  12.4812381  68.6022471  30.3607327  11.7545544  68.4678436  29.7523819
  12.0659667  68.9099300  31.1664045   2.1499396  59.8159568  24.3777467
   2.7030434  60.2355021  25.0367490   2.3869482  58.8895316  24.4200423
   5.5278203  61.9260093  23.8856131   4.9476872  62.5844897  23.5034183
   5.2614135  61.1037438  23.4743548   3.9781769  61.3265151  26.0877451
   4.4781547  61.4381685  25.2791770   4.6217377  61.0226204  26.7278260
   4.3103081  64.0860183  22.9412479   3.4228936  64.3709834  22.7232674
   4.7257070  63.9253947  22.0939756   7.6617617  64.1106704  26.6566818
   8.4378007  64.6003157  26.9291435   6.9365751  64.5364759  27.1138688
  10.0990175  64.8234324  27.7140759  10.6934666  64.5830060  27.0034067
  10.1716759  64.1041454  28.3414295   4.2844104  69.6014719  23.1562769
   4.2279306  70.0583271  22.3170402   4.8372447  68.8405404  22.9785612
   8.0948910  65.3904451  23.9812889   7.8385845  64.9901087  24.8121096
   7.4701778  66.1048245  23.8563028  12.4061248  68.1300524  26.4884180
  11.8460806  68.1993714  27.2615742  11.8004752  67.9541509  25.7683676
   5.3632992  74.2887387  19.0858959   6.1978595  73.8568586  18.9036434
   5.2017334  74.1169401  20.0135854   5.0178884  70.7919501  20.4515298
   4.9627688  70.6263772  19.5103743   4.3924939  71.4995533  20.6077488
   2.3324791  73.0968412  39.7768861   3.2015951  73.2709065  39.4155496
   1.8531542  73.9162829  39.6544591   2.1427129  56.8870386  24.2846554
   1.3759524  56.3328873  24.4303236   2.5537834  56.9592255  25.1460705
  13.9917267  84.8057038  29.1814136  14.6295677  84.6863786  28.4777476
  13.8738110  85.7537882  29.2402088  10.8006973  84.7584466  29.1175661
  10.4625484  84.6425531  28.2296195  11.6696741  84.3575632  29.0976667
   6.6593789  86.6119943  25.1072552   6.0958654  86.5209880  24.3388839
   6.5446184  85.7919847  25.5875044  11.2826756  85.9119318  35.0761866
  11.2715397  85.5172116  34.2042370  11.4447395  85.1785391  35.6695638
   4.2058221  88.1071135  27.9456772   4.9979512  87.7661959  27.5303071
   4.4454871  88.2166110  28.8658925   8.0034017  88.6956430  34.0241050
   7.7123883  89.6002061  33.9087716   8.6391001  88.7372958  34.7385120
   8.9290224  86.0733279  30.6142410   9.5253796  85.8489301  29.8999373
   8.9865195  85.3318024  31.2167858  13.5458535  82.5308492  26.2567344
  14.3321624  82.1127915  25.9057761  13.8097239  83.4354584  26.4248992
  13.7168612  87.9681343  20.9556001  13.0814445  88.0415969  21.6676905
  13.3866019  88.5574941  20.2775080  18.9466962  82.4683725  27.1600322
  19.6792134  81.8982942  27.3938152  18.1906318  82.0805326  27.6006828
  10.5643082  84.8910967  24.3563665  10.2001289  84.3641588  25.0676586
  11.4210198  84.5009436  24.1830150  16.4692383  76.1805300  31.6194931
  16.1375707  77.0500711  31.3956146  15.8737996  75.8641584  32.2988961
  10.2048569  79.9200867  19.3525013  10.3722971  80.7881103  19.7195484
  10.0145738  80.0828148  18.4286303  12.9623902  88.3817846  31.0190844
  12.6624625  89.2842884  30.9106651  12.6174962  88.1150029  31.8711997
   6.4136384  84.8331642  27.0527548   5.4886880  84.7007856  27.2605240
   6.6620797  85.6125862  27.5497491  16.3621046  80.9000386  28.6988281
  15.4537923  80.8315794  28.4047042  16.3108642  81.3772331  29.5270107
  10.1837790  82.3758524  20.3371680  10.0637415  82.8215575  21.1757161
   9.4890378  82.7243842  19.7785218   3.7745195  84.4764916  27.8871337
   3.9037576  84.7299395  28.8010749   3.0942646  85.0692624  27.5675992
  10.4361912  82.3190031  36.6423178   9.6595246  82.8783951  36.6326043
  11.0752475  82.8046814  37.1638048  18.2282692  79.1016824  30.4766155
  17.5857073  79.3949357  29.8305950  17.7237621  78.9869744  31.2819352
  15.8822856  82.8479997  21.1652014  16.7940712  83.0807384  20.9899712
  15.3732503  83.4317042  20.6027093   8.6908284  85.1275485  36.2041145
   9.4322968  85.6660529  35.9275969   7.9845269  85.7541773  36.3612697
  14.1663624  87.2704625  34.8013307  14.5746980  86.8287036  34.0567939
  13.4440885  86.6957253  35.0547500  10.5194694  82.2077232  32.1746864
  11.3655889  82.6316645  32.3181513  10.4593331  81.5510856  32.8685427
  14.4892438  87.8305816  28.5565596  13.8601301  87.9951530  27.8541664
  14.1018100  88.2447425  29.3276560  18.3681670  88.7660254  25.9109960
  17.6832708  89.1459155  25.3606993  18.4525520  89.3755580  26.6441907
  13.6694139  79.8681600  33.8328037  13.4255071  80.6223661  33.2962313
  13.9454070  80.2466948  34.6675285  15.6232602  86.4120213  32.5105303
  15.8349497  87.0551973  31.8339684  15.5762350  85.5782529  32.0427233
  13.2258831  79.0238033  29.4141875  12.3643310  79.3219287  29.7058613
  13.2521265  79.2408432  28.4822908  10.0420400  87.5680224  25.8215681
  10.5058746  87.8467927  25.0320303   9.7777198  86.6663668  25.6388772
   6.9344481  87.1151705  28.7595444   7.5045838  87.5438974  28.1212929
   7.5252593  86.8334290  29.4579630   8.9789286  83.6903376  22.6305246
   9.6813330  84.1424420  23.0979172   8.6469915  83.0487195  23.2585139
   7.4269648  82.2815133  37.0056455   6.7968308  82.9631414  37.2391852
   7.3205736  82.1698214  36.0609594   2.7214620  81.9486929  27.9322380
   1.9313674  82.2044457  27.4562490   3.2125868  82.7635267  28.0374420
  16.7378430  89.2892168  30.6827660  17.5595873  88.8872355  30.4010342
  16.7340833  89.1860402  31.6343776   4.6729366  82.3131508  24.8905856
   3.8760529  82.4250202  25.4089352   4.4454958  82.6518160  24.0246747
  10.5035033  88.8376211  32.8388371  10.5679466  89.2996619  33.6746543
   9.7945957  88.2073576  32.9670681   1.0052323  82.2017419  30.3637370
   1.2560362  83.0864429  30.6294946   1.5411872  82.0222021  29.5912462
  24.8284423  85.6330917  27.0312632  24.0748131  85.0638315  26.8756636
  24.9631964  85.5993581  27.9783267   6.7050390  76.5835899  39.3681706
   6.3117336  76.0302097  40.0429351   7.5216531  76.8946477  39.7588224
   9.6218351  77.9993778  36.9601963  10.3628065  78.6000931  36.8806425
   9.8536274  77.2571416  36.4020006   4.7659690  83.1850145  35.2380193
   4.6513205  82.2835402  35.5387292   3.9104207  83.4313842  34.8865009
  11.8451527  91.1267885  36.8367693  11.4015381  90.3404264  36.5188598
  12.5068741  91.3147036  36.1711584   6.6038648  92.6563687  31.3628372
   7.1546074  92.5280750  30.5905366   5.7650124  92.9558576  31.0123265
  13.9432765  91.4070685  34.8649095  13.9251241  92.2279566  34.3729364
  14.8652685  91.2824761  35.0899236  10.4005819  88.9214815  35.7072603
  10.9334156  88.1603103  35.4771911   9.8719901  88.6288467  36.4496757
  13.5675514  74.0274881  31.2366245  13.2239784  74.9176522  31.1605355
  13.9354477  73.8376538  30.3735830  13.5325797  84.0183492  19.7438680
  13.0172421  84.7888096  19.9827067  13.2603106  83.3448628  20.3671741
  11.1172908  78.8633193  24.8023918  10.2614505  78.4740043  24.6229557
  11.5299860  78.9425153  23.9423704  12.6472055  76.3979536  29.2015478
  12.1436850  76.3609671  28.3883283  12.9402662  77.3072279  29.2612135
   8.8914941  76.4818266  28.2081660   9.7567937  76.2861074  27.8487549
   8.9592450  76.2528617  29.1351016  18.5060071  86.7715846  21.6791853
  17.7289514  86.4327006  21.2347015  19.1851552  86.7768470  21.0046818
  13.3212100  81.8910584  21.5698461  13.0162236  82.2056733  22.4208604
  14.2742542  81.9692004  21.6125794  11.7658532  88.0500807  23.2191415
  11.2379894  87.3153567  22.9064652  11.2646035  88.8275484  22.9731383
  16.7451378  86.2449828  28.3358461  16.0875053  86.9349089  28.4238590
  17.5491777  86.6346260  28.6792448   6.4977260  78.7120474  25.5798026
   7.0721012  78.4895655  24.8471219   7.0848242  78.7809168  26.3326628
  15.5556837  84.5994200  26.3862403  16.0688719  85.2324192  26.8884113
  16.2058061  83.9995396  26.0205763   8.7999927  75.5861722  24.3073096
   8.1464340  75.2710740  23.6829711   8.7580402  74.9637463  25.0332919
  12.0337668  82.0743656  28.6320744  11.1160229  82.2958603  28.4742432
  12.4497811  82.1489966  27.7732451  12.8172716  83.4735072  23.7623424
  13.5644535  83.9856469  23.4530546  13.0864305  83.1519124  24.6227817
  16.3218633  89.5800202  24.5141546  15.8680960  88.7391112  24.5706736
  15.6912600  90.2161600  24.8516326  15.2651553  80.5092188  25.7442213
  14.5274310  79.9969574  26.0752456  15.5178326  80.0692570  24.9325490
  14.7651572  91.4176699  25.4491364  15.0574547  91.9781756  24.7303729
  15.2750193  91.7105260  26.2044523  15.3663180  73.2868440  26.3383982
  15.6722057  72.4265803  26.0509897  16.0915785  73.8786060  26.1382976
   9.6384260  83.5822233  26.8460173   9.6932870  82.6296069  26.7702650
   8.8275462  83.7381672  27.3301472   7.5776620  82.1999293  24.6050552
   6.7644485  82.4993463  25.0115744   8.0735614  81.8054981  25.3225035
   9.7285198  92.1957050  26.5384817   9.6861376  92.4217896  25.6093349
  10.6447896  91.9620424  26.6870618  13.1750831  82.6641117  33.4365446
  13.5300219  82.8912590  34.2959912  13.8222963  82.9959494  32.8142701
  18.9048568  85.7859553  24.1414775  18.7666467  85.9761149  23.2135964
  18.5484787  86.5478936  24.5982826   7.0690695  79.7717648  30.2211787
   7.7090074  79.6306407  29.5234751   6.2368225  79.4852162  29.8450389
  18.9317948  87.8536080  29.1526047  19.3654455  87.7611369  30.0009101
  19.6449529  87.8293581  28.5146063   7.8450998  89.0720079  26.3346780
   8.6391597  88.5770399  26.1329355   7.1342691  88.5437942  25.9714485
  12.6645843  91.4538174  30.6859147  12.7182865  92.0229111  31.4536863
  11.7960624  91.6240059  30.3213184   4.0719311  79.7417973  24.9984774
   4.3326128  80.6563306  24.8893935   4.8936483  79.2742416  25.1481387
   5.5444236  81.1555730  32.1683599   6.2167290  80.9473093  31.5196247
   4.7174023  80.9577816  31.7288831  19.7933498  87.8959781  31.6858932
  19.9869388  88.8005591  31.9318207  19.6934116  87.4367200  32.5197517
  11.4469808  77.7817671  34.1849259  10.7997723  78.4807621  34.0913736
  12.2170824  78.2153815  34.5525508  14.8548606  88.0466523  37.2599813
  14.7034113  87.8177075  36.3429896  14.8453286  89.0037125  37.2731158
  11.6233943  85.6198436  32.2446079  12.5526003  85.7709596  32.0715046
  11.2024973  85.7082457  31.3894726  10.4222274  89.6449101  30.0144617
  10.2833360  89.2767885  30.8870555   9.6336871  90.1596740  29.8428575
  11.9727490  89.0230703  27.4033455  11.6377322  88.9831473  28.2991104
  11.4731435  88.3575419  26.9303865   5.9471734  84.4298333  32.9286036
   5.8091531  83.6978572  33.5297575   6.8576657  84.3407233  32.6470223
   8.5754034  84.1418293  32.4169715   9.2853653  83.5011485  32.3756334
   8.5323342  84.3931188  33.3395896  16.5640813  91.0785646  35.3376295
  16.5053359  90.3944866  34.6706878  16.9660331  91.8204636  34.8856921
   7.2882968  81.1283511  34.2365355   6.7520325  80.6774249  34.8886951
   6.6999677  81.2629419  33.4935819  16.5658220  89.0425230  33.5690274
  15.6784999  88.7051152  33.6916673  17.1356771  88.3108261  33.8059040
   3.0222089  80.2639518  31.3218349   2.9380278  79.6565188  30.5868759
   2.2004796  80.7548537  31.3227846  10.0959374  93.7026682  30.5351517
  10.0229545  94.5081654  31.0470822   9.6536767  93.9018648  29.7099539
  13.1945803  78.7493082  26.6888544  13.6914503  77.9963044  26.3689615
  12.4232785  78.7857398  26.1231754  21.0475561  84.4533447  28.3306836
  21.0365437  85.3358163  27.9600769  20.1792940  84.1004998  28.1361373
  12.5558057  93.6013516  32.6909676  13.2686029  94.2360981  32.6185578
  12.0648086  93.6977382  31.8749678  14.2775584  87.5064769  24.2626968
  13.3431863  87.6266231  24.0931672  14.4552252  86.6037236  23.9986978
   9.7780772  80.8910465  26.4160229   9.4078560  80.3381505  27.1041135
  10.2739864  80.2868598  25.8635229  17.6648135  83.3482088  24.7977002
  18.1308588  84.1810080  24.7237305  18.1155636  82.8827070  25.5022260
   7.6069971  91.3507960  33.5115247   8.3079430  91.9844443  33.6644641
   7.1365086  91.6922691  32.7510886  15.7324366  89.6925910  21.7963154
  16.0084210  89.5782504  22.7057028  14.8628865  89.2943394  21.7575327
  15.6364798  75.7162675  28.8367903  14.7227878  75.9466902  29.0050110
  16.0657900  75.8001119  29.6881936  15.4071257  83.9052567  31.3367797
  14.7542707  84.1528475  30.6820250  15.7851636  83.0916705  31.0030275
  12.3678430  93.9412260  25.4395968  12.5500825  93.1233916  25.9023720
  13.1911416  94.1579953  25.0020858  12.7020596  92.8680446  22.7011016
  13.2308362  92.3572900  22.0881178  12.9648816  92.5522976  23.5656549
  11.4558830  84.6472378  37.8233834  10.7799467  84.5466508  38.4936210
  12.2786463  84.4911592  38.2869832   3.2037689  90.8844315  30.4446350
   3.7891125  90.1388003  30.5774254   3.0062527  91.1948272  31.3283014
   5.1746106  78.3014456  32.6613335   5.2387432  79.1629286  32.2490733
   5.1113226  77.6888457  31.9285694   4.6498378  80.3737588  36.3086369
   5.2770417  79.9914665  36.9223894   3.7926297  80.1551790  36.6742062
  15.0492487  90.7800563  37.9140105  15.5932391  91.3930522  37.4195060
  14.4679332  91.3380142  38.4307118  13.3350000  93.9021281  29.0455133
  13.2101139  93.1011021  28.5366078  13.9929091  94.3967475  28.5569103
   4.9558168  80.2570014  28.2232273   4.2344754  80.8705982  28.0839746
   5.7451424  80.7927779  28.1448919  15.3984908  91.7030301  30.6734683
  14.4515244  91.5835653  30.6013009  15.7467681  90.8152799  30.7560944
   7.7584481  77.5924440  34.4972925   8.2818883  77.8386737  35.2599234
   7.5396815  78.4244475  34.0776062  12.4031341  91.4983018  26.8739035
  12.2556304  90.5699725  27.0546605  13.2284835  91.5203108  26.3896110
   6.2693586  80.1501085  22.7319527   6.6089658  80.6787006  22.0098135
   6.7165706  80.4881491  23.5078094  16.0065463  92.3211576  27.9603908
  16.9312011  92.1154438  27.8228359  15.8380767  92.0727978  28.8693249
   8.9637027  78.5338135  32.1822595   8.6233847  77.7345948  32.5843275
   8.2576033  78.8339846  31.6099428   9.6153498  75.6187448  30.6349918
  10.4379568  75.1447926  30.5128808   9.8591562  76.3977932  31.1348604
   8.2561733  78.6475706  20.9312820   8.9770095  79.0256959  20.4276537
   7.6327037  79.3664583  21.0347798  12.3992856  79.3520855  21.8671152
  12.6156470  80.2345493  21.5659980  11.9186923  78.9607069  21.1376794
   7.1392077  82.3106568  28.4441897   6.9936658  82.6246872  29.3366178
   6.6617281  82.9291469  27.8912795   8.9988460  79.3009116  28.4922786
   8.9850029  78.4050210  28.1555084   9.7160888  79.3079780  29.1261072
  10.8514591  79.7346457  30.5375914  10.5932369  80.6563527  30.5360244
  10.3199631  79.3376891  31.2276378  15.7960779  92.8397244  23.3165999
  15.9697657  92.2743666  22.5639852  16.2889671  93.6398139  23.1345489
   1.6137739  84.8511913  31.3829558   1.0691207  85.6271721  31.5149832
   2.4917089  85.1982717  31.2248679   8.4025356  78.1823497  23.7610356
   8.5241267  77.2540143  23.9601244   8.1127398  78.1962183  22.8488672
  11.2716546  75.8678407  26.8977076  11.2938243  75.9317740  25.9429056
  11.6884605  75.0282916  27.0917582  21.6500171  85.6033667  24.9356299
  22.0931317  84.8540992  24.5375422  20.7726681  85.5943803  24.5530031
  16.7835952  92.1564008  20.4162897  17.4786857  92.7770701  20.6350212
  17.1259102  91.3059359  20.6915275   2.4003761  83.9781809  34.2759715
   1.6585497  84.1264445  34.8624345   2.0796505  84.2390075  33.4126464
  18.6827375  89.6063714  21.9450228  19.2078699  89.9450986  21.2199548
  18.5949728  88.6710729  21.7613363  10.3447424  93.5197787  34.0740105
  10.6534550  93.2746934  34.9462804  11.1422906  93.7244426  33.5858975
  10.3668036  95.6735697  26.3045481   9.9273026  95.1812076  26.9978338
  11.1176153  95.1308665  26.0637557   7.8141908  91.2173706  28.3767783
   7.1921917  90.5544411  28.0770011   8.4846775  91.2434838  27.6941431
   7.8866435  79.6955494  37.9700289   7.9354591  80.5717617  37.5878059
   8.4288950  79.1532887  37.3971932  18.3721281  90.2396617  37.2501426
  17.5816825  90.2220756  36.7105925  18.1354636  90.7784911  38.0050463
  18.4919156  87.0889084  34.5634155  18.5417161  86.9239091  35.5049677
  18.3833080  86.2216343  34.1732035  15.7822919  83.0720012  35.8793461
  16.6832781  82.9326477  35.5877459  15.8570893  83.2374467  36.8191639
  10.1165724  80.4486867  34.7246648   9.2469033  80.7420433  34.4529236
  10.3525204  81.0327312  35.4453911  19.9937353  89.5086025  34.8076176
  19.7022161  89.8716006  35.6439637  19.3809484  88.7953034  34.6289508
  21.1933035  87.0738905  27.3278746  22.0279927  87.5128709  27.4916307
  21.3292164  86.5977558  26.5086992  18.2424541  84.6318640  33.2756234
  18.7178663  84.8246286  32.4675086  17.3190107  84.6877826  33.0299618
  12.8204758  76.6666483  32.2412068  13.3386702  77.4027510  31.9158557
  12.4659891  76.9730477  33.0758827  13.0717352  73.0866766  27.7612965
  13.3519106  72.4189955  28.3873391  13.8567959  73.2795862  27.2487628
  16.9426210  81.5084400  31.5084540  17.8943633  81.6082498  31.5296764
  16.7729661  80.7162669  32.0182624  14.9640590  78.5939983  31.6943941
  14.3690522  78.8744996  30.9990429  14.6790286  79.0833884  32.4660682
  19.4214288  84.7290520  30.6226839  19.3890608  83.7906520  30.8086523
  20.0314912  84.8074556  29.8892664  19.5708777  81.5201563  30.6685123
  19.0547825  80.7360020  30.4815051  20.4548725  81.1920280  30.8331642
  17.2319503  75.2642579  26.6280935  17.0344325  74.9557667  27.5124267
  17.8419209  75.9904218  26.7578865  25.2390838  85.7906527  29.7632876
  25.9694226  85.5291815  30.3240580  24.6297783  85.0535248  29.8034944
  23.3206135  83.9314389  30.3607327  22.5939299  83.7970354  29.7523819
  22.9053422  84.2391218  31.1664045  11.1436311  87.6504319  38.1254700
  12.0639321  87.8282918  38.3194747  11.1085894  86.7060364  37.9734400
   4.1398384  85.5605353  30.7677482   4.3584394  86.4922461  30.7865515
   4.5524158  85.2013328  31.5532285  11.0602602  76.0673439  22.7553170
  10.2503330  75.7220524  23.1308416  11.7487019  75.7580982  23.3440782
  12.9893150  75.1451486  24.3777467  13.5424189  75.5646939  25.0367490
  13.2263236  74.2187234  24.4200423   9.0126249  81.1338559  40.1580231
   8.9122976  82.0832916  40.0892322   8.7947791  80.8056798  39.2856301
  16.3671957  77.2552011  23.8856131  15.7870626  77.9136815  23.5034183
  16.1007890  76.4329355  23.4743548  14.8175524  76.6557068  26.0877451
  15.3175302  76.7673603  25.2791770  15.4611131  76.3518121  26.7278260
   8.8757519  84.5635698  38.9745292   8.3924601  85.3636058  39.1809181
   8.9618458  84.5743643  38.0212736   4.8030857  88.4540233  31.0113726
   5.7574110  88.4224175  30.9443658   4.6043380  87.9930856  31.8263952
   5.3930239  87.0241349  33.5784524   6.2123128  87.5185427  33.6019361
   5.6667047  86.1073317  33.5502091  15.1496835  79.4152101  22.9412479
  14.2622690  79.7001752  22.7232674  15.5650824  79.2545864  22.0939756
  18.5011371  79.4398622  26.6566818  19.2771761  79.9295075  26.9291435
  17.7759505  79.8656676  27.1138688  20.9383930  80.1526241  27.7140759
  21.5328421  79.9121977  27.0034067  21.0110514  79.4333372  28.3414295
  15.1237859  84.9306637  23.1562769  15.0673060  85.3875188  22.3170402
  15.6766201  84.1697322  22.9785612  18.9342665  80.7196369  23.9812889
  18.6779599  80.3193005  24.8121096  18.3095533  81.4340163  23.8563028
  23.2455003  83.4592442  26.4884180  22.6854561  83.5285631  27.2615742
  22.6398506  83.2833427  25.7683676  16.2026746  89.6179305  19.0858959
  17.0372350  89.1860503  18.9036434  16.0411089  89.4461319  20.0135854
  15.8572638  86.1211418  20.4515298  15.8021442  85.9555690  19.5103743
  15.2318694  86.8287451  20.6077488  13.1718545  88.4260330  39.7768861
  14.0409705  88.6000982  39.4155496  12.6925297  89.2454747  39.6544591
   9.1668764  75.6219527  20.0300617   9.1547434  76.5661367  20.1868888
  10.0592186  75.4389673  19.7360078   9.0958328  94.2988418  28.1168374
   8.1453959  94.2990279  28.0032746   9.3990814  93.5521152  27.6004408
  12.9820883  72.2162304  24.2846554  12.2153279  71.6620791  24.4303236
  13.3931588  72.2884173  25.1460705   4.9862644  78.5047100  38.3751735
   5.8494106  78.1483905  38.5855059   4.4128055  78.1660995  39.0627139
  24.3852290  97.8600410  26.2567344  25.1715379  97.4419833  25.9057761
  24.6490994  98.7646502  26.4248992  29.7860717  97.7975643  27.1600322
  30.5185889  97.2274860  27.3938152  29.0300072  97.4097244  27.6006828
  27.3086137  91.5097217  31.6194931  26.9769462  92.3792628  31.3956146
  26.7131750  91.1933501  32.2988961  21.0442323  95.2492784  19.3525013
  21.2116726  96.1173021  19.7195484  20.8539493  95.4120066  18.4286303
  27.2014800  96.2292303  28.6988281  26.2931678  96.1607712  28.4047042
  27.1502396  96.7064248  29.5270107  21.0231544  97.7050442  20.3371680
  20.9031170  98.1507493  21.1757161  20.3284133  98.0535759  19.7785218
  21.2755666  97.6481949  36.6423178  20.4989000  98.2075869  36.6326043
  21.9146229  98.1338732  37.1638048  29.0676447  94.4308742  30.4766155
  28.4250827  94.7241275  29.8305950  28.5631375  94.3161662  31.2819352
  26.7216610  98.1771915  21.1652014  27.6334467  98.4099302  20.9899712
  26.2126258  98.7608959  20.6027093  21.3588448  97.5369150  32.1746864
  22.2049643  97.9608563  32.3181513  21.2987086  96.8802774  32.8685427
  24.5087894  95.1973518  33.8328037  24.2648825  95.9515578  33.2962313
  24.7847824  95.5758866  34.6675285  24.0652585  94.3529951  29.4141875
  23.2037064  94.6511205  29.7058613  24.0915020  94.5700350  28.4822908
  19.8183041  99.0195294  22.6305246  20.5207084  99.4716338  23.0979172
  19.4863669  98.3779113  23.2585139  18.2663402  97.6107051  37.0056455
  17.6362063  98.2923331  37.2391852  18.1599490  97.4990132  36.0609594
  35.6678177 100.9622834  27.0312632  34.9141886 100.3930232  26.8756636
  35.8025719 100.9285499  27.9783267  17.5444145  91.9127816  39.3681706
  17.1511091  91.3594015  40.0429351  18.3610285  92.2238395  39.7588224
  20.4612106  93.3285695  36.9601963  21.2021819  93.9292849  36.8806425
  20.6930029  92.5863333  36.4020006  24.4069269  89.3566798  31.2366245
  24.0633538  90.2468440  31.1605355  24.7748232  89.1668456  30.3735830
  24.3719552  99.3475410  19.7438680  23.8566175 100.1180014  19.9827067
  24.0996860  98.6740546  20.3671741  21.9566663  94.1925110  24.8023918
  21.1008259  93.8031961  24.6229557  22.3693614  94.2717071  23.9423704
  23.4865809  91.7271454  29.2015478  22.9830605  91.6901589  28.3883283
  23.7796416  92.6364196  29.2612135  19.7308695  91.8110183  28.2081660
  20.5961692  91.6152992  27.8487549  19.7986204  91.5820535  29.1351016
  29.3453826 102.1007764  21.6791853  28.5683269 101.7618924  21.2347015
  30.0245307 102.1060387  21.0046818  24.1605855  97.2202502  21.5698461
  23.8555990  97.5348651  22.4208604  25.1136297  97.2983921  21.6125794
  17.3371014  94.0412391  25.5798026  17.9114766  93.8187573  24.8471219
  17.9241997  94.1101086  26.3326628  26.3950591  99.9286118  26.3862403
  26.9082473 100.5616110  26.8884113  27.0451815  99.3287314  26.0205763
  19.6393682  90.9153640  24.3073096  18.9858094  90.6002657  23.6829711
  19.5974156  90.2929381  25.0332919  22.8731422  97.4035574  28.6320744
  21.9553984  97.6250521  28.4742432  23.2891566  97.4781884  27.7732451
  23.6566470  98.8026989  23.7623424  24.4038289  99.3148387  23.4530546
  23.9258060  98.4811042  24.6227817  26.1045307  95.8384106  25.7442213
  25.3668064  95.3261492  26.0752456  26.3572081  95.3984487  24.9325490
  26.2056935  88.6160358  26.3383982  26.5115811  87.7557721  26.0509897
  26.9309539  89.2077978  26.1382976  20.4778014  98.9114151  26.8460173
  20.5326624  97.9587987  26.7702650  19.6669216  99.0673590  27.3301472
  18.4170374  97.5291210  24.6050552  17.6038240  97.8285381  25.0115744
  18.9129368  97.1346899  25.3225035  24.0144586  97.9933035  33.4365446
  24.3693974  98.2204508  34.2959912  24.6616717  98.3251412  32.8142701
  29.7442323 101.1151471  24.1414775  29.6060221 101.3053067  23.2135964
  29.3878542 101.8770854  24.5982826  17.9084449  95.1009566  30.2211787
  18.5483828  94.9598325  29.5234751  17.0761980  94.8144079  29.8450389
  14.9113065  95.0709891  24.9984774  15.1719883  95.9855224  24.8893935
  15.7330238  94.6034333  25.1481387  16.3837991  96.4847648  32.1683599
  17.0561044  96.2765010  31.5196247  15.5567777  96.2869734  31.7288831
  22.2863563  93.1109589  34.1849259  21.6391478  93.8099539  34.0913736
  23.0564578  93.5445733  34.5525508  18.1276723  96.4575428  34.2365355
  17.5914080  96.0066167  34.8886951  17.5393431  96.5921337  33.4935819
  13.8615844  95.5931436  31.3218349  13.7774033  94.9857106  30.5868759
  13.0398550  96.0840454  31.3227846  24.0339558  94.0784999  26.6888544
  24.5308257  93.3254962  26.3689615  23.2626539  94.1149316  26.1231754
  31.8869315  99.7825365  28.3306836  31.8759191 100.6650080  27.9600769
  31.0186695  99.4296916  28.1361373  20.6174527  96.2202382  26.4160229
  20.2472314  95.6673423  27.1041135  21.1133619  95.6160516  25.8635229
  28.5041890  98.6774006  24.7977002  28.9702342  99.5101998  24.7237305
  28.9549390  98.2118988  25.5022260  26.4758553  91.0454593  28.8367903
  25.5621632  91.2758820  29.0050110  26.9051654  91.1293037  29.6881936
  26.2465011  99.2344485  31.3367797  25.5936461  99.4820392  30.6820250
  26.6245391  98.4208623  31.0030275  22.2952584  99.9764296  37.8233834
  21.6193221  99.8758425  38.4936210  23.1180218  99.8203510  38.2869832
  16.0139860  93.6306373  32.6613335  16.0781187  94.4921204  32.2490733
  15.9506980  93.0180375  31.9285694  15.4892133  95.7029506  36.3086369
  16.1164172  95.3206583  36.9223894  14.6320052  95.4843708  36.6742062
  15.7951922  95.5861931  28.2232273  15.0738508  96.1997899  28.0839746
  16.5845178  96.1219696  28.1448919  18.5978236  92.9216358  34.4972925
  19.1212638  93.1678655  35.2599234  18.3790569  93.7536393  34.0776062
  17.1087340  95.4793002  22.7319527  17.4483413  96.0078924  22.0098135
  17.5559461  95.8173408  23.5078094  19.8030781  93.8630053  32.1822595
  19.4627601  93.0637866  32.5843275  19.0969787  94.1631764  31.6099428
  20.4547253  90.9479366  30.6349918  21.2773322  90.4739844  30.5128808
  20.6985316  91.7269849  31.1348604  19.0955487  93.9767624  20.9312820
  19.8163850  94.3548877  20.4276537  18.4720791  94.6956501  21.0347798
  23.2386610  94.6812773  21.8671152  23.4550225  95.5637411  21.5659980
  22.7580677  94.2898986  21.1376794  17.9785832  97.6398486  28.4441897
  17.8330412  97.9538789  29.3366178  17.5011035  98.2583386  27.8912795
  19.8382214  94.6301034  28.4922786  19.8243783  93.7342127  28.1555084
  20.5554643  94.6371698  29.1261072  21.6908345  95.0638374  30.5375914
  21.4326123  95.9855445  30.5360244  21.1593386  94.6668809  31.2276378
  19.2419110  93.5115414  23.7610356  19.3635022  92.5832061  23.9601244
  18.9521153  93.5254100  22.8488672  22.1110301  91.1970325  26.8977076
  22.1331998  91.2609658  25.9429056  22.5278360  90.3574834  27.0917582
  32.4893925 100.9325584  24.9356299  32.9325071 100.1832910  24.5375422
  31.6120435 100.9235721  24.5530031  18.7260190  95.0247412  37.9700289
  18.7748345  95.9009535  37.5878059  19.2682704  94.4824805  37.3971932
  29.3312911 102.4181001  34.5634155  29.3810916 102.2531009  35.5049677
  29.2226834 101.5508260  34.1732035  26.6216673  98.4011929  35.8793461
  27.5226536  98.2618394  35.5877459  26.6964648  98.5666384  36.8191639
  20.9559478  95.7778784  34.7246648  20.0862788  96.0712350  34.4529236
  21.1918959  96.3619229  35.4453911  32.0326790 102.4030823  27.3278746
  32.8673681 102.8420627  27.4916307  32.1685919 101.9269476  26.5086992
  29.0818296  99.9610558  33.2756234  29.5572417 100.1538204  32.4675086
  28.1583861 100.0169743  33.0299618  23.6598512  91.9958401  32.2412068
  24.1780456  92.7319428  31.9158557  23.3053645  92.3022394  33.0758827
  23.9111106  88.4158684  27.7612965  24.1912860  87.7481873  28.3873391
  24.6961713  88.6087779  27.2487628  27.7819965  96.8376318  31.5084540
  28.7337388  96.9374415  31.5296764  27.6123415  96.0454586  32.0182624
  25.8034344  93.9231901  31.6943941  25.2084276  94.2036914  30.9990429
  25.5184041  94.4125802  32.4660682  30.2608043 100.0582437  30.6226839
  30.2284363  99.1198438  30.8086523  30.8708666 100.1366474  29.8892664
  30.4102531  96.8493481  30.6685123  29.8941580  96.0651937  30.4815051
  31.2942480  96.5212197  30.8331642  28.0713258  90.5934496  26.6280935
  27.8738079  90.2849585  27.5124267  28.6812964  91.3196135  26.7578865
  36.0784592 101.1198444  29.7632876  36.8087981 100.8583732  30.3240580
  35.4691538 100.3827166  29.8034944  34.1599890  99.2606307  30.3607327
  33.4333053  99.1262272  29.7523819  33.7447176  99.5683135  31.1664045
  21.8996356  91.3965356  22.7553170  21.0897085  91.0512441  23.1308416
  22.5880773  91.0872900  23.3440782  23.8286905  90.4743403  24.3777467
  24.3817943  90.8938857  25.0367490  24.0656991  89.5479151  24.4200423
  19.8520004  96.4630477  40.1580231  19.7516731  97.4124834  40.0892322
  19.6341546  96.1348716  39.2856301  27.2065712  92.5843928  23.8856131
  26.6264381  93.2428732  23.5034183  26.9401644  91.7621273  23.4743548
  25.6569278  91.9848986  26.0877451  26.1569056  92.0965521  25.2791770
  26.3004886  91.6810039  26.7278260  25.9890590  94.7444019  22.9412479
  25.1016445  95.0293669  22.7232674  26.4044579  94.5837782  22.0939756
  29.3405126  94.7690540  26.6566818  30.1165516  95.2586992  26.9291435
  28.6153260  95.1948594  27.1138688  31.7777684  95.4818159  27.7140759
  32.3722175  95.2413895  27.0034067  31.8504268  94.7625290  28.3414295
  25.9631613 100.2598555  23.1562769  25.9066815 100.7167106  22.3170402
  26.5159956  99.4989239  22.9785612  29.7736419  96.0488287  23.9812889
  29.5173354  95.6484922  24.8121096  29.1489287  96.7632080  23.8563028
  34.0848757  98.7884360  26.4884180  33.5248315  98.8577549  27.2615742
  33.4792261  98.6125344  25.7683676  20.0062518  90.9511445  20.0300617
  19.9941188  91.8953285  20.1868888  20.8985940  90.7681590  19.7360078
  23.8214638  87.5454222  24.2846554  23.0547033  86.9912708  24.4303236
  24.2325343  87.6176090  25.1460705  15.8256399  93.8339017  38.3751735
  16.6887860  93.4775822  38.5855059  15.2521809  93.4952912  39.0627139
  37.0450689 103.9452275  26.3383982  37.3509566 103.0849639  26.0509897
  37.7703294 104.5369895  26.1382976  34.7504861 103.7450601  27.7612965
  35.0306615 103.0773790  28.3873391  35.5355468 103.9379697  27.2487628
  34.6608392 102.8746139  24.2846554  33.8940788 102.3204626  24.4303236
  35.0719097 102.9468008  25.1460705   3.1523513  46.4827243  15.9059443
   3.7901923  46.3633991  15.2022783   3.0344356  47.4308087  15.9647395
   8.1073209  44.1453930  13.8845629   8.8398381  43.5753147  14.1183459
   7.3512565  43.7575531  14.3252135   5.6298629  37.8575504  18.3440238
   5.2981954  38.7270915  18.1201453   5.0344243  37.5411788  19.0234268
   2.1230149  50.0588050  17.7436150   1.8230872  50.9613089  17.6351958
   1.7781208  49.7920234  18.5957303   7.3888939  40.7787029  17.2011462
   6.7463319  41.0719562  16.5551256   6.8843868  40.6639949  18.0064658
   3.3269870  48.9474830  21.5258614   3.7353226  48.5057241  20.7813246
   2.6047132  48.3727458  21.7792806   3.6498685  49.5076021  15.2810902
   3.0207548  49.6721735  14.5786970   3.2624347  49.9217630  16.0521866
   7.5287917  50.4430459  12.6355266   6.8438955  50.8229360  12.0852299
   7.6131766  51.0525785  13.3687214   2.8300386  41.5451805  20.5573344
   2.5861318  42.2993866  20.0207620   3.1060316  41.9237153  21.3920591
   4.7838849  48.0890418  19.2350610   4.9955744  48.7322177  18.5584991
   4.7368597  47.2552734  18.7672540   5.8984677  50.9662373  17.4072967
   6.7202120  50.5642560  17.1255649   5.8947079  50.8630607  18.3589083
  13.9890670  47.3101121  13.7557938  13.2354378  46.7408520  13.6001943
  14.1238211  47.2763786  14.7028573   1.0057774  52.8038090  23.5613000
   0.5621628  52.0174469  23.2433904   1.6674988  52.9917241  22.8956891
   3.1039012  53.0840890  21.5894401   3.0857487  53.9049771  21.0974670
   4.0258932  52.9594965  21.8144542   5.9057625  47.9220033  15.0603768
   5.2481299  48.6119294  15.1483897   6.7098024  48.3116465  15.4037754
   5.4824880  51.2570407  11.2386852   5.0287207  50.4161317  11.2952043
   4.8518847  51.8931805  11.5761632   3.9257819  53.0946903  12.1736670
   4.2180794  53.6551961  11.4549036   4.4356440  53.3875464  12.9289830
   2.3357078  44.3411322  20.1610753   2.6906466  44.5682795  21.0205219
   2.9829209  44.6729699  19.5388008   8.0924195  49.5306285  15.8771353
   8.5260701  49.4381574  16.7254407   8.8055775  49.5063785  15.2391369
   1.8252090  53.1308379  17.4104454   1.8789112  53.6999315  18.1782170
   0.9566871  53.3010264  17.0458491   8.9539744  49.5729986  18.4104239
   9.1475634  50.4775796  18.6563514   8.8540362  49.1137405  19.2442824
   4.0154853  49.7236728  23.9845119   3.8640359  49.4947280  23.0675203
   4.0059532  50.6807330  23.9976464   1.1333736  50.7000908  14.1278761
   0.7983569  50.6601678  15.0236411   0.6337682  50.0345624  13.6549171
   5.7247060  52.7555851  22.0621601   5.6659606  52.0715071  21.3952184
   6.1266578  53.4974841  21.6102227   5.7264467  50.7195435  20.2935581
   4.8391246  50.3821357  20.4161980   6.2963018  49.9878466  20.5304346
  10.2081807  46.1303652  15.0552143  10.1971684  47.0128368  14.6846076
   9.3399187  45.7775203  14.8606680   1.7164304  55.2783721  19.4154983
   2.4292276  55.9131186  19.3430884   1.2254332  55.3747587  18.5994985
   4.5677503  45.5822772  18.0613104   3.9148954  45.8298680  17.4065557
   4.9457883  44.7686910  17.7275581   1.5284677  55.6182465  12.1641274
   1.7107072  54.8004121  12.6269027   2.3517663  55.8350158  11.7266164
   4.2098734  52.4570768  24.6385411   4.7538638  53.0700726  24.1440366
   3.6285578  53.0150347  25.1552424   2.4956246  55.5791486  15.7700439
   2.3707386  54.7781226  15.2611385   3.1535338  56.0737680  15.2814409
   4.5591155  53.3800506  17.3979989   3.6121490  53.2605858  17.3258316
   4.9073928  52.4923004  17.4806251   1.5637588  53.1753223  13.5984341
   1.4162551  52.2469930  13.7791912   2.3891082  53.1973313  13.1141417
   5.1671710  53.9981781  14.6849214   6.0918257  53.7924643  14.5473665
   4.9987013  53.7498182  15.5938556   4.9567026  54.5167449  10.0411306
   5.1303904  53.9513871   9.2885158   5.4495917  55.3168344   9.8590796
  10.8106417  47.2803872  11.6601605  11.2537563  46.5311197  11.2620729
   9.9332928  47.2714008  11.2775337   7.5327528  51.9166822  23.9746733
   6.7423072  51.8990961  23.4351232   7.2960882  52.4555116  24.7295769
   7.6525403  48.7659289  21.2879461   7.7023408  48.6009296  22.2294984
   7.5439326  47.8986548  20.8977342   4.9429165  44.7490217  22.6038768
   5.8439028  44.6096682  22.3122766   5.0177140  44.9144672  23.5436945
   9.1543600  51.1856230  21.5321483   8.8628408  51.5486211  22.3684944
   8.5415731  50.4723238  21.3534815  10.3539282  48.7509110  14.0524053
  11.1886173  49.1898914  14.2161613  10.4898411  48.2747763  13.2332299
   7.4030788  46.3088845  20.0001541   7.8784910  46.5016491  19.1920392
   6.4796353  46.3648031  19.7544924   1.9811005  38.3436688  18.9657375
   2.4992948  39.0797715  18.6403863   1.6266137  38.6500682  19.8004134
   6.1032457  43.1854605  18.2329846   7.0549880  43.2852703  18.2542070
   5.9335907  42.3932873  18.7427931   4.1246836  40.2710188  18.4189247
   3.5296769  40.5515201  17.7235736   3.8396533  40.7604089  19.1905988
   8.5820535  46.4060725  17.3472146   8.5496855  45.4676725  17.5331830
   9.1921158  46.4844761  16.6137971   8.7315023  43.1971768  17.3930429
   8.2154072  42.4130225  17.2060358   9.6154972  42.8690485  17.5576949
  14.3997085  47.4676731  16.4878183  15.1300473  47.2062020  17.0485886
  13.7904030  46.7305453  16.5280251  12.4812382  45.6084594  17.0852634
  11.7545545  45.4740559  16.4769126  12.0659669  45.9161423  17.8909352
  10.0990177  41.8296446  14.4386066  10.6934668  41.5892182  13.7279374
  10.1716760  41.1103577  15.0659602  12.4061249  45.1362647  13.2129487
  11.8460807  45.2055836  13.9861049  11.8004753  44.9603632  12.4928983
   2.3324792  50.1030535  26.5014168   3.2015952  50.2771187  26.1400803
   1.8531544  50.9224952  26.3789897  13.9917268  61.8119161  15.9059443
  14.6295678  61.6925908  15.2022783  13.8738111  62.7600005  15.9647395
  10.8006974  61.7646589  15.8420967  10.4625486  61.6487654  14.9541502
  11.6696742  61.3637754  15.8221973   6.6593790  63.6182066  11.8317858
   6.0958655  63.5272002  11.0634146   6.5446185  62.7981970  12.3120351
  11.2826757  62.9181441  21.8007173  11.2715398  62.5234239  20.9287676
  11.4447397  62.1847513  22.3940944   4.2058222  65.1133257  14.6702079
   4.9979514  64.7724082  14.2548378   4.4454872  65.2228232  15.5904232
   8.0034018  65.7018553  20.7486357   7.7123884  66.6064183  20.6333023
   8.6391003  65.7435080  21.4630426   8.9290225  63.0795401  17.3387716
   9.5253797  62.8551424  16.6244679   8.9865197  62.3380147  17.9413164
  13.5458536  59.5370615  12.9812651  14.3321626  59.1190038  12.6303068
  13.8097241  60.4416707  13.1494299  13.7168614  64.9743465   7.6801307
  13.0814447  65.0478092   8.3922212  13.3866020  65.5637064   7.0020387
  18.9466964  59.4745848  13.8845629  19.6792135  58.9045065  14.1183459
  18.1906319  59.0867448  14.3252135  10.5643083  61.8973090  11.0808972
  10.2001290  61.3703711  11.7921893  11.4210199  61.5071559  10.9075457
  16.4692384  53.1867422  18.3440238  16.1375709  54.0562833  18.1201453
  15.8737997  52.8703706  19.0234268  10.2048570  56.9262989   6.0770320
  10.3722973  57.7943226   6.4440791  10.0145739  57.0890271   5.1531609
  12.9623903  65.3879968  17.7436150  12.6624626  66.2905007  17.6351958
  12.6174963  65.1212151  18.5957303   6.4136385  61.8393765  13.7772855
   5.4886881  61.7069979  13.9850547   6.6620798  62.6187984  14.2742797
  16.3621047  57.9062508  15.4233588  15.4537925  57.8377917  15.1292349
  16.3108643  58.3834453  16.2515413  10.1837791  59.3820647   7.0616987
  10.0637416  59.8277697   7.9002467   9.4890379  59.7305964   6.5030525
   3.7745196  61.4827039  14.6116644   3.9037577  61.7361517  15.5256056
   3.0942647  62.0754747  14.2921299  10.4361913  59.3252154  23.3668485
   9.6595247  59.8846074  23.3571350  11.0752476  59.8108937  23.8883355
  18.2282694  56.1078947  17.2011462  17.5857074  56.4011480  16.5551256
  17.7237622  55.9931867  18.0064658  15.8822857  59.8542120   7.8897321
  16.7940713  60.0869507   7.7145018  15.3732504  60.4379164   7.3272400
   8.6908285  62.1337607  22.9286452   9.4322970  62.6722651  22.6521276
   7.9845271  62.7603896  23.0858004  14.1663625  64.2766748  21.5258614
  14.5746981  63.8349158  20.7813246  13.4440886  63.7019375  21.7792806
  10.5194695  59.2139355  18.8992170  11.3655890  59.6378768  19.0426819
  10.4593333  58.5572979  19.5930734  14.4892440  64.8367938  15.2810902
  13.8601302  65.0013652  14.5786970  14.1018102  65.2509548  16.0521866
  18.3681671  65.7722376  12.6355266  17.6832710  66.1521278  12.0852299
  18.4525521  66.3817703  13.3687214  13.6694140  56.8743723  20.5573344
  13.4255072  57.6285783  20.0207620  13.9454071  57.2529070  21.3920591
  15.6232603  63.4182335  19.2350610  15.8349498  64.0614095  18.5584991
  15.5762351  62.5844652  18.7672540  13.2258832  56.0300156  16.1387182
  12.3643311  56.3281409  16.4303919  13.2521267  56.2470555  15.2068214
  10.0420401  64.5742346  12.5460987  10.5058747  64.8530049  11.7565610
   9.7777200  63.6725791  12.3634078   6.9344483  64.1213828  15.4840751
   7.5045840  64.5501096  14.8458235   7.5252594  63.8396413  16.1824936
   8.9789288  60.6965499   9.3550553   9.6813331  61.1486542   9.8224479
   8.6469916  60.0549318   9.9830446   7.4269649  59.2877255  23.7301762
   6.7968310  59.9693536  23.9637159   7.3205737  59.1760337  22.7854900
   2.7214621  58.9549051  14.6567686   1.9313675  59.2106580  14.1807797
   3.2125869  59.7697389  14.7619727  16.7378431  66.2954291  17.4072967
  17.5595875  65.8934478  17.1255649  16.7340834  66.1922525  18.3589083
   4.6729367  59.3193631  11.6151163   3.8760530  59.4312325  12.1334659
   4.4454959  59.6580283  10.7492053  10.5035034  65.8438334  19.5633678
  10.5679467  66.3058741  20.3991849   9.7945958  65.2135699  19.6915987
   1.0052324  59.2079542  17.0882677   1.2560363  60.0926552  17.3540253
   1.5411873  59.0284143  16.3157769  24.8284424  62.6393039  13.7557938
  24.0748132  62.0700437  13.6001943  24.9631965  62.6055704  14.7028573
   6.7050392  53.5898021  26.0927013   6.3117337  53.0364220  26.7674657
   7.5216532  53.9008600  26.4833531   9.6218353  55.0055900  23.6847270
  10.3628066  55.6063054  23.6051732   9.8536276  54.2633538  23.1265312
   4.7659691  60.1912268  21.9625499   4.6513206  59.2897525  22.2632598
   3.9104209  60.4375964  21.6110316  11.8451529  68.1330008  23.5613000
  11.4015383  67.3466387  23.2433904  12.5068742  68.3209158  22.8956891
   6.6038650  69.6625810  18.0873678   7.1546075  69.5342873  17.3150672
   5.7650126  69.9620699  17.7368571  13.9432767  68.4132808  21.5894401
  13.9251242  69.2341689  21.0974670  14.8652687  68.2886883  21.8144542
  10.4005821  65.9276937  22.4317910  10.9334158  65.1665226  22.2017218
   9.8719902  65.6350589  23.1742064  13.5675516  51.0337003  17.9611551
  13.2239785  51.9238645  17.8850662  13.9354478  50.8438661  17.0981136
  13.5325798  61.0245614   6.4683986  13.0172422  61.7950219   6.7072374
  13.2603107  60.3510751   7.0917048  11.1172909  55.8695315  11.5269225
  10.2614506  55.4802166  11.3474864  11.5299861  55.9487276  10.6669010
  12.6472056  53.4041658  15.9260785  12.1436852  53.3671794  15.1128590
  12.9402663  54.3134401  15.9857441   8.8914942  53.4880388  14.9326966
   9.7567939  53.2923197  14.5732856   8.9592451  53.2590740  15.8596323
  18.5060073  63.7777969   8.4037160  17.7289515  63.4389129   7.9592322
  19.1851554  63.7830592   7.7292125  13.3212102  58.8972707   8.2943768
  13.0162237  59.2118856   9.1453911  14.2742544  58.9754126   8.3371101
  11.7658533  65.0562930   9.9436722  11.2379895  64.3215689   9.6309959
  11.2646036  65.8337606   9.6976690  16.7451379  63.2511950  15.0603768
  16.0875054  63.9411212  15.1483897  17.5491779  63.6408382  15.4037754
   6.4977261  55.7182596  12.3043333   7.0721013  55.4957778  11.5716526
   7.0848243  55.7871291  13.0571934  15.5556838  61.6056323  13.1107710
  16.0688720  62.2386315  13.6129419  16.2058062  61.0057519  12.7451070
   8.7999929  52.5923845  11.0318403   8.1464341  52.2772862  10.4075017
   8.7580403  51.9699585  11.7578225  12.0337669  59.0805779  15.3566050
  11.1160230  59.3020726  15.1987738  12.4497813  59.1552089  14.4977758
  12.8172717  60.4797194  10.4868730  13.5644536  60.9918591  10.1775852
  13.0864306  60.1581247  11.3473124  16.3218634  66.5862324  11.2386852
  15.8680962  65.7453234  11.2952043  15.6912601  67.2223723  11.5761632
  15.2651554  57.5154311  12.4687520  14.5274311  57.0031697  12.7997762
  15.5178328  57.0754692  11.6570797  14.7651574  68.4238821  12.1736670
  15.0574548  68.9843878  11.4549036  15.2750194  68.7167382  12.9289830
  15.3663181  50.2930563  13.0629289  15.6722058  49.4327926  12.7755204
  16.0915786  50.8848183  12.8628283   9.6384261  60.5884356  13.5705480
   9.6932871  59.6358192  13.4947957   8.8275463  60.7443795  14.0546778
   7.5776621  59.2061415  11.3295859   6.7644487  59.5055586  11.7361051
   8.0735615  58.8117104  12.0470341   9.7285199  69.2019172  13.2630124
   9.6861378  69.4280019  12.3338656  10.6447898  68.9682547  13.4115925
  13.1750833  59.6703240  20.1610753  13.5300220  59.8974713  21.0205219
  13.8222964  60.0021617  19.5388008  18.9048570  62.7921676  10.8660082
  18.7666468  62.9823272   9.9381271  18.5484788  63.5541058  11.3228133
   7.0690696  56.7779771  16.9457094   7.7090075  56.6368530  16.2480057
   6.2368226  56.4914284  16.5695696  18.9317949  64.8598203  15.8771353
  19.3654456  64.7673492  16.7254407  19.6449530  64.8355703  15.2391369
   7.8451000  66.0782201  13.0592086   8.6391598  65.5832521  12.8574661
   7.1342692  65.5500064  12.6959792  12.6645844  68.4600297  17.4104454
  12.7182866  69.0291233  18.1782170  11.7960626  68.6302182  17.0458491
   4.0719312  56.7480096  11.7230081   4.3326129  57.6625429  11.6139241
   4.8936485  56.2804538  11.8726693   5.5444238  58.1617853  18.8928905
   6.2167291  57.9535215  18.2441554   4.7174024  57.9639939  18.4534138
  19.7933499  64.9021903  18.4104239  19.9869389  65.8067714  18.6563514
  19.6934117  64.4429322  19.2442824  11.4469810  54.7879794  20.9094566
  10.7997725  55.4869744  20.8159042  12.2170825  55.2215938  21.2770814
  14.8548607  65.0528646  23.9845119  14.7034114  64.8239198  23.0675203
  14.8453287  66.0099248  23.9976464  11.6233944  62.6260559  18.9691386
  12.5526004  62.7771718  18.7960353  11.2024974  62.7144580  18.1140032
  10.4222276  66.6511223  16.7389923  10.2833361  66.2830008  17.6115862
   9.6336872  67.1658863  16.5673881  11.9727491  66.0292826  14.1278761
  11.6377323  65.9893596  15.0236411  11.4731436  65.3637542  13.6549171
   5.9471735  61.4360456  19.6531342   5.8091533  60.7040695  20.2542881
   6.8576658  61.3469356  19.3715530   8.5754035  61.1480415  19.1415022
   9.2853654  60.5073607  19.1001640   8.5323344  61.3993310  20.0641203
  16.5640814  68.0847769  22.0621601  16.5053360  67.4006989  21.3952184
  16.9660333  68.8266759  21.6102227   7.2882969  58.1345633  20.9610661
   6.7520326  57.6836372  21.6132258   6.6999678  58.2691542  20.2181126
  16.5658221  66.0487353  20.2935581  15.6785000  65.7113274  20.4161980
  17.1356772  65.3170384  20.5304346   3.0222091  57.2701641  18.0463656
   2.9380279  56.6627310  17.3114066   2.2004797  57.7610659  18.0473152
  10.0959375  70.7088805  17.2596824  10.0229546  71.5143776  17.7716129
   9.6536768  70.9080771  16.4344846  13.1945805  55.7555204  13.4133851
  13.6914504  55.0025167  13.0934921  12.4232786  55.7919521  12.8477060
  21.0475562  61.4595570  15.0552143  21.0365438  62.3420285  14.6846076
  20.1792941  61.1067121  14.8606680  12.5558058  70.6075639  19.4154983
  13.2686031  71.2423104  19.3430884  12.0648087  70.7039505  18.5994985
  14.2775585  64.5126892  10.9872274  13.3431864  64.6328354  10.8176979
  14.4552254  63.6099358  10.7232284   9.7780773  57.8972587  13.1405536
   9.4078561  57.3443628  13.8286441  10.2739866  57.2930721  12.5880536
  17.6648137  60.3544211  11.5222309  18.1308589  61.1872203  11.4482611
  18.1155637  59.8889192  12.2267567   7.6069972  68.3570082  20.2360554
   8.3079431  68.9906565  20.3889948   7.1365087  68.6984814  19.4756193
  15.7324368  66.6988032   8.5208461  16.0084212  66.5844627   9.4302335
  14.8628866  66.3005517   8.4820634  15.6364799  52.7224798  15.5613210
  14.7227879  52.9529025  15.7295417  16.0657901  52.8063242  16.4127242
  15.4071258  60.9114690  18.0613104  14.7542708  61.1590597  17.4065557
  15.7851638  60.0978828  17.7275581  12.3678432  70.9474383  12.1641274
  12.5500826  70.1296039  12.6269027  13.1911418  71.1642075  11.7266164
  12.7020597  69.8742568   9.4256323  13.2308364  69.3635023   8.8126485
  12.9648817  69.5585098  10.2901856  11.4558831  61.6534501  24.5479141
  10.7799468  61.5528630  25.2181516  12.2786465  61.4973715  25.0115138
   3.2037690  67.8906437  17.1691656   3.7891127  67.1450125  17.3019560
   3.0062528  68.2010394  18.0528320  10.1981614  72.9601428  18.7836757
  10.7499922  73.1233050  19.5485842  10.5387807  73.5505866  18.1116782
   5.1746107  55.3076578  19.3858642   5.2387433  56.1691409  18.9736039
   5.1113227  54.6950580  18.6531000   4.6498379  57.3799711  23.0331676
   5.2770418  56.9976788  23.6469200   3.7926298  57.1613913  23.3987368
  15.0492488  67.7862686  24.6385411  15.5932392  68.3992644  24.1440366
  14.4679333  68.3442264  25.1552424  13.3350001  70.9083404  15.7700439
  13.2101140  70.1073144  15.2611385  13.9929092  71.4029597  15.2814409
   4.9558169  57.2632136  14.9477579   4.2344755  57.8768104  14.8085053
   5.7451425  57.7989901  14.8694225  15.3984909  68.7092424  17.3979989
  14.4515245  68.5897775  17.3258316  15.7467682  67.8214922  17.4806251
   7.7584483  54.5986563  21.2218231   8.2818885  54.8448859  21.9844540
   7.5396816  55.4306598  20.8021369  12.4031343  68.5045140  13.5984341
  12.2556305  67.5761848  13.7791912  13.2284836  68.5265231  13.1141417
   6.2693587  57.1563207   9.4564834   6.6089659  57.6849129   8.7343442
   6.7165707  57.4943613  10.2323400  16.0065465  69.3273699  14.6849214
  16.9312012  69.1216560  14.5473665  15.8380768  69.0790100  15.5938556
   8.9637028  55.5400258  18.9067902   8.6233848  54.7408071  19.3088582
   8.2576034  55.8401969  18.3344735   9.6153500  52.6249570  17.3595225
  10.4379569  52.1510049  17.2374115   9.8591563  53.4040054  17.8593911
   8.2561734  55.6537829   7.6558126   8.9770097  56.0319082   7.1521843
   7.6327038  56.3726706   7.7593104  12.3992857  56.3582978   8.5916459
  12.6156471  57.2407616   8.2905287  11.9186924  55.9669191   7.8622101
   7.1392078  59.3168691  15.1687203   6.9936659  59.6308994  16.0611485
   6.6617282  59.9353591  14.6158102   8.9988461  56.3071239  15.2168093
   8.9850030  55.4112332  14.8800391   9.7160889  56.3141903  15.8506379
  10.8514592  56.7408579  17.2621220  10.5932370  57.6625650  17.2605551
  10.3199632  56.3439014  17.9521684  15.7960781  69.8459366  10.0411306
  15.9697658  69.2805789   9.2885158  16.2889672  70.6460261   9.8590796
   1.6137741  61.8574035  18.1074865   1.0691209  62.6333843  18.2395139
   2.4917090  62.2044840  17.9493986   8.4025357  55.1885619  10.4855663
   8.5241268  54.2602266  10.6846551   8.1127400  55.2024305   9.5733978
  11.2716548  52.8740530  13.6222383  11.2938244  52.9379863  12.6674362
  11.6884607  52.0345038  13.8162889  21.6500172  62.6095789  11.6601605
  22.0931318  61.8603115  11.2620729  20.7726682  62.6005926  11.2775337
  16.7835953  69.1626131   7.1408204  17.4786858  69.7832823   7.3595519
  17.1259103  68.3121482   7.4160582   2.4003762  60.9843932  21.0005021
   1.6585498  61.1326567  21.5869652   2.0796507  61.2452197  20.1371771
  18.6827376  66.6125836   8.6695535  19.2078700  66.9513109   7.9444855
  18.5949729  65.6772852   8.4858669  10.3447425  70.5259910  20.7985411
  10.6534551  70.2809057  21.6708111  11.1422907  70.7306548  20.3104282
  10.3668037  72.6797820  13.0290788   9.9273027  72.1874198  13.7223645
  11.1176154  72.1370787  12.7882863   7.8141909  68.2235829  15.1013090
   7.1921919  67.5606534  14.8015317   8.4846776  68.2496961  14.4186737
   7.8866437  56.7017617  24.6945596   7.9354592  57.5779740  24.3123365
   8.4288951  56.1595010  24.1217239  18.3721282  67.2458740  23.9746733
  17.5816826  67.2282879  23.4351232  18.1354637  67.7847034  24.7295769
  18.4919157  64.0951206  21.2879461  18.5417162  63.9301214  22.2294984
  18.3833081  63.2278465  20.8977342  15.7822920  60.0782134  22.6038768
  16.6832783  59.9388599  22.3122766  15.8570894  60.2436589  23.5436945
  10.1165725  57.4548989  21.4491954   9.2469035  57.7482555  21.1774543
  10.3525206  58.0389434  22.1699218  19.9937354  66.5148148  21.5321483
  19.7022163  66.8778128  22.3684944  19.3809486  65.8015156  21.3534815
  21.1933037  64.0801028  14.0524053  22.0279928  64.5190832  14.2161613
  21.3292165  63.6039681  13.2332299  18.2424543  61.6380762  20.0001541
  18.7178664  61.8308409  19.1920392  17.3190108  61.6939948  19.7544924
  12.8204759  53.6728606  18.9657375  13.3386703  54.4089633  18.6403863
  12.4659892  53.9792599  19.8004134  13.0717353  50.0928889  14.4858271
  13.3519107  49.4252078  15.1118698  13.8567960  50.2857984  13.9732935
  16.9426212  58.5146523  18.2329846  17.8943634  58.6144620  18.2542070
  16.7729662  57.7224791  18.7427931  14.9640591  55.6002106  18.4189247
  14.3690523  55.8807118  17.7235736  14.6790288  56.0896007  19.1905988
  19.4214289  61.7352642  17.3472146  19.3890609  60.7968643  17.5331830
  20.0314913  61.8136679  16.6137971  19.5708778  58.5263686  17.3930429
  19.0547826  57.7422142  17.2060358  20.4548726  58.1982402  17.5576949
  17.2319505  52.2704701  13.3526242  17.0344326  51.9619789  14.2369574
  17.8419210  52.9966340  13.4824172  25.2390839  62.7968649  16.4878183
  25.9694228  62.5353937  17.0485886  24.6297785  62.0597371  16.5280251
  23.3206136  60.9376512  17.0852634  22.5939300  60.8032477  16.4769126
  22.9053423  61.2453340  17.8909352  11.1436313  64.6566441  24.8500007
  12.0639322  64.8345040  25.0440054  11.1085896  63.7122487  24.6979706
   4.1398385  62.5667476  17.4922788   4.3584395  63.4984584  17.5110822
   4.5524159  62.2075450  18.2777592  11.0602603  53.0735561   9.4798477
  10.2503331  52.7282646   9.8553723  11.7487020  52.7643105  10.0686088
  12.9893151  52.1513608  11.1022773  13.5424190  52.5709062  11.7612796
  13.2263238  51.2249356  11.1445729   9.0126251  58.1400682  26.8825537
   8.9122977  59.0895039  26.8137628   8.7947793  57.8118921  26.0101607
  16.3671958  54.2614133  10.6101437  15.7870627  54.9198937  10.2279490
  16.1007891  53.4391478  10.1988855  14.8175525  53.6619191  12.8122758
  15.3175303  53.7735726  12.0037077  15.4611133  53.3580244  13.4523566
   8.8757521  61.5697821  25.6990599   8.3924602  62.3698181  25.9054488
   8.9618460  61.5805765  24.7458043   4.8030858  65.4602355  17.7359033
   5.7574112  65.4286298  17.6688964   4.6043382  64.9992979  18.5509258
   5.3930240  64.0303471  20.3029830   6.2123129  64.5247550  20.3264668
   5.6667048  63.1135440  20.2747398  15.1496836  56.4214224   9.6657786
  14.2622691  56.7063874   9.4477981  15.5650826  56.2607987   8.8185063
  18.5011373  56.4460745  13.3812125  19.2771763  56.9357197  13.6536742
  17.7759507  56.8718799  13.8383994  20.9383931  57.1588364  14.4386066
  21.5328422  56.9184100  13.7279374  21.0110515  56.4395494  15.0659602
  15.1237860  61.9368760   9.8808076  15.0673062  62.3937311   9.0415708
  15.6766203  61.1759444   9.7030919  18.9342666  57.7258491  10.7058195
  18.6779600  57.3255127  11.5366403  18.3095534  58.4402285  10.5808335
  23.2455004  60.4654565  13.2129487  22.6854562  60.5347754  13.9861049
  22.6398507  60.2895549  12.4928983  16.2026747  66.6241428   5.8104266
  17.0372351  66.1922626   5.6281741  16.0411090  66.4523441   6.7381160
  15.8572639  63.1273541   7.1760605  15.8021443  62.9617812   6.2349049
  15.2318695  63.8349574   7.3322795  13.1718547  65.4322453  26.5014168
  14.0409706  65.6063105  26.1400803  12.6925298  66.2516870  26.3789897
   7.3404727  72.5519554  18.1803602   8.2431974  72.5843164  18.4970096
   7.1142097  71.6220005  18.1949937   9.0958329  71.3050540  14.8413680
   8.1453960  71.3052402  14.7278052   9.3990815  70.5583275  14.3249715
  12.9820884  49.2224426  11.0091860  12.2153280  48.6682913  11.1548543
  13.3931589  49.2946295  11.8706012   4.9862645  55.5109222  25.0997042
   5.8494107  55.1546027  25.3100366   4.4128056  55.1723117  25.7872446
  24.8311022  77.1411079  15.9059443  25.4689432  77.0217826  15.2022783
  24.7131865  78.0891923  15.9647395  21.6400729  77.0938507  15.8420967
  21.3019240  76.9779571  14.9541502  22.5090497  76.6929672  15.8221973
  17.4987544  78.9473983  11.8317858  16.9352410  78.8563920  11.0634146
  17.3839939  78.1273888  12.3120351  22.1220512  78.2473358  21.8007173
  22.1109152  77.8526157  20.9287676  22.2841151  77.5139431  22.3940944
  15.0451976  80.4425175  14.6702079  15.8373268  80.1015999  14.2548378
  15.2848626  80.5520150  15.5904232  18.8427773  81.0310470  20.7486357
  18.5517639  81.9356101  20.6333023  19.4784757  81.0726998  21.4630426
  19.7683980  78.4087319  17.3387716  20.3647552  78.1843341  16.6244679
  19.8258951  77.6672064  17.9413164  24.3852291  74.8662533  12.9812651
  25.1715380  74.4481956  12.6303068  24.6490995  75.7708625  13.1494299
  24.5562368  80.3035383   7.6801307  23.9208201  80.3770009   8.3922212
  24.2259775  80.8928982   7.0020387  29.7860718  74.8037766  13.8845629
  30.5185890  74.2336983  14.1183459  29.0300074  74.4159366  14.3252135
  21.4036838  77.2265007  11.0808972  21.0395045  76.6995628  11.7921893
  22.2603954  76.8363476  10.9075457  27.3086138  68.5159340  18.3440238
  26.9769463  69.3854751  18.1201453  26.7131752  68.1995624  19.0234268
  21.0442325  72.2554907   6.0770320  21.2116727  73.1235143   6.4440791
  20.8539494  72.4182189   5.1531609  23.8017658  80.7171886  17.7436150
  23.5018381  81.6196925  17.6351958  23.4568717  80.4504069  18.5957303
  17.2530139  77.1685683  13.7772855  16.3280636  77.0361897  13.9850547
  17.5014553  77.9479902  14.2742797  27.2014802  73.2354426  15.4233588
  26.2931679  73.1669834  15.1292349  27.1502397  73.7126371  16.2515413
  21.0231546  74.7112564   7.0616987  20.9031171  75.1569615   7.9002467
  20.3284134  75.0597882   6.5030525  14.6138950  76.8118956  14.6116644
  14.7431332  77.0653435  15.5256056  13.9336402  77.4046664  14.2921299
  21.2755667  74.6544072  23.3668485  20.4989002  75.2137992  23.3571350
  21.9146231  75.1400855  23.8883355  29.0676448  71.4370864  17.2011462
  28.4250828  71.7303398  16.5551256  28.5631377  71.3223785  18.0064658
  26.7216612  75.1834038   7.8897321  27.6334468  75.4161424   7.7145018
  26.2126259  75.7671082   7.3272400  19.5302040  77.4629525  22.9286452
  20.2716724  78.0014569  22.6521276  18.8239025  78.0895814  23.0858004
  25.0057379  79.6058665  21.5258614  25.4140735  79.1641076  20.7813246
  24.2834641  79.0311293  21.7792806  21.3588449  74.5431272  18.8992170
  22.2049645  74.9670686  19.0426819  21.2987087  73.8864896  19.5930734
  25.3286194  80.1659856  15.2810902  24.6995057  80.3305570  14.5786970
  24.9411856  80.5801466  16.0521866  29.2075426  81.1014294  12.6355266
  28.5226464  81.4813195  12.0852299  29.2919275  81.7109621  13.3687214
  24.5087895  72.2035641  20.5573344  24.2648827  72.9577701  20.0207620
  24.7847825  72.5820988  21.3920591  26.4626358  78.7474253  19.2350610
  26.6743253  79.3906013  18.5584991  26.4156106  77.9136569  18.7672540
  24.0652587  71.3592074  16.1387182  23.2037066  71.6573327  16.4303919
  24.0915021  71.5762472  15.2068214  20.8814156  79.9034264  12.5460987
  21.3452501  80.1821967  11.7565610  20.6170954  79.0017709  12.3634078
  17.7738237  79.4505746  15.4840751  18.3439594  79.8793014  14.8458235
  18.3646349  79.1688330  16.1824936  19.8183042  76.0257416   9.3550553
  20.5207085  76.4778460   9.8224479  19.4863670  75.3841235   9.9830446
  18.2663404  74.6169173  23.7301762  17.6362064  75.2985454  23.9637159
  18.1599491  74.5052255  22.7854900  13.5608376  74.2840969  14.6567686
  12.7707430  74.5398498  14.1807797  14.0519623  75.0989307  14.7619727
  27.5772186  81.6246208  17.4072967  28.3989629  81.2226396  17.1255649
  27.5734588  81.5214442  18.3589083  15.5123121  74.6485548  11.6151163
  14.7154285  74.7604243  12.1334659  15.2848714  74.9872201  10.7492053
  21.3428789  81.1730252  19.5633678  21.4073221  81.6350659  20.3991849
  20.6339713  80.5427617  19.6915987  11.8446079  74.5371460  17.0882677
  12.0954117  75.4218470  17.3540253  12.3805627  74.3576061  16.3157769
  35.6678179  77.9684957  13.7557938  34.9141887  77.3992355  13.6001943
  35.8025720  77.9347621  14.7028573  17.5444146  68.9189939  26.0927013
  17.1511092  68.3656138  26.7674657  18.3610287  69.2300517  26.4833531
  20.4612107  70.3347818  23.6847270  21.2021821  70.9354971  23.6051732
  20.6930030  69.5925456  23.1265312  15.6053445  75.5204185  21.9625499
  15.4906960  74.6189443  22.2632598  14.7497963  75.7667882  21.6110316
  22.6845283  83.4621926  23.5613000  22.2409137  82.6758304  23.2433904
  23.3462497  83.6501076  22.8956891  17.4432404  84.9917727  18.0873678
  17.9939829  84.8634791  17.3150672  16.6043880  85.2912616  17.7368571
  24.7826521  83.7424726  21.5894401  24.7644996  84.5633607  21.0974670
  25.7046441  83.6178801  21.8144542  21.2399575  81.2568855  22.4317910
  21.7727912  80.4957143  22.2017218  20.7113656  80.9642507  23.1742064
  24.4069270  66.3628921  17.9611551  24.0633540  67.2530563  17.8850662
  24.7748233  66.1730579  17.0981136  24.3719553  76.3537532   6.4683986
  23.8566176  77.1242137   6.7072374  24.0996861  75.6802668   7.0917048
  21.9566664  71.1987233  11.5269225  21.1008260  70.8094083  11.3474864
  22.3693616  71.2779194  10.6669010  23.4865811  68.7333576  15.9260785
  22.9830606  68.6963711  15.1128590  23.7796417  69.6426319  15.9857441
  19.7308696  68.8172306  14.9326966  20.5961693  68.6215115  14.5732856
  19.7986205  68.5882658  15.8596323  29.3453827  79.1069887   8.4037160
  28.5683270  78.7681046   7.9592322  30.0245308  79.1122510   7.7292125
  24.1605856  74.2264624   8.2943768  23.8555992  74.5410773   9.1453911
  25.1136298  74.3046044   8.3371101  22.6052288  80.3854848   9.9436722
  22.0773649  79.6507607   9.6309959  22.1039791  81.1629524   9.6976690
  27.5845134  78.5803868  15.0603768  26.9268808  79.2703129  15.1483897
  28.3885533  78.9700300  15.4037754  17.3371016  71.0474514  12.3043333
  17.9114767  70.8249695  11.5716526  17.9241998  71.1163208  13.0571934
  26.3950593  76.9348241  13.1107710  26.9082474  77.5678233  13.6129419
  27.0451817  76.3349436  12.7451070  19.6393683  67.9215763  11.0318403
  18.9858096  67.6064780  10.4075017  19.5974157  67.2991503  11.7578225
  22.8731424  74.4097696  15.3566050  21.9553985  74.6312643  15.1987738
  23.2891567  74.4844007  14.4977758  23.6566471  75.8089112  10.4868730
  24.4038290  76.3210509  10.1775852  23.9258061  75.4873165  11.3473124
  27.1612389  81.9154242  11.2386852  26.7074716  81.0745152  11.2952043
  26.5306356  82.5515641  11.5761632  26.1045309  72.8446228  12.4687520
  25.3668065  72.3323614  12.7997762  26.3572082  72.4046610  11.6570797
  25.6045328  83.7530739  12.1736670  25.8968303  84.3135796  11.4549036
  26.1143949  84.0459300  12.9289830  26.2056936  65.6222480  13.0629289
  26.5115813  64.7619844  12.7755204  26.9309541  66.2140100  12.8628283
  20.4778016  75.9176273  13.5705480  20.5326625  74.9650110  13.4947957
  19.6669218  76.0735712  14.0546778  18.4170375  74.5353333  11.3295859
  17.6038241  74.8347504  11.7361051  18.9129370  74.1409022  12.0470341
  20.5678953  84.5311090  13.2630124  20.5255132  84.7571936  12.3338656
  21.4841652  84.2974465  13.4115925  24.0144587  74.9995157  20.1610753
  24.3693975  75.2266631  21.0205219  24.6616718  75.3313534  19.5388008
  29.7442324  78.1213593  10.8660082  29.6060223  78.3115189   9.9381271
  29.3878543  78.8832976  11.3228133  17.9084450  72.1071689  16.9457094
  18.5483830  71.9660448  16.2480057  17.0761981  71.8206202  16.5695696
  29.7711704  80.1890120  15.8771353  30.2048210  80.0965409  16.7254407
  30.4843284  80.1647621  15.2391369  18.6844754  81.4074119  13.0592086
  19.4785353  80.9124439  12.8574661  17.9736447  80.8791982  12.6959792
  23.5039599  83.7892214  17.4104454  23.5576621  84.3583151  18.1782170
  22.6354380  83.9594100  17.0458491  14.9113067  72.0772014  11.7230081
  15.1719884  72.9917347  11.6139241  15.7330239  71.6096456  11.8726693
  16.3837992  73.4909771  18.8928905  17.0561045  73.2827133  18.2441554
  15.5567779  73.2931857  18.4534138  30.6327253  80.2313821  18.4104239
  30.8263143  81.1359632  18.6563514  30.5327871  79.7721240  19.2442824
  22.2863564  70.1171712  20.9094566  21.6391479  70.8161661  20.8159042
  23.0564579  70.5507856  21.2770814  25.6942362  80.3820564  23.9845119
  25.5427868  80.1531115  23.0675203  25.6847041  81.3391165  23.9976464
  22.4627698  77.9552477  18.9691386  23.3919758  78.1063636  18.7960353
  22.0418728  78.0436497  18.1140032  21.2616030  81.9803141  16.7389923
  21.1227116  81.6121925  17.6115862  20.4730626  82.4950780  16.5673881
  22.8121245  81.3584744  14.1278761  22.4771078  81.3185514  15.0236411
  22.3125191  80.6929460  13.6549171  16.7865489  76.7652374  19.6531342
  16.6485287  76.0332612  20.2542881  17.6970413  76.6761274  19.3715530
  19.4147790  76.4772333  19.1415022  20.1247408  75.8365525  19.1001640
  19.3717098  76.7285228  20.0641203  27.4034569  83.4139686  22.0621601
  27.3447115  82.7298906  21.3952184  27.8054087  84.1558676  21.6102227
  18.1276724  73.4637551  20.9610661  17.5914081  73.0128289  21.6132258
  17.5393432  73.5983460  20.2181126  27.4051976  81.3779270  20.2935581
  26.5178755  81.0405192  20.4161980  27.9750527  80.6462301  20.5304346
  13.8615845  72.5993559  18.0463656  13.7774034  71.9919228  17.3114066
  13.0398552  73.0902577  18.0473152  20.9353129  86.0380723  17.2596824
  20.8623301  86.8435694  17.7716129  20.4930522  86.2372688  16.4344846
  24.0339559  71.0847122  13.4133851  24.5308259  70.3317084  13.0934921
  23.2626541  71.1211439  12.8477060  31.8869316  76.7887488  15.0552143
  31.8759193  77.6712203  14.6846076  31.0186696  76.4359038  14.8606680
  23.3951813  85.9367557  19.4154983  24.1079785  86.5715021  19.3430884
  22.9041841  86.0331423  18.5994985  25.1169340  79.8418809  10.9872274
  24.1825618  79.9620272  10.8176979  25.2946008  78.9391276  10.7232284
  20.6174528  73.2264505  13.1405536  20.2472315  72.6735545  13.8286441
  21.1133620  72.6222639  12.5880536  28.5041891  75.6836129  11.5222309
  28.9702343  76.5164120  11.4482611  28.9549392  75.2181110  12.2267567
  18.4463726  83.6862000  20.2360554  19.1473186  84.3198483  20.3889948
  17.9758841  84.0276732  19.4756193  26.5718122  82.0279950   8.5208461
  26.8477966  81.9136544   9.4302335  25.7022621  81.6297435   8.4820634
  26.4758554  68.0516716  15.5613210  25.5621634  68.2820942  15.7295417
  26.9051655  68.1355160  16.4127242  26.2465012  76.2406608  18.0613104
  25.5936463  76.4882515  17.4065557  26.6245392  75.4270746  17.7275581
  23.2072186  86.2766301  12.1641274  23.3894581  85.4587957  12.6269027
  24.0305172  86.4933993  11.7266164  23.5414352  85.2034486   9.4256323
  24.0702118  84.6926940   8.8126485  23.8042571  84.8877016  10.2901856
  22.2952585  76.9826419  24.5479141  21.6193222  76.8820548  25.2181516
  23.1180219  76.8265632  25.0115138  14.0431444  83.2198355  17.1691656
  14.6284881  82.4742043  17.3019560  13.8456283  83.5302312  18.0528320
  21.0375368  88.2893346  18.7836757  21.5893676  88.4524968  19.5485842
  21.3781562  88.8797784  18.1116782  16.0139861  70.6368496  19.3858642
  16.0781188  71.4983327  18.9736039  15.9506982  70.0242498  18.6531000
  15.4892134  72.7091628  23.0331676  16.1164173  72.3268706  23.6469200
  14.6320053  72.4905830  23.3987368  25.8886243  83.1154604  24.6385411
  26.4326147  83.7284562  24.1440366  25.3073087  83.6734182  25.1552424
  24.1743755  86.2375322  15.7700439  24.0494895  85.4365061  15.2611385
  24.8322847  86.7321515  15.2814409  15.7951924  72.5924054  14.9477579
  15.0738509  73.2060022  14.8085053  16.5845179  73.1281819  14.8694225
  26.2378664  84.0384342  17.3979989  25.2908999  83.9189693  17.3258316
  26.5861437  83.1506840  17.4806251  18.5978237  69.9278481  21.2218231
  19.1212639  70.1740777  21.9844540  18.3790570  70.7598515  20.8021369
  23.2425097  83.8337058  13.5984341  23.0950060  82.9053765  13.7791912
  24.0678591  83.8557149  13.1141417  17.1087341  72.4855125   9.4564834
  17.4483414  73.0141046   8.7343442  17.5559462  72.8235531  10.2323400
  26.8459219  84.6565617  14.6849214  27.7705766  84.4508478  14.5473665
  26.6774522  84.4082018  15.5938556  19.8030782  70.8692176  18.9067902
  19.4627603  70.0699989  19.3088582  19.0969789  71.1693887  18.3344735
  20.4547254  67.9541488  17.3595225  21.2773323  67.4801966  17.2374115
  20.6985318  68.7331972  17.8593911  19.0955489  70.9829747   7.6558126
  19.8163851  71.3610999   7.1521843  18.4720793  71.7018623   7.7593104
  23.2386611  71.6874896   8.5916459  23.4550226  72.5699533   8.2905287
  22.7580679  71.2961109   7.8622101  17.9785833  74.6460609  15.1687203
  17.8330414  74.9600912  16.0611485  17.5011036  75.2645509  14.6158102
  19.8382216  71.6363157  15.2168093  19.8243784  70.7404250  14.8800391
  20.5554644  71.6433820  15.8506379  21.6908346  72.0700497  17.2621220
  21.4326124  72.9917568  17.2605551  21.1593387  71.6730931  17.9521684
  26.6354535  85.1751284  10.0411306  26.8091413  84.6097707   9.2885158
  27.1283426  85.9752179   9.8590796  12.4531495  77.1865953  18.1074865
  11.9084963  77.9625761  18.2395139  13.3310845  77.5336758  17.9493986
  19.2419112  70.5177537  10.4855663  19.3635023  69.5894183  10.6846551
  18.9521154  70.5316223   9.5733978  22.1110302  68.2032447  13.6222383
  22.1331999  68.2671781  12.6674362  22.5278361  67.3636956  13.8162889
  32.4893926  77.9387707  11.6601605  32.9325072  77.1895032  11.2620729
  31.6120437  77.9297843  11.2775337  27.6229708  84.4918048   7.1408204
  28.3180612  85.1124741   7.3595519  27.9652858  83.6413400   7.4160582
  13.2397517  76.3135849  21.0005021  12.4979253  76.4618485  21.5869652
  12.9190261  76.5744115  20.1371771  29.5221131  81.9417754   8.6695535
  30.0472455  82.2805027   7.9444855  29.4343483  81.0064769   8.4858669
  21.1841180  85.8551828  20.7985411  21.4928306  85.6100974  21.6708111
  21.9816662  86.0598466  20.3104282  21.2061792  88.0089737  13.0290788
  20.7666782  87.5166116  13.7223645  21.9569909  87.4662705  12.7882863
  18.6535664  83.5527746  15.1013090  18.0315673  82.8898451  14.8015317
  19.3240531  83.5788878  14.4186737  18.7260191  72.0309534  24.6945596
  18.7748347  72.9071657  24.3123365  19.2682705  71.4886927  24.1217239
  29.2115037  82.5750658  23.9746733  28.4210581  82.5574796  23.4351232
  28.9748391  83.1138951  24.7295769  29.3312912  79.4243124  21.2879461
  29.3810917  79.2593131  22.2294984  29.2226835  78.5570383  20.8977342
  26.6216674  75.4074052  22.6038768  27.5226537  75.2680517  22.3122766
  26.6964649  75.5728507  23.5436945  20.9559480  72.7840907  21.4491954
  20.0862789  73.0774473  21.1774543  21.1918960  73.3681352  22.1699218
  30.8331109  81.8440066  21.5321483  30.5415917  82.2070046  22.3684944
  30.2203240  81.1307074  21.3534815  32.0326791  79.4092945  14.0524053
  32.8673682  79.8482749  14.2161613  32.1685920  78.9331599  13.2332299
  29.0818297  76.9672680  20.0001541  29.5572419  77.1600326  19.1920392
  28.1583862  77.0231866  19.7544924  23.6598513  69.0020524  18.9657375
  24.1780457  69.7381551  18.6403863  23.3053646  69.3084517  19.8004134
  23.9111108  65.4220806  14.4858271  24.1912861  64.7543995  15.1118698
  24.6961715  65.6149902  13.9732935  27.7819966  73.8438440  18.2329846
  28.7337389  73.9436538  18.2542070  27.6123416  73.0516709  18.7427931
  25.8034345  70.9294023  18.4189247  25.2084278  71.2099036  17.7235736
  25.5184042  71.4187924  19.1905988  30.2608044  77.0644560  17.3472146
  30.2284364  76.1260561  17.5331830  30.8708667  77.1428597  16.6137971
  30.4102532  73.8555603  17.3930429  29.8941581  73.0714060  17.2060358
  31.2942481  73.5274320  17.5576949  28.0713259  67.5996619  13.3526242
  27.8738080  67.2911707  14.2369574  28.6812965  68.3258258  13.4824172
  36.0784594  78.1260567  16.4878183  36.8087982  77.8645855  17.0485886
  35.4691539  77.3889289  16.5280251  34.1599891  76.2668429  17.0852634
  33.4333054  76.1324394  16.4769126  33.7447178  76.5745258  17.8909352
  21.9830067  79.9858359  24.8500007  22.9033077  80.1636958  25.0440054
  21.9479650  79.0414404  24.6979706  11.2012232  75.1796953  13.7753282
  10.8815017  74.3262261  13.4827656  10.6545660  75.3945531  14.5311249
  14.9792140  77.8959394  17.4922788  15.1978150  78.8276502  17.5110822
  15.3917914  77.5367368  18.2777592  21.8996358  68.4027479   9.4798477
  21.0897086  68.0574564   9.8553723  22.5880774  68.0935023  10.0686088
  23.8286906  67.4805526  11.1022773  24.3817944  67.9000979  11.7612796
  24.0656992  66.5541274  11.1445729  19.8520005  73.4692599  26.8825537
  19.7516732  74.4186956  26.8137628  19.6341547  73.1410838  26.0101607
  27.2065713  69.5906051  10.6101437  26.6264382  70.2490855  10.2279490
  26.9401646  68.7683396  10.1988855  25.6569279  68.9911109  12.8122758
  26.1569058  69.1027643  12.0037077  26.3004887  68.6872162  13.4523566
  19.7151275  76.8989738  25.6990599  19.2318357  77.6990098  25.9054488
  19.8012214  76.9097683  24.7458043  15.6424613  80.7894273  17.7359033
  16.5967866  80.7578215  17.6688964  15.4437136  80.3284897  18.5509258
  16.2323995  79.3595389  20.3029830  17.0516884  79.8539468  20.3264668
  16.5060802  78.4427357  20.2747398  25.9890591  71.7506141   9.6657786
  25.1016446  72.0355792   9.4477981  26.4044580  71.5899905   8.8185063
  29.3405127  71.7752662  13.3812125  30.1165517  72.2649115  13.6536742
  28.6153261  72.2010717  13.8383994  31.7777686  72.4880282  14.4386066
  32.3722176  72.2476018  13.7279374  31.8504269  71.7687412  15.0659602
  25.9631615  77.2660677   9.8808076  25.9066816  77.7229229   9.0415708
  26.5159957  76.5051362   9.7030919  29.7736421  73.0550409  10.7058195
  29.5173355  72.6547045  11.5366403  29.1489289  73.7694203  10.5808335
  34.0848758  75.7946482  13.2129487  33.5248316  75.8639672  13.9861049
  33.4792262  75.6187467  12.4928983  27.0420502  81.9533345   5.8104266
  27.8766106  81.5214544   5.6281741  26.8804845  81.7815359   6.7381160
  26.6966394  78.4565459   7.1760605  26.6415198  78.2909730   6.2349049
  26.0712449  79.1641491   7.3322795  11.4858909  73.6933523  21.0022027
  12.1317773  73.1832477  21.4909252  11.2776060  74.4302205  21.5765453
  24.0112301  80.7614370  26.5014168  24.8803461  80.9355023  26.1400803
  23.5319053  81.5808787  26.3789897  20.0062519  67.9573568   6.7545923
  19.9941189  68.9015407   6.9114194  20.8985941  67.7743713   6.4605385
  18.1798481  87.8811471  18.1803602  19.0825728  87.9135082  18.4970096
  17.9535851  86.9511922  18.1949937  19.9352083  86.6342458  14.8413680
  18.9847714  86.6344320  14.7278052  20.2384570  85.8875193  14.3249715
  23.8214639  64.5516344  11.0091860  23.0547035  63.9974831  11.1548543
  24.2325344  64.6238213  11.8706012  15.8256400  70.8401140  25.0997042
  16.6887862  70.4837945  25.3100366  15.2521811  70.5015035  25.7872446
  35.6704777  92.4702996  15.9059443  36.3083187  92.3509744  15.2022783
  35.5525620  93.4183840  15.9647395  32.4794483  92.4230424  15.8420967
  32.1412995  92.3071489  14.9541502  33.3484251  92.0221590  15.8221973
  28.3381299  94.2765901  11.8317858  27.7746164  94.1855838  11.0634146
  28.2233694  93.4565805  12.3120351  32.9614266  93.5765276  21.8007173
  32.9502907  93.1818074  20.9287676  33.1234906  92.8431349  22.3940944
  25.8845731  95.7717092  14.6702079  26.6767023  95.4307917  14.2548378
  26.1242381  95.8812068  15.5904232  29.6821527  96.3602388  20.7486357
  29.3911393  97.2648019  20.6333023  30.3178512  96.4018916  21.4630426
  30.6077734  93.7379236  17.3387716  31.2041306  93.5135259  16.6244679
  30.6652706  92.9963982  17.9413164  35.2246045  90.1954450  12.9812651
  36.0109135  89.7773873  12.6303068  35.4884750  91.1000542  13.1494299
  35.3956123  95.6327300   7.6801307  34.7601956  95.7061927   8.3922212
  35.0653529  96.2220899   7.0020387  40.6254473  90.1329683  13.8845629
  41.3579644  89.5628900  14.1183459  39.8693828  89.7451284  14.3252135
  32.2430592  92.5556925  11.0808972  31.8788799  92.0287546  11.7921893
  33.0997708  92.1655394  10.9075457  38.1479893  83.8451257  18.3440238
  37.8163218  84.7146668  18.1201453  37.5525506  83.5287541  19.0234268
  31.8836079  87.5846825   6.0770320  32.0510482  88.4527061   6.4440791
  31.6933248  87.7474106   5.1531609  34.6411412  96.0463803  17.7436150
  34.3412135  96.9488842  17.6351958  34.2962472  95.7795987  18.5957303
  28.0923894  92.4977600  13.7772855  27.1674390  92.3653814  13.9850547
  28.3408307  93.2771820  14.2742797  38.0408556  88.5646344  15.4233588
  37.1325434  88.4961752  15.1292349  37.9896152  89.0418289  16.2515413
  31.8625300  90.0404482   7.0616987  31.7424925  90.4861533   7.9002467
  31.1677888  90.3889800   6.5030525  25.4532705  92.1410874  14.6116644
  25.5825086  92.3945353  15.5256056  24.7730156  92.7338582  14.2921299
  32.1149422  89.9835989  23.3668485  31.3382756  90.5429909  23.3571350
  32.7539985  90.4692772  23.8883355  39.9070203  86.7662782  17.2011462
  39.2644583  87.0595315  16.5551256  39.4025131  86.6515702  18.0064658
  37.5610366  90.5125955   7.8897321  38.4728222  90.7453342   7.7145018
  37.0520013  91.0962999   7.3272400  30.3695794  92.7921443  22.9286452
  31.1110479  93.3306487  22.6521276  29.6632780  93.4187731  23.0858004
  35.8451134  94.9350583  21.5258614  36.2534490  94.4932994  20.7813246
  35.1228395  94.3603211  21.7792806  32.1982204  89.8723190  18.8992170
  33.0443399  90.2962603  19.0426819  32.1380842  89.2156814  19.5930734
  36.1679949  95.4951774  15.2810902  35.5388811  95.6597488  14.5786970
  35.7805611  95.9093383  16.0521866  40.0469180  96.4306212  12.6355266
  39.3620219  96.8105113  12.0852299  40.1313030  97.0401538  13.3687214
  35.3481649  87.5327558  20.5573344  35.1042581  88.2869619  20.0207620
  35.6241580  87.9112906  21.3920591  37.3020112  94.0766171  19.2350610
  37.5137007  94.7197930  18.5584991  37.2549860  93.2428487  18.7672540
  34.9046341  86.6883991  16.1387182  34.0430820  86.9865245  16.4303919
  34.9308776  86.9054390  15.2068214  31.7207910  95.2326182  12.5460987
  32.1846256  95.5113885  11.7565610  31.4564709  94.3309626  12.3634078
  28.6131991  94.7797663  15.4840751  29.1833349  95.2084932  14.8458235
  29.2040103  94.4980248  16.1824936  30.6576796  91.3549334   9.3550553
  31.3600840  91.8070378   9.8224479  30.3257425  90.7133153   9.9830446
  29.1057158  89.9461091  23.7301762  28.4755819  90.6277372  23.9637159
  28.9993246  89.8344172  22.7854900  24.4002130  89.6132887  14.6567686
  23.6101184  89.8690415  14.1807797  24.8913378  90.4281225  14.7619727
  38.4165940  96.9538126  17.4072967  39.2383384  96.5518313  17.1255649
  38.4128343  96.8506360  18.3589083  26.3516876  89.9777466  11.6151163
  25.5548039  90.0896160  12.1334659  26.1242468  90.3164118  10.7492053
  32.1822543  96.5022169  19.5633678  32.2466976  96.9642577  20.3991849
  31.4733467  95.8719534  19.6915987  22.6839833  89.8663377  17.0882677
  22.9347872  90.7510387  17.3540253  23.2199382  89.6867979  16.3157769
  46.5071933  93.2976874  13.7557938  45.7535641  92.7284273  13.6001943
  46.6419474  93.2639539  14.7028573  28.3837901  84.2481857  26.0927013
  27.9904846  83.6948055  26.7674657  29.2004041  84.5592435  26.4833531
  31.3005862  85.6639736  23.6847270  32.0415575  86.2646889  23.6051732
  31.5323785  84.9217374  23.1265312  26.4447200  90.8496103  21.9625499
  26.3300715  89.9481360  22.2632598  25.5891717  91.0959800  21.6110316
  33.5239037  98.7913843  23.5613000  33.0802892  98.0050222  23.2433904
  34.1856251  98.9792994  22.8956891  28.2826159 100.3209645  18.0873678
  28.8333584 100.1926708  17.3150672  27.4437635 100.6204534  17.7368571
  35.6220276  99.0716643  21.5894401  35.6038751  99.8925524  21.0974670
  36.5440196  98.9470718  21.8144542  32.0793330  96.5860773  22.4317910
  32.6121667  95.8249061  22.2017218  31.5507411  96.2934425  23.1742064
  35.2463025  81.6920839  17.9611551  34.9027294  82.5822480  17.8850662
  35.6141987  81.5022496  17.0981136  35.2113307  91.6829450   6.4683986
  34.6959931  92.4534054   6.7072374  34.9390616  91.0094586   7.0917048
  32.7960418  86.5279151  11.5269225  31.9402015  86.1386001  11.3474864
  33.2087370  86.6071111  10.6669010  34.3259565  84.0625494  15.9260785
  33.8224361  84.0255629  15.1128590  34.6190172  84.9718237  15.9857441
  30.5702451  84.1464224  14.9326966  31.4355448  83.9507032  14.5732856
  30.6379960  83.9174575  15.8596323  40.1847582  94.4361804   8.4037160
  39.4077024  94.0972964   7.9592322  40.8639062  94.4414428   7.7292125
  34.9999611  89.5556542   8.2943768  34.6949746  89.8702691   9.1453911
  35.9530053  89.6337962   8.3371101  33.4446042  95.7146765   9.9436722
  32.9167404  94.9799525   9.6309959  32.9433545  96.4921442   9.6976690
  38.4238888  93.9095786  15.0603768  37.7662563  94.5995047  15.1483897
  39.2279288  94.2992218  15.4037754  28.1764770  86.3766431  12.3043333
  28.7508522  86.1541613  11.5716526  28.7635752  86.4455126  13.0571934
  37.2344347  92.2640158  13.1107710  37.7476229  92.8970150  13.6129419
  37.8845571  91.6641354  12.7451070  30.4787438  83.2507680  11.0318403
  29.8251850  82.9356698  10.4075017  30.4367912  82.6283421  11.7578225
  33.7125178  89.7389614  15.3566050  32.7947739  89.9604561  15.1987738
  34.1285322  89.8135924  14.4977758  34.4960226  91.1381030  10.4868730
  35.2432045  91.6502427  10.1775852  34.7651815  90.8165082  11.3473124
  38.0006143  97.2446160  11.2386852  37.5468471  96.4037070  11.2952043
  37.3700110  97.8807558  11.5761632  36.9439063  88.1738146  12.4687520
  36.2061820  87.6615532  12.7997762  37.1965837  87.7338527  11.6570797
  36.4439083  99.0822657  12.1736670  36.7362057  99.6427714  11.4549036
  36.9537703  99.3751218  12.9289830  37.0450690  80.9514398  13.0629289
  37.3509567  80.0911761  12.7755204  37.7703295  81.5432018  12.8628283
  31.3171770  91.2468191  13.5705480  31.3720380  90.2942027  13.4947957
  30.5062972  91.4027630  14.0546778  29.2564130  89.8645251  11.3295859
  28.4431996  90.1639421  11.7361051  29.7523124  89.4700939  12.0470341
  31.4072708  99.8603008  13.2630124  31.3648887 100.0863854  12.3338656
  32.3235407  99.6266382  13.4115925  34.8538342  90.3287075  20.1610753
  35.2087729  90.5558548  21.0205219  35.5010473  90.6605452  19.5388008
  40.5836079  93.4505511  10.8660082  40.4453977  93.6407107   9.9381271
  40.2272297  94.2124894  11.3228133  28.7478205  87.4363606  16.9457094
  29.3877584  87.2952365  16.2480057  27.9155735  87.1498120  16.5695696
  40.6105458  95.5182038  15.8771353  41.0441965  95.4257327  16.7254407
  41.3237039  95.4939539  15.2391369  29.5238509  96.7366037  13.0592086
  30.3179107  96.2416357  12.8574661  28.8130201  96.2083900  12.6959792
  34.3433353  99.1184132  17.4104454  34.3970375  99.6875068  18.1782170
  33.4748134  99.2886017  17.0458491  25.7506821  87.4063931  11.7230081
  26.0113638  88.3209264  11.6139241  26.5723993  86.9388374  11.8726693
  27.2231746  88.8201688  18.8928905  27.8954800  88.6119050  18.2441554
  26.3961533  88.6223774  18.4534138  41.4721008  95.5605739  18.4104239
  41.6656898  96.4651549  18.6563514  41.3721626  95.1013158  19.2442824
  33.1257319  85.4463629  20.9094566  32.4785234  86.1453579  20.8159042
  33.8958334  85.8799773  21.2770814  36.5336116  95.7112481  23.9845119
  36.3821623  95.4823033  23.0675203  36.5240796  96.6683083  23.9976464
  33.3021453  93.2844394  18.9691386  34.2313513  93.4355554  18.7960353
  32.8812483  93.3728415  18.1140032  32.1009785  97.3095059  16.7389923
  31.9620870  96.9413843  17.6115862  31.3124381  97.8242698  16.5673881
  33.6515000  96.6876661  14.1278761  33.3164832  96.6477431  15.0236411
  33.1518945  96.0221377  13.6549171  27.6259244  92.0944291  19.6531342
  27.4879042  91.3624530  20.2542881  28.5364167  92.0053191  19.3715530
  30.2541544  91.8064251  19.1415022  30.9641163  91.1657443  19.1001640
  30.2110853  92.0577146  20.0641203  38.2428323  98.7431604  22.0621601
  38.1840869  98.0590824  21.3952184  38.6447841  99.4850594  21.6102227
  28.9670478  88.7929469  20.9610661  28.4307835  88.3420207  21.6132258
  28.3787187  88.9275377  20.2181126  38.2445730  96.7071188  20.2935581
  37.3572509  96.3697110  20.4161980  38.8144281  95.9754219  20.5304346
  24.7009600  87.9285476  18.0463656  24.6167788  87.3211146  17.3114066
  23.8792306  88.4194495  18.0473152  31.7746884 101.3672640  17.2596824
  31.7017055 102.1727612  17.7716129  31.3324277 101.5664606  16.4344846
  34.8733313  86.4139040  13.4133851  35.3702013  85.6609002  13.0934921
  34.1020295  86.4503356  12.8477060  42.7263071  92.1179405  15.0552143
  42.7152947  93.0004121  14.6846076  41.8580450  91.7650956  14.8606680
  34.2345567 101.2659474  19.4154983  34.9473539 101.9006939  19.3430884
  33.7435596 101.3623340  18.5994985  35.9563094  95.1710727  10.9872274
  35.0219373  95.2912189  10.8176979  36.1339763  94.2683194  10.7232284
  31.4568282  88.5556423  13.1405536  31.0866070  88.0027463  13.8286441
  31.9527375  87.9514556  12.5880536  39.3435646  91.0128046  11.5222309
  39.8096098  91.8456038  11.4482611  39.7943146  90.5473028  12.2267567
  29.2857481  99.0153918  20.2360554  29.9866940  99.6490401  20.3889948
  28.8152596  99.3568649  19.4756193  37.4111877  97.3571868   8.5208461
  37.6871721  97.2428462   9.4302335  36.5416375  96.9589352   8.4820634
  37.3152308  83.3808633  15.5613210  36.4015388  83.6112860  15.7295417
  37.7445410  83.4647077  16.4127242  37.0858767  91.5698525  18.0613104
  36.4330217  91.8174433  17.4065557  37.4639147  90.7562663  17.7275581
  34.0465941 101.6058218  12.1641274  34.2288335 100.7879874  12.6269027
  34.8698927 101.8225911  11.7266164  34.3808106 100.5326404   9.4256323
  34.9095873 100.0218858   8.8126485  34.6436326 100.2168934  10.2901856
  33.1346340  92.3118336  24.5479141  32.4586977  92.2112466  25.2181516
  33.9573974  92.1557550  25.0115138  24.8825199  98.5490273  17.1691656
  25.4678636  97.8033961  17.3019560  24.6850037  98.8594230  18.0528320
  26.8533616  85.9660414  19.3858642  26.9174942  86.8275244  18.9736039
  26.7900736  85.3534415  18.6531000  26.3285888  88.0383546  23.0331676
  26.9557927  87.6560623  23.6469200  25.4713807  87.8197748  23.3987368
  36.7279997  98.4446521  24.6385411  37.2719901  99.0576480  24.1440366
  36.1466842  99.0026100  25.1552424  35.0137510 101.5667239  15.7700439
  34.8888649 100.7656979  15.2611385  35.6716601 102.0613433  15.2814409
  26.6345678  87.9215972  14.9477579  25.9132264  88.5351939  14.8085053
  27.4238934  88.4573737  14.8694225  37.0772418  99.3676259  17.3979989
  36.1302754  99.2481611  17.3258316  37.4255191  98.4798757  17.4806251
  29.4371992  85.2570398  21.2218231  29.9606394  85.5032695  21.9844540
  29.2184325  86.0890433  20.8021369  34.0818852  99.1628976  13.5984341
  33.9343814  98.2345683  13.7791912  34.9072345  99.1849066  13.1141417
  27.9481096  87.8147043   9.4564834  28.2877168  88.3432964   8.7343442
  28.3953216  88.1527449  10.2323400  37.6852973  99.9857534  14.6849214
  38.6099521  99.7800396  14.5473665  37.5168277  99.7373935  15.5938556
  30.6424537  86.1984093  18.9067902  30.3021357  85.3991906  19.3088582
  29.9363543  86.4985804  18.3344735  31.2941009  83.2833406  17.3595225
  32.1167078  82.8093884  17.2374115  31.5379072  84.0623890  17.8593911
  29.9349243  86.3121664   7.6558126  30.6557606  86.6902917   7.1521843
  29.3114547  87.0310541   7.7593104  34.0780366  87.0166813   8.5916459
  34.2943980  87.8991451   8.2905287  33.5974433  86.6253027   7.8622101
  28.8179587  89.9752526  15.1687203  28.6724168  90.2892829  16.0611485
  28.3404791  90.5937427  14.6158102  30.6775970  86.9655074  15.2168093
  30.6637539  86.0696168  14.8800391  31.3948398  86.9725738  15.8506379
  32.5302101  87.3992415  17.2621220  32.2719879  88.3209485  17.2605551
  31.9987141  87.0022849  17.9521684  37.4748290 100.5043202  10.0411306
  37.6485167  99.9389624   9.2885158  37.9677181 101.3044097   9.8590796
  23.2925249  92.5157871  18.1074865  22.7478718  93.2917679  18.2395139
  24.1704599  92.8628675  17.9493986  30.0812866  85.8469455  10.4855663
  30.2028777  84.9186101  10.6846551  29.7914909  85.8608141   9.5733978
  32.9504057  83.5324365  13.6222383  32.9725753  83.5963698  12.6674362
  33.3672116  82.6928874  13.8162889  43.3287681  93.2679625  11.6601605
  43.7718827  92.5186950  11.2620729  42.4514191  93.2589761  11.2775337
  24.0791271  91.6427767  21.0005021  23.3373007  91.7910402  21.5869652
  23.7584016  91.9036033  20.1371771  40.3614885  97.2709672   8.6695535
  40.8866209  97.6096944   7.9444855  40.2737238  96.3356687   8.4858669
  32.0234934 101.1843745  20.7985411  32.3322060 100.9392892  21.6708111
  32.8210416 101.3890384  20.3104282  32.0455546 103.3381655  13.0290788
  31.6060536 102.8458034  13.7223645  32.7963663 102.7954623  12.7882863
  29.4929418  98.8819664  15.1013090  28.8709427  98.2190369  14.8015317
  30.1634285  98.9080796  14.4186737  29.5653946  87.3601452  24.6945596
  29.6142101  88.2363575  24.3123365  30.1076460  86.8178845  24.1217239
  40.0508791  97.9042575  23.9746733  39.2604335  97.8866714  23.4351232
  39.8142146  98.4430869  24.7295769  40.1706666  94.7535042  21.2879461
  40.2204671  94.5885049  22.2294984  40.0620590  93.8862301  20.8977342
  37.4610429  90.7365970  22.6038768  38.3620292  90.5972435  22.3122766
  37.5358403  90.9020425  23.5436945  31.7953234  88.1132824  21.4491954
  30.9256544  88.4066391  21.1774543  32.0312715  88.6973269  22.1699218
  41.6724863  97.1731983  21.5321483  41.3809672  97.5361964  22.3684944
  41.0596995  96.4598991  21.3534815  42.8720546  94.7384863  14.0524053
  43.7067437  95.1774667  14.2161613  43.0079674  94.2623516  13.2332299
  39.9212051  92.2964598  20.0001541  40.3966173  92.4892244  19.1920392
  38.9977617  92.3523784  19.7544924  34.4992268  84.3312441  18.9657375
  35.0174212  85.0673468  18.6403863  34.1447401  84.6376435  19.8004134
  34.7504862  80.7512724  14.4858271  35.0306616  80.0835913  15.1118698
  35.5355469  80.9441820  13.9732935  38.6213720  89.1730358  18.2329846
  39.5731143  89.2728456  18.2542070  38.4517171  88.3808626  18.7427931
  36.6428100  86.2585941  18.4189247  36.0478032  86.5390954  17.7235736
  36.3577797  86.7479842  19.1905988  41.1001798  92.3936478  17.3472146
  41.0678118  91.4552478  17.5331830  41.7102422  92.4720514  16.6137971
  41.2496287  89.1847521  17.3930429  40.7335335  88.4005978  17.2060358
  42.1336235  88.8566238  17.5576949  38.9107014  82.9288537  13.3526242
  38.7131835  82.6203625  14.2369574  39.5206719  83.6550176  13.4824172
  46.9178348  93.4552484  16.4878183  47.6481737  93.1937773  17.0485886
  46.3085294  92.7181206  16.5280251  44.9993645  91.5960347  17.0852634
  44.2726809  91.4616312  16.4769126  44.5840932  91.9037176  17.8909352
  32.8223822  95.3150277  24.8500007  33.7426831  95.4928876  25.0440054
  32.7873405  94.3706322  24.6979706  22.0405987  90.5088870  13.7753282
  21.7208771  89.6554179  13.4827656  21.4939415  90.7237449  14.5311249
  25.8185894  93.2251311  17.4922788  26.0371904  94.1568419  17.5110822
  26.2311668  92.8659286  18.2777592  32.7390112  83.7319397   9.4798477
  31.9290840  83.3866482   9.8553723  33.4274529  83.4226940  10.0686088
  34.6680660  82.8097443  11.1022773  35.2211699  83.2292897  11.7612796
  34.9050747  81.8833192  11.1445729  30.6913760  88.7984517  26.8825537
  30.5910486  89.7478874  26.8137628  30.4735302  88.4702756  26.0101607
  38.0459467  84.9197969  10.6101437  37.4658136  85.5782773  10.2279490
  37.7795400  84.0975313  10.1988855  36.4963034  84.3203026  12.8122758
  36.9962812  84.4319561  12.0037077  37.1398642  84.0164079  13.4523566
  30.5545030  92.2281656  25.6990599  30.0712111  93.0282016  25.9054488
  30.6405969  92.2389601  24.7458043  26.4818367  96.1186191  17.7359033
  27.4361621  96.0870133  17.6688964  26.2830891  95.6576814  18.5509258
  27.0717749  94.6887307  20.3029830  27.8910638  95.1831385  20.3264668
  27.3454557  93.7719275  20.2747398  36.8284345  87.0798059   9.6657786
  35.9410200  87.3647710   9.4477981  37.2438334  86.9191822   8.8185063
  40.1798882  87.1044580  13.3812125  40.9559272  87.5941032  13.6536742
  39.4547016  87.5302634  13.8383994  42.6171440  87.8172199  14.4386066
  43.2115931  87.5767935  13.7279374  42.6898024  87.0979330  15.0659602
  36.8025369  92.5952595   9.8808076  36.7460571  93.0521146   9.0415708
  37.3553712  91.8343280   9.7030919  40.6130175  88.3842327  10.7058195
  40.3567109  87.9838962  11.5366403  39.9883043  89.0986121  10.5808335
  44.9242513  91.1238400  13.2129487  44.3642071  91.1931589  13.9861049
  44.3186016  90.9479385  12.4928983  37.5360148  93.7857376   7.1760605
  37.4808952  93.6201648   6.2349049  36.9106204  94.4933409   7.3322795
  22.3252663  89.0225441  21.0022027  22.9711527  88.5124395  21.4909252
  22.1169815  89.7594122  21.5765453  34.8506056  96.0906288  26.5014168
  35.7197215  96.2646940  26.1400803  34.3712807  96.9100705  26.3789897
  30.8456274  83.2865485   6.7545923  30.8334944  84.2307325   6.9114194
  31.7379696  83.1035631   6.4605385  30.7745838 101.9634376  14.8413680
  29.8241469 101.9636237  14.7278052  31.0778324 101.2167110  14.3249715
  34.6608393  79.8808262  11.0091860  33.8940789  79.3266749  11.1548543
  35.0719098  79.9530131  11.8706012  26.6650154  86.1693058  25.0997042
  27.5281616  85.8129863  25.3100366  26.0915565  85.8306952  25.7872446
  48.9873647  99.1743175  18.3440238  48.6556972 100.0438586  18.1201453
  48.3919261  98.8579459  19.0234268  48.8802311 103.8938261  15.4233588
  47.9719188 103.8253670  15.1292349  48.8289906 104.3710206  16.2515413
  42.9543176 105.3127907  23.3668485  42.1776511 105.8721827  23.3571350
  43.5933740 105.7984690  23.8883355  50.7463957 102.0954700  17.2011462
  50.1038337 102.3887233  16.5551256  50.2418886 101.9807620  18.0064658
  43.0375958 105.2015108  18.8992170  43.8837154 105.6254521  19.0426819
  42.9774596 104.5448732  19.5930734  46.1875404 102.8619476  20.5573344
  45.9436336 103.6161536  20.0207620  46.4635334 103.2404823  21.3920591
  45.7440095 102.0175909  16.1387182  44.8824575 102.3157162  16.4303919
  45.7702530 102.2346308  15.2068214  39.9450912 105.2753008  23.7301762
  39.3149573 105.9569289  23.9637159  39.8387000 105.1636090  22.7854900
  39.2231655  99.5773774  26.0927013  38.8298601  99.0239973  26.7674657
  40.0397796  99.8884353  26.4833531  42.1399616 100.9931653  23.6847270
  42.8809330 101.5938807  23.6051732  42.3717539 100.2509291  23.1265312
  46.0856779  97.0212756  17.9611551  45.7421049  97.9114398  17.8850662
  46.4535742  96.8314414  17.0981136  45.1653320  99.3917412  15.9260785
  44.6618115  99.3547547  15.1128590  45.4583926 100.3010154  15.9857441
  41.4096205  99.4756141  14.9326966  42.2749202  99.2798950  14.5732856
  41.4773714  99.2466493  15.8596323  39.0158525 101.7058349  12.3043333
  39.5902276 101.4833531  11.5716526  39.6029507 101.7747044  13.0571934
  41.3181192  98.5799598  11.0318403  40.6645605  98.2648615  10.4075017
  41.2761666  97.9575339  11.7578225  44.5518933 105.0681532  15.3566050
  43.6341494 105.2896479  15.1987738  44.9679076 105.1427842  14.4977758
  47.8844445  96.2806316  13.0629289  48.1903322  95.4203679  12.7755204
  48.6097050  96.8723936  12.8628283  42.1565525 106.5760109  13.5705480
  42.2114134 105.6233945  13.4947957  41.3456727 106.7319548  14.0546778
  45.6932096 105.6578993  20.1610753  46.0481484 105.8850466  21.0205219
  46.3404227 105.9897370  19.5388008  39.5871959 102.7655524  16.9457094
  40.2271339 102.6244283  16.2480057  38.7549490 102.4790037  16.5695696
  36.5900576 102.7355849  11.7230081  36.8507393 103.6501182  11.6139241
  37.4117748 102.2680291  11.8726693  38.0625501 104.1493606  18.8928905
  38.7348554 103.9410968  18.2441554  37.2355288 103.9515692  18.4534138
  43.9651073 100.7755547  20.9094566  43.3178988 101.4745497  20.8159042
  44.7352088 101.2091691  21.2770814  39.8064233 104.1221386  20.9610661
  39.2701590 103.6712125  21.6132258  39.2180941 104.2567295  20.2181126
  35.5403354 103.2577394  18.0463656  35.4561543 102.6503063  17.3114066
  34.7186061 103.7486412  18.0473152  45.7127068 101.7430957  13.4133851
  46.2095768 100.9900920  13.0934921  44.9414049 101.7795274  12.8477060
  42.2962037 103.8848340  13.1405536  41.9259824 103.3319381  13.8286441
  42.7921129 103.2806474  12.5880536  48.1546063  98.7100551  15.5613210
  47.2409143  98.9404778  15.7295417  48.5839164  98.7938995  16.4127242
  47.9252521 106.8990443  18.0613104  47.2723972 107.1466350  17.4065557
  48.3032901 106.0854581  17.7275581  43.9740094 107.6410254  24.5479141
  43.2980731 107.5404383  25.2181516  44.7967728 107.4849468  25.0115138
  37.6927370 101.2952331  19.3858642  37.7568697 102.1567162  18.9736039
  37.6294491 100.6826333  18.6531000  37.1679643 103.3675464  23.0331676
  37.7951682 102.9852541  23.6469200  36.3107562 103.1489666  23.3987368
  37.4739433 103.2507889  14.9477579  36.7526018 103.8643857  14.8085053
  38.2632688 103.7865654  14.8694225  40.2765746 100.5862316  21.2218231
  40.8000148 100.8324612  21.9844540  40.0578079 101.4182351  20.8021369
  41.4818291 101.5276011  18.9067902  41.1415112 100.7283824  19.3088582
  40.7757298 101.8277722  18.3344735  42.1334763  98.6125323  17.3595225
  42.9560832  98.1385802  17.2374115  42.3772827  99.3915807  17.8593911
  39.6573342 105.3044444  15.1687203  39.5117923 105.6184747  16.0611485
  39.1798545 105.9229344  14.6158102  41.5169725 102.2946992  15.2168093
  41.5031293 101.3988085  14.8800391  42.2342153 102.3017656  15.8506379
  43.3695855 102.7284332  17.2621220  43.1113633 103.6501403  17.2605551
  42.8380896 102.3314767  17.9521684  43.7897811  98.8616283  13.6222383
  43.8119508  98.9255616  12.6674362  44.2065870  98.0220791  13.8162889
  40.4047700 102.6893370  24.6945596  40.4535856 103.5655493  24.3123365
  40.9470214 102.1470763  24.1217239  51.0100421 110.0826959  21.2879461
  51.0598426 109.9176967  22.2294984  50.9014344 109.2154218  20.8977342
  48.3004183 106.0657887  22.6038768  49.2014046 105.9264352  22.3122766
  48.3752158 106.2312342  23.5436945  42.6346989 103.4424742  21.4491954
  41.7650298 103.7358308  21.1774543  42.8706469 104.0265187  22.1699218
  50.7605806 107.6256516  20.0001541  51.2359928 107.8184162  19.1920392
  49.8371371 107.6815701  19.7544924  45.3386022  99.6604359  18.9657375
  45.8567966 100.3965386  18.6403863  44.9841155  99.9668352  19.8004134
  45.5898617  96.0804642  14.4858271  45.8700370  95.4127831  15.1118698
  46.3749224  96.2733737  13.9732935  49.4607475 104.5022276  18.2329846
  50.4124898 104.6020373  18.2542070  49.2910925 103.7100544  18.7427931
  47.4821854 101.5877859  18.4189247  46.8871787 101.8682872  17.7235736
  47.1971551 102.0771760  19.1905988  52.0890041 104.5139439  17.3930429
  51.5729090 103.7297895  17.2060358  52.9729990 104.1858155  17.5576949
  49.7500768  98.2580454  13.3526242  49.5525589  97.9495542  14.2369574
  50.3600474  98.9842093  13.4824172  45.5074415  98.1389361  11.1022773
  46.0605453  98.5584815  11.7612796  45.7444501  97.2125109  11.1445729
  41.5307514 104.1276435  26.8825537  41.4304241 105.0770792  26.8137628
  41.3129056 103.7994674  26.0101607  47.3356788  99.6494944  12.8122758
  47.8356567  99.7611479  12.0037077  47.9792396  99.3455997  13.4523566
  45.5002148  95.2100180  11.0091860  44.7334544  94.6558666  11.1548543
  45.9112853  95.2822048  11.8706012  37.5043909 101.4984975  25.0997042
  38.3675370 101.1421780  25.3100366  36.9309320 101.1598870  25.7872446
  15.0492489  44.7924808  11.3630718  15.5932393  45.4054767  10.8685673
  14.4679334  45.3504387  11.8797731  18.3721284  44.2520863  10.6992039
  17.5816827  44.2345001  10.1596539  18.1354638  44.7909156  11.4541076
  13.1718548  42.4384575  13.2259474  14.0409708  42.6125228  12.8646109
  12.6925299  43.2578992  13.1035204  24.8311024  54.1473201   2.6304749
  25.4689434  54.0279949   1.9268089  24.7131867  55.0954045   2.6892701
  22.1220513  55.2535481   8.5252479  22.1109154  54.8588279   7.6532983
  22.2841152  54.5201554   9.1186251  18.8427774  58.0372593   7.4731663
  18.5517640  58.9418224   7.3578330  19.4784758  58.0789121   8.1875733
  19.7683981  55.4149441   4.0633023  20.3647553  55.1905464   3.3489986
  19.8258952  54.6734187   4.6658471  29.7860719  51.8099888   0.6090936
  30.5185891  51.2399105   0.8428765  29.0300075  51.4221489   1.0497441
  27.3086140  45.5221462   5.0685544  26.9769464  46.3916873   4.8446759
  26.7131753  45.2057746   5.7479575  23.8017659  57.7234008   4.4681457
  23.5018382  58.6259047   4.3597264  23.4568719  57.4566192   5.3202610
  21.2755669  51.6606194  10.0913792  20.4989003  52.2200114  10.0816656
  21.9146232  52.1462977  10.6128662  29.0676449  48.4432987   3.9256768
  28.4250830  48.7365520   3.2796563  28.5631378  48.3285907   4.7309965
  19.5302041  54.4691648   9.6531759  20.2716725  55.0076692   9.3766582
  18.8239026  55.0957936   9.8103310  25.0057381  56.6120788   8.2503920
  25.4140737  56.1703199   7.5058553  24.2834642  56.0373416   8.5038113
  21.3588451  51.5493395   5.6237477  22.2049646  51.9732808   5.7672126
  21.2987088  50.8927019   6.3176040  25.3286195  57.1721979   2.0056209
  24.6995058  57.3367693   1.3032277  24.9411857  57.5863588   2.7767173
  29.2075427  58.1076416  -0.6399427  28.5226465  58.4875318  -1.1902394
  29.2919277  58.7171743   0.0932521  24.5087896  49.2097763   7.2818651
  24.2648828  49.9639824   6.7452926  24.7847827  49.5883111   8.1165898
  26.4626359  55.7536376   5.9595916  26.6743254  56.3968135   5.2830297
  26.4156107  54.9198692   5.4917846  17.7738238  56.4567868   2.2086057
  18.3439595  56.8855137   1.5703542  18.3646350  56.1750453   2.9070243
  18.2663405  51.6231296  10.4547069  17.6362065  52.3047577  10.6882465
  18.1599493  51.5114377   9.5100207  27.5772187  58.6308331   4.1318274
  28.3989630  58.2288518   3.8500955  27.5734590  58.5276565   5.0834389
  21.3428790  58.1792374   6.2878984  21.4073223  58.6412781   7.1237156
  20.6339714  57.5489739   6.4161294  35.6678180  54.9747079   0.4803245
  34.9141888  54.4054477   0.3247250  35.8025721  54.9409744   1.4273880
  17.5444148  45.9252062  12.8172320  17.1511093  45.3718260  13.4919964
  18.3610288  46.2362640  13.2078837  20.4612108  47.3409941  10.4092576
  21.2021822  47.9417094  10.3297039  20.6930031  46.5987578   9.8510619
  15.6053447  52.5266308   8.6870806  15.4906962  51.6251565   8.9877905
  14.7497964  52.7730005   8.3355622  22.6845284  60.4684048  10.2858307
  22.2409138  59.6820427   9.9679211  23.3462498  60.6563199   9.6202197
  17.4432405  61.9979850   4.8118985  17.9939831  61.8696913   4.0395979
  16.6043881  62.2974739   4.4613878  24.7826522  60.7486848   8.3139708
  24.7644998  61.5695729   7.8219977  25.7046442  60.6240923   8.5389849
  21.2399576  58.2630978   9.1563216  21.7727913  57.5019266   8.9262524
  20.7113658  57.9704629   9.8987371  27.5845135  55.5865991   1.7849075
  26.9268810  56.2765252   1.8729203  28.3885534  55.9762423   2.1283061
  27.1612390  58.9216365  -2.0367841  26.7074717  58.0807275  -1.9802651
  26.5306357  59.5577763  -1.6993061  25.6045329  60.7592861  -1.1018023
  25.8968304  61.3197919  -1.8205657  26.1143950  61.0521422  -0.3464864
  20.5678955  61.5373213  -0.0124570  20.5255133  61.7634059  -0.9416038
  21.4841654  61.3036587   0.1361231  24.0144588  52.0057280   6.8856059
  24.3693976  52.2328753   7.7450525  24.6616720  52.3375657   6.2633315
  29.7711705  57.1952243   2.6016660  30.2048212  57.1027532   3.4499714
  30.4843286  57.1709743   1.9636676  23.5039600  60.7954337   4.1349761
  23.5576622  61.3645273   4.9027476  22.6354381  60.9656222   3.7703798
  30.6327255  57.2375944   5.1349545  30.8263145  58.1421754   5.3808820
  30.5327873  56.7783363   5.9688130  22.2863565  47.1233834   7.6339873
  21.6391480  47.8223784   7.5404349  23.0564581  47.5569978   8.0016121
  25.6942363  57.3882686  10.7090426  25.5427870  57.1593238   9.7920510
  25.6847043  58.3453288  10.7221771  22.4627700  54.9614599   5.6936692
  23.3919760  55.1125759   5.5205660  22.0418730  55.0498620   4.8385339
  21.2616031  58.9865264   3.4635230  21.1227117  58.6184048   4.3361168
  20.4730628  59.5012903   3.2919188  22.8121247  58.3646866   0.8524068
  22.4771079  58.3247636   1.7481718  22.3125192  57.6991582   0.3794478
  16.7865491  53.7714496   6.3776649  16.6485288  53.0394735   6.9788188
  17.6970414  53.6823396   6.0960837  19.4147791  53.4834456   5.8660329
  20.1247410  52.8427648   5.8246947  19.3717099  53.7347350   6.7886509
  27.4034570  60.4201809   8.7866908  27.3447116  59.7361029   8.1197491
  27.8054088  61.1620799   8.3347534  18.1276725  50.4699673   7.6855968
  17.5914082  50.0190412   8.3377564  17.5393434  50.6045582   6.9426432
  27.4051977  58.3841393   7.0180888  26.5178756  58.0467315   7.1407286
  27.9750528  57.6524424   7.2549653  20.9353131  63.0442845   3.9842131
  20.8623302  63.8497817   4.4961435  20.4930524  63.2434811   3.1590152
  31.8869318  53.7949610   1.7797449  31.8759194  54.6774326   1.4091382
  31.0186697  53.4421161   1.5851986  23.3951814  62.9429679   6.1400289
  24.1079786  63.5777144   6.0676191  22.9041843  63.0393545   5.3240291
  18.4463728  60.6924123   6.9605860  19.1473187  61.3260606   7.1135254
  17.9758843  61.0338854   6.2001499  26.2465014  53.2468730   4.7858411
  25.5936464  53.4944638   4.1310863  26.6245393  52.4332868   4.4520888
  23.2072187  63.2828423  -1.1113419  23.3894582  62.4650079  -0.6485667
  24.0305173  63.4996116  -1.5488529  22.2952587  53.9888541  11.2724448
  21.6193224  53.8882671  11.9426823  23.1180220  53.8327755  11.7360445
  14.0431446  60.2260478   3.8936963  14.6284882  59.4804166   4.0264867
  13.8456284  60.5364434   4.7773627  21.0375369  65.2955469   5.5082064
  21.5893677  65.4587090   6.2731149  21.3781563  65.8859906   4.8362088
  15.4892135  49.7153751   9.7576983  16.1164174  49.3330828  10.3714507
  14.6320054  49.4967953  10.1232675  25.8886244  60.1216726  11.3630718
  26.4326148  60.7346684  10.8685673  25.3073089  60.6796305  11.8797731
  24.1743757  63.2437444   2.4945746  24.0494896  62.4427184   1.9856691
  24.8322848  63.7383638   2.0059716  26.2378665  61.0446464   4.1225296
  25.2909001  60.9251815   4.0503623  26.5861438  60.1568962   4.2051557
  18.5978238  46.9340603   7.9463538  19.1212640  47.1802900   8.7089847
  18.3790572  47.7660638   7.5266675  23.2425098  60.8399180   0.3229648
  23.0950061  59.9115888   0.5037218  24.0678592  60.8619271  -0.1613277
  26.8459220  61.6627739   1.4094521  27.7705768  61.4570601   1.2718972
  26.6774524  61.4144140   2.3183862  26.6354536  62.1813407  -3.2343388
  26.8091414  61.6159829  -3.9869535  27.1283428  62.9814302  -3.4163898
  32.4893928  54.9449830  -1.6153088  32.9325074  54.1957155  -2.0133965
  31.6120438  54.9359966  -1.9979356  13.2397518  53.3197972   7.7250328
  12.4979254  53.4680607   8.3114958  12.9190262  53.5806238   6.8617077
  21.1841181  62.8613950   7.5230718  21.4928307  62.6163097   8.3953418
  21.9816663  63.0660589   7.0349588  21.2061793  65.0151860  -0.2463905
  20.7666783  64.5228239   0.4468951  21.9569910  64.4724828  -0.4871830
  18.6535665  60.5589869   1.8258396  18.0315674  59.8960574   1.5260624
  19.3240532  60.5851001   1.1432044  18.7260192  49.0371657  11.4190902
  18.7748348  49.9133780  11.0368672  19.2682707  48.4949050  10.8462545
  29.2115038  59.5812780  10.6992039  28.4210582  59.5636919  10.1596539
  28.9748393  60.1201074  11.4541076  29.3312913  56.4305247   8.0124768
  29.3810918  56.2655254   8.9540291  29.2226837  55.5632506   7.6222649
  26.6216676  52.4136175   9.3284075  27.5226538  52.2742639   9.0368072
  26.6964650  52.5790629  10.2682252  20.9559481  49.7903029   8.1737261
  20.0862790  50.0836595   7.9019849  21.1918961  50.3743474   8.8944525
  30.8331110  58.8502188   8.2566789  30.5415918  59.2132169   9.0930250
  30.2203241  58.1369196   8.0780121  32.0326792  56.4155068   0.7769360
  32.8673684  56.8544872   0.9406920  32.1685921  55.9393721  -0.0422395
  29.0818298  53.9734803   6.7246847  29.5572420  54.1662449   5.9165699
  28.1583864  54.0293989   6.4790231  23.6598515  46.0082646   5.6902681
  24.1780459  46.7443673   5.3649170  23.3053648  46.3146640   6.5249440
  27.7819967  50.8500563   4.9575153  28.7337390  50.9498661   4.9787377
  27.6123418  50.0578831   5.4673237  25.8034347  47.9356146   5.1434554
  25.2084279  48.2161159   4.4481043  25.5184043  48.4250047   5.9151295
  30.2608045  54.0706683   4.0717453  30.2284365  53.1322683   4.2577136
  30.8708669  54.1490719   3.3383278  30.4102534  50.8617726   4.1175736
  29.8941582  50.0776183   3.9305665  31.2942482  50.5336443   4.2822255
  36.0784595  55.1322689   3.2123489  36.8087983  54.8707978   3.7731193
  35.4691540  54.3951411   3.2525557  34.1599892  53.2730552   3.8097941
  33.4333056  53.1386517   3.2014432  33.7447179  53.5807381   4.6154659
  21.9830068  56.9920482  11.5745314  22.9033078  57.1699081  11.7685360
  21.9479651  56.0476527  11.4225013  14.9792141  54.9021516   4.2168095
  15.1978151  55.8338624   4.2356129  15.3917915  54.5429491   5.0022899
  19.8520006  50.4754722  13.6070844  19.7516733  51.4249079  13.5382935
  19.6341548  50.1472961  12.7346914  19.7151276  53.9051861  12.4235905
  19.2318358  54.7052221  12.6299794  19.8012215  53.9159806  11.4703349
  15.6424614  57.7956396   4.4604339  16.5967867  57.7640338   4.3934271
  15.4437137  57.3347019   5.2754565  16.2323996  56.3657512   7.0275137
  17.0516885  56.8601590   7.0509974  16.5060804  55.4489480   6.9992704
  31.7777687  49.4942404   1.1631372  32.3722178  49.2538140   0.4524680
  31.8504271  48.7749535   1.7904909  34.0848760  52.8008605  -0.0625207
  33.5248318  52.8701794   0.7106355  33.4792263  52.6249590  -0.7825710
  24.0112302  57.7676493  13.2259474  24.8803462  57.9417145  12.8646109
  23.5319054  58.5870910  13.1035204  18.1798483  64.8873594   4.9048908
  19.0825729  64.9197204   5.2215403  17.9535853  63.9574045   4.9195244
  19.9352085  63.6404581   1.5658987  18.9847716  63.6406442   1.4523359
  20.2384571  62.8937315   1.0495021  15.8256401  47.8463263  11.8242348
  16.6887863  47.4900067  12.0345673  15.2521812  47.5077157  12.5117752
  35.6704778  69.4765119   2.6304749  36.3083188  69.3571866   1.9268089
  35.5525621  70.4245963   2.6892701  32.4794484  69.4292547   2.5666274
  32.1412996  69.3133612   1.6786809  33.3484253  69.0283712   2.5467280
  28.3381300  71.2828023  -1.4436835  27.7746165  71.1917960  -2.2120547
  28.2233695  70.4627928  -0.9634343  32.9614267  70.5827399   8.5252479
  32.9502908  70.1880197   7.6532983  33.1234907  69.8493471   9.1186251
  25.8845732  72.7779215   1.3947385  26.6767024  72.4370040   0.9793685
  26.1242382  72.8874190   2.3149539  29.6821529  73.3664511   7.4731663
  29.3911395  74.2710141   7.3578330  30.3178513  73.4081038   8.1875733
  30.6077735  70.7441359   4.0633023  31.2041308  70.5197381   3.3489986
  30.6652707  70.0026105   4.6658471  35.2246047  67.2016573  -0.2942043
  36.0109136  66.7835996  -0.6451626  35.4884751  68.1062665  -0.1260394
  35.3956124  72.6389423  -5.5953386  34.7601957  72.7124050  -4.8832481
  35.0653530  73.2283022  -6.2734307  40.6254474  67.1391806   0.6090936
  41.3579646  66.5691023   0.8428765  39.8693829  66.7513406   1.0497441
  32.2430593  69.5619047  -2.1945722  31.8788801  69.0349668  -1.4832800
  33.0997709  69.1717517  -2.3679236  38.1479894  60.8513380   5.0685544
  37.8163219  61.7208791   4.8446759  37.5525507  60.5349664   5.7479575
  31.8836080  64.5908947  -7.1984373  32.0510483  65.4589184  -6.8313902
  31.6933250  64.7536229  -8.1223084  34.6411414  73.0525926   4.4681457
  34.3412137  73.9550965   4.3597264  34.2962473  72.7858109   5.3202610
  28.0923895  69.5039723   0.5018161  27.1674392  69.3715937   0.7095853
  28.3408308  70.2833942   0.9988104  38.0408557  65.5708466   2.1478894
  37.1325435  65.5023875   1.8537655  37.9896153  66.0480411   2.9760720
  31.8625301  67.0466605  -6.2137706  31.7424927  67.4923655  -5.3752226
  31.1677890  67.3951922  -6.7724168  25.4532706  69.1472996   1.3361951
  25.5825087  69.4007475   2.2501362  24.7730157  69.7400704   1.0166606
  32.1149423  66.9898112  10.0913792  31.3382757  67.5492032  10.0816656
  32.7539986  67.4754895  10.6128662  39.9070204  63.7724905   3.9256768
  39.2644584  64.0657438   3.2796563  39.4025132  63.6577825   4.7309965
  37.5610367  67.5188078  -5.3857372  38.4728224  67.7515465  -5.5609675
  37.0520015  68.1025122  -5.9482294  30.3695796  69.7983565   9.6531759
  31.1110480  70.3368609   9.3766582  29.6632781  70.4249854   9.8103310
  35.8451135  71.9412706   8.2503920  36.2534491  71.4995116   7.5058553
  35.1228397  71.3665333   8.5038113  32.1982205  66.8785312   5.6237477
  33.0443400  67.3024726   5.7672126  32.1380843  66.2218937   6.3176040
  36.1679950  72.5013896   2.0056209  35.5388812  72.6659610   1.3032277
  35.7805612  72.9155506   2.7767173  40.0469182  73.4368334  -0.6399427
  39.3620220  73.8167236  -1.1902394  40.1313031  74.0463661   0.0932521
  35.3481651  64.5389681   7.2818651  35.1042582  65.2931741   6.7452926
  35.6241581  64.9175028   8.1165898  37.3020113  71.0828293   5.9595916
  37.5137009  71.7260053   5.2830297  37.2549862  70.2490610   5.4917846
  34.9046342  63.6946114   2.8632488  34.0430821  63.9927367   3.1549226
  34.9308777  63.9116513   1.9313521  31.7207912  72.2388304  -0.7293706
  32.1846257  72.5176007  -1.5189083  31.4564710  71.3371749  -0.9120615
  28.6131993  71.7859786   2.2086057  29.1833350  72.2147054   1.5703542
  29.2040105  71.5042371   2.9070243  30.6576798  68.3611457  -3.9204141
  31.3600841  68.8132500  -3.4530214  30.3257426  67.7195276  -3.2924248
  29.1057159  66.9523213  10.4547069  28.4755820  67.6339494  10.6882465
  28.9993247  66.8406295   9.5100207  24.4002132  66.6195009   1.3812993
  23.6101186  66.8752538   0.9053103  24.8913379  67.4343347   1.4865033
  38.4165941  73.9600249   4.1318274  39.2383385  73.5580436   3.8500955
  38.4128344  73.8568483   5.0834389  26.3516877  66.9839589  -1.6603530
  25.5548040  67.0958283  -1.1420035  26.1242469  67.3226241  -2.5262640
  32.1822545  73.5084292   6.2878984  32.2466977  73.9704699   7.1237156
  31.4733469  72.8781657   6.4161294  22.6839835  66.8725500   3.8127984
  22.9347873  67.7572510   4.0785560  23.2199383  66.6930101   3.0403075
  46.5071934  70.3038997   0.4803245  45.7535643  69.7346395   0.3247250
  46.6419476  70.2701662   1.4273880  28.3837902  61.2543979  12.8172320
  27.9904848  60.7010178  13.4919964  29.2004042  61.5654558  13.2078837
  31.3005863  62.6701858  10.4092576  32.0415576  63.2709011  10.3297039
  31.5323786  61.9279496   9.8510619  26.4447201  67.8558226   8.6870806
  26.3300716  66.9543483   8.9877905  25.5891719  68.1021922   8.3355622
  33.5239039  75.7975966  10.2858307  33.0802893  75.0112344   9.9679211
  34.1856252  75.9855116   9.6202197  28.2826160  77.3271767   4.8118985
  28.8333585  77.1988831   4.0395979  27.4437636  77.6266657   4.4613878
  35.6220277  76.0778766   8.3139708  35.6038752  76.8987647   7.8219977
  36.5440197  75.9532841   8.5389849  32.0793331  73.5922895   9.1563216
  32.6121668  72.8311183   8.9262524  31.5507412  73.2996547   9.8987371
  35.2463026  58.6982961   4.6856858  34.9027295  59.5884603   4.6095969
  35.6141989  58.5084619   3.8226443  35.2113309  68.6891572  -6.8070707
  34.6959932  69.4596177  -6.5682320  34.9390617  68.0156709  -6.1837645
  32.7960420  63.5341273  -1.7485469  31.9402016  63.1448124  -1.9279830
  33.2087371  63.6133234  -2.6085683  34.3259566  61.0687616   2.6506091
  33.8224362  61.0317752   1.8373896  34.6190173  61.9780359   2.7102748
  30.5702452  61.1526346   1.6572273  31.4355449  60.9569155   1.2978162
  30.6379961  60.9236698   2.5841630  40.1847583  71.4423927  -4.8717533
  39.4077026  71.1035087  -5.3162371  40.8639064  71.4476550  -5.5462568
  34.9999612  66.5618664  -4.9810926  34.6949747  66.8764814  -4.1300783
  35.9530054  66.6400084  -4.9383593  33.4446044  72.7208888  -3.3317972
  32.9167405  71.9861647  -3.6444734  32.9433546  73.4983564  -3.5778003
  38.4238890  70.9157908   1.7849075  37.7662564  71.6057170   1.8729203
  39.2279289  71.3054340   2.1283061  28.1764771  63.3828554  -0.9711360
  28.7508523  63.1603736  -1.7038167  28.7635754  63.4517249  -0.2182759
  37.2344348  69.2702281  -0.1646984  37.7476230  69.9032273   0.3374726
  37.8845572  68.6703476  -0.5303624  30.4787439  60.2569803  -2.2436291
  29.8251851  59.9418820  -2.8679676  30.4367913  59.6345543  -1.5176468
  33.7125179  66.7451737   2.0811357  32.7947741  66.9666684   1.9233045
  34.1285323  66.8198047   1.2223064  34.4960227  68.1443152  -2.7885963
  35.2432046  68.6564549  -3.0978841  34.7651817  67.8227205  -1.9281569
  38.0006145  74.2508282  -2.0367841  37.5468472  73.4099192  -1.9802651
  37.3700111  74.8869681  -1.6993061  36.9439064  65.1800268  -0.8067174
  36.2061821  64.6677655  -0.4756931  37.1965838  64.7400650  -1.6183897
  36.4439084  76.0884779  -1.1018023  36.7362058  76.6489836  -1.8205657
  36.9537705  76.3813340  -0.3464864  37.0450692  57.9576520  -0.2125404
  37.3509568  57.0973884  -0.4999489  37.7703296  58.5494141  -0.4126410
  31.3171771  68.2530314   0.2950787  31.3720381  67.3004150   0.2193263
  30.5062973  68.4089753   0.7792085  29.2564131  66.8707373  -1.9458834
  28.4431997  67.1701544  -1.5393642  29.7523125  66.4763062  -1.2284352
  31.4072709  76.8665130  -0.0124570  31.3648888  77.0925977  -0.9416038
  32.3235408  76.6328505   0.1361231  34.8538343  67.3349198   6.8856059
  35.2087731  67.5620671   7.7450525  35.5010474  67.6667575   6.2633315
  40.5836080  70.4567634  -2.4094612  40.4453978  70.6469230  -3.3373422
  40.2272299  71.2187016  -1.9526560  28.7478206  64.4425729   3.6702401
  29.3877585  64.3014488   2.9725364  27.9155737  64.1560242   3.2941003
  40.6105459  72.5244161   2.6016660  41.0441966  72.4319450   3.4499714
  41.3237040  72.5001661   1.9636676  29.5238510  73.7428159  -0.2162607
  30.3179108  73.2478479  -0.4180032  28.8130202  73.2146022  -0.5794901
  34.3433354  76.1246255   4.1349761  34.3970377  76.6937191   4.9027476
  33.4748136  76.2948140   3.7703798  25.7506822  64.4126054  -1.5524613
  26.0113640  65.3271387  -1.6615452  26.5723995  63.9450496  -1.4028000
  27.2231748  65.8263811   5.6174212  27.8954801  65.6181173   4.9686861
  26.3961534  65.6285897   5.1779444  41.4721009  72.5667861   5.1349545
  41.6656899  73.4713672   5.3808820  41.3721627  72.1075280   5.9688130
  33.1257320  62.4525752   7.6339873  32.4785235  63.1515702   7.5404349
  33.8958335  62.8861896   8.0016121  36.5336118  72.7174604  10.7090426
  36.3821624  72.4885156   9.7920510  36.5240797  73.6745205  10.7221771
  33.3021454  70.2906517   5.6936692  34.2313514  70.4417676   5.5205660
  32.8812484  70.3790538   4.8385339  32.1009786  74.3157181   3.4635230
  31.9620872  73.9475966   4.3361168  31.3124382  74.8304821   3.2919188
  33.6515001  73.6938784   0.8524068  33.3164834  73.6539554   1.7481718
  33.1518947  73.0283500   0.3794478  27.6259245  69.1006414   6.3776649
  27.4879043  68.3686653   6.9788188  28.5364168  69.0115314   6.0960837
  30.2541546  68.8126373   5.8660329  30.9641164  68.1719565   5.8246947
  30.2110854  69.0639268   6.7886509  38.2428324  75.7493727   8.7866908
  38.1840871  75.0652947   8.1197491  38.6447843  76.4912717   8.3347534
  28.9670480  65.7991591   7.6855968  28.4307837  65.3482330   8.3377564
  28.3787188  65.9337500   6.9426432  38.2445732  73.7133311   7.0180888
  37.3572510  73.3759232   7.1407286  38.8144283  72.9816342   7.2549653
  24.7009601  64.9347599   4.7708963  24.6167790  64.3273268   4.0359373
  23.8792307  65.4256617   4.7718459  31.7746885  78.3734763   3.9842131
  31.7017057  79.1789734   4.4961435  31.3324278  78.5726729   3.1590152
  34.8733315  63.4201162   0.1379158  35.3702014  62.6671125  -0.1819772
  34.1020296  63.4565479  -0.4277633  42.7263072  69.1241528   1.7797449
  42.7152948  70.0066243   1.4091382  41.8580452  68.7713079   1.5851986
  34.2345569  78.2721597   6.1400289  34.9473541  78.9069062   6.0676191
  33.7435597  78.3685463   5.3240291  35.9563095  72.1772850  -2.2882419
  35.0219374  72.2974312  -2.4577715  36.1339764  71.2745316  -2.5522409
  31.4568284  65.5618545  -0.1349158  31.0866071  65.0089586   0.5531748
  31.9527376  64.9576679  -0.6874158  39.3435647  68.0190169  -1.7532385
  39.8096099  68.8518160  -1.8272082  39.7943147  67.5535150  -1.0487126
  29.2857482  76.0216040   6.9605860  29.9866942  76.6552523   7.1135254
  28.8152597  76.3630772   6.2001499  37.4111878  74.3633990  -4.7546233
  37.6871722  74.2490585  -3.8452359  36.5416377  73.9651475  -4.7934060
  37.3152310  60.3870756   2.2858517  36.4015389  60.6174983   2.4540723
  37.7445411  60.4709200   3.1372549  37.0858768  68.5760648   4.7858411
  36.4330218  68.8236555   4.1310863  37.4639148  67.7624786   4.4520888
  34.0465942  78.6120341  -1.1113419  34.2288336  77.7941997  -0.6485667
  34.8698928  78.8288033  -1.5488529  34.3808107  77.5388526  -3.8498371
  34.9095874  77.0280981  -4.4628209  34.6436327  77.2231056  -2.9852838
  33.1346341  69.3180459  11.2724448  32.4586978  69.2174588  11.9426823
  33.9573975  69.1619673  11.7360445  24.8825200  75.5552395   3.8936963
  25.4678637  74.8096083   4.0264867  24.6850039  75.8656352   4.7773627
  31.8769124  80.6247386   5.5082064  32.4287432  80.7879008   6.2731149
  32.2175317  81.2151824   4.8362088  26.8533617  62.9722536   6.1103948
  26.9174944  63.8337367   5.6981346  26.7900737  62.3596538   5.3776307
  26.3285890  65.0445669   9.7576983  26.9557929  64.6622746  10.3714507
  25.4713809  64.8259871  10.1232675  36.7279998  75.4508644  11.3630718
  37.2719902  76.0638602  10.8685673  36.1466843  76.0088222  11.8797731
  35.0137511  78.5729362   2.4945746  34.8888651  77.7719102   1.9856691
  35.6716602  79.0675555   2.0059716  26.6345679  64.9278094   1.6722886
  25.9132265  65.5414062   1.5330359  27.4238935  65.4635859   1.5939532
  37.0772420  76.3738382   4.1225296  36.1302755  76.2543733   4.0503623
  37.4255193  75.4860880   4.2051557  29.4371993  62.2632521   7.9463538
  29.9606395  62.5094817   8.7089847  29.2184326  63.0952556   7.5266675
  34.0818853  76.1691098   0.3229648  33.9343815  75.2407806   0.5037218
  34.9072346  76.1911189  -0.1613277  27.9481097  64.8209165  -3.8189860
  28.2877170  65.3495086  -4.5411251  28.3953218  65.1589571  -3.0431293
  37.6852975  76.9919657   1.4094521  38.6099522  76.7862518   1.2718972
  37.5168278  76.7436058   2.3183862  30.6424538  63.2046216   5.6313208
  30.3021358  62.4054029   6.0333888  29.9363544  63.5047927   5.0590042
  31.2941010  60.2895528   4.0840531  32.1167079  59.8156007   3.9619422
  31.5379073  61.0686012   4.5839218  29.9349244  63.3183787  -5.6196567
  30.6557607  63.6965040  -6.1232850  29.3114548  64.0372664  -5.5161589
  34.0780367  64.0228936  -4.6838235  34.2943982  64.9053574  -4.9849406
  33.5974434  63.6315149  -5.4132593  28.8179589  66.9814649   1.8932510
  28.6724169  67.2954952   2.7856791  28.3404792  67.5999549   1.3403409
  30.6775971  63.9717197   1.9413400  30.6637540  63.0758290   1.6045697
  31.3948400  63.9787861   2.5751686  32.5302102  64.4054537   3.9866527
  32.2719880  65.3271608   3.9850857  31.9987143  64.0084972   4.6766991
  37.4748291  77.5105324  -3.2343388  37.6485168  76.9451747  -3.9869535
  37.9677182  78.3106219  -3.4163898  23.2925251  69.5219993   4.8320171
  22.7478719  70.2979801   4.9640445  24.1704601  69.8690798   4.6739293
  30.0812867  62.8531577  -2.7899030  30.2028779  61.9248223  -2.5908143
  29.7914910  62.8670263  -3.7020715  32.9504058  60.5386488   0.3467689
  32.9725755  60.6025821  -0.6080331  33.3672117  59.6990996   0.5408196
  43.3287682  70.2741747  -1.6153088  43.7718828  69.5249072  -2.0133965
  42.4514192  70.2651884  -1.9979356  24.0791273  68.6489890   7.7250328
  23.3373009  68.7972525   8.3114958  23.7584017  68.9098155   6.8617077
  40.3614887  74.2771794  -4.6059159  40.8866211  74.6159067  -5.3309839
  40.2737239  73.3418810  -4.7896024  32.0234935  78.1905868   7.5230718
  32.3322062  77.9455015   8.3953418  32.8210417  78.3952506   7.0349588
  32.0455547  80.3443778  -0.2463905  31.6060538  79.8520156   0.4468951
  32.7963664  79.8016745  -0.4871830  29.4929419  75.8881787   1.8258396
  28.8709429  75.2252492   1.5260624  30.1634286  75.9142919   1.1432044
  29.5653947  64.3663575  11.4190902  29.6142102  65.2425697  11.0368672
  30.1076461  63.8240968  10.8462545  40.0508793  74.9104698  10.6992039
  39.2604336  74.8928837  10.1596539  39.8142147  75.4492992  11.4541076
  40.1706668  71.7597164   8.0124768  40.2204673  71.5947172   8.9540291
  40.0620591  70.8924423   7.6222649  37.4610430  67.7428092   9.3284075
  38.3620293  67.6034557   9.0368072  37.5358405  67.9082547  10.2682252
  31.7953235  65.1194947   8.1737261  30.9256545  65.4128513   7.9019849
  32.0312716  65.7035392   8.8944525  41.6724865  74.1794106   8.2566789
  41.3809673  74.5424086   9.0930250  41.0596996  73.4661114   8.0780121
  42.8720547  71.7446986   0.7769360  43.7067438  72.1836790   0.9406920
  43.0079676  71.2685639  -0.0422395  39.9212053  69.3026720   6.7246847
  40.3966174  69.4954367   5.9165699  38.9977618  69.3585906   6.4790231
  34.4992269  61.3374564   5.6902681  35.0174213  62.0735591   5.3649170
  34.1447402  61.6438557   6.5249440  34.7504863  57.7574847   1.2103578
  35.0306617  57.0898036   1.8364004  35.5355470  57.9503942   0.6978242
  38.6213722  66.1792481   4.9575153  39.5731145  66.2790578   4.9787377
  38.4517172  65.3870749   5.4673237  36.6428101  63.2648064   5.1434554
  36.0478033  63.5453076   4.4481043  36.3577798  63.7541965   5.9151295
  41.1001800  69.3998600   4.0717453  41.0678120  68.4614601   4.2577136
  41.7102423  69.4782637   3.3383278  41.2496288  66.1909644   4.1175736
  40.7335337  65.4068100   3.9305665  42.1336237  65.8628360   4.2822255
  38.9107015  59.9350659   0.0771549  38.7131836  59.6265747   0.9614880
  39.5206721  60.6612298   0.2069478  46.9178349  70.4614607   3.2123489
  47.6481738  70.1999895   3.7731193  46.3085295  69.7243329   3.2525557
  44.9993647  68.6022470   3.8097941  44.2726810  68.4678435   3.2014432
  44.5840933  68.9099298   4.6154659  32.8223823  72.3212399  11.5745314
  33.7426832  72.4990998  11.7685360  32.7873406  71.3768445  11.4225013
  22.0405988  67.5150993   0.4998588  21.7208772  66.6616301   0.2072962
  21.4939416  67.7299571   1.2556556  25.8185895  70.2313434   4.2168095
  26.0371905  71.1630542   4.2356129  26.2311669  69.8721408   5.0022899
  32.7390113  60.7381519  -3.7956217  31.9290842  60.3928604  -3.4200971
  33.4274530  60.4289063  -3.2068605  34.6680662  59.8159566  -2.1731920
  35.2211700  60.2355020  -1.5141897  34.9050748  58.8895314  -2.1308964
  30.6913761  65.8046640  13.6070844  30.5910488  66.7540997  13.5382935
  30.4735303  65.4764879  12.7346914  38.0459469  61.9260091  -2.6653256
  37.4658138  62.5844895  -3.0475203  37.7795401  61.1037436  -3.0765838
  36.4963035  61.3265149  -0.4631936  36.9962813  61.4381683  -1.2717617
  37.1398643  61.0226202   0.1768873  30.5545031  69.2343779  12.4235905
  30.0712113  70.0344139  12.6299794  30.6405970  69.2451723  11.4703349
  26.4818368  73.1248313   4.4604339  27.4361622  73.0932256   4.3934271
  26.2830892  72.6638937   5.2754565  27.0717750  71.6949429   7.0275137
  27.8910639  72.1893508   7.0509974  27.3454558  70.7781397   6.9992704
  36.8284347  64.0860182  -3.6096908  35.9410202  64.3709832  -3.8276713
  37.2438336  63.9253945  -4.4569631  40.1798883  64.1106703   0.1057432
  40.9559273  64.6003155   0.3782048  39.4547017  64.5364757   0.5629301
  42.6171441  64.8234322   1.1631372  43.2115932  64.5830058   0.4524680
  42.6898025  64.1041452   1.7904909  36.8025370  69.6014718  -3.3946617
  36.7460572  70.0583269  -4.2338985  37.3553713  68.8405402  -3.5723775
  40.6130176  65.3904449  -2.5696498  40.3567111  64.9901085  -1.7388290
  39.9883044  66.1048243  -2.6946359  44.9242514  68.1300523  -0.0625207
  44.3642072  68.1993712   0.7106355  44.3186018  67.9541507  -0.7825710
  37.5360150  70.7919499  -6.0994088  37.4808954  70.6263770  -7.0405644
  36.9106205  71.4995532  -5.9431899  22.3252665  66.0287563   7.7267334
  22.9711528  65.5186517   8.2154559  22.1169816  66.7656245   8.3010759
  34.8506057  73.0968411  13.2259474  35.7197217  73.2709063  12.8646109
  34.3712808  73.9162827  13.1035204  29.0192237  80.2165512   4.9048908
  29.9219484  80.2489122   5.2215403  28.7929607  79.2865963   4.9195244
  30.7745839  78.9696498   1.5658987  29.8241470  78.9698360   1.4523359
  31.0778325  78.2229233   1.0495021  34.6608395  56.8870384  -2.2662833
  33.8940790  56.3328871  -2.1206151  35.0719100  56.9592253  -1.4048681
  26.6650156  63.1755180  11.8242348  27.5281617  62.8191985  12.0345673
  26.0915566  62.8369075  12.5117752  43.3188239  84.7584465   2.5666274
  42.9806750  84.6425529   1.6786809  44.1878007  84.3575630   2.5467280
  43.8008022  85.9119316   8.5252479  43.7896663  85.5172115   7.6532983
  43.9628661  85.1785389   9.1186251  36.7239487  88.1071133   1.3947385
  37.5160778  87.7661957   0.9793685  36.9636137  88.2166108   2.3149539
  40.5215283  88.6956428   7.4731663  40.2305149  89.6002059   7.3578330
  41.1572267  88.7372956   8.1875733  41.4471490  86.0733277   4.0633023
  42.0435062  85.8489299   3.3489986  41.5046461  85.3318022   4.6658471
  48.9873649  76.1805298   5.0685544  48.6556973  77.0500709   4.8446759
  48.3919262  75.8641582   5.7479575  38.9317650  84.8331641   0.5018161
  38.0068146  84.7007855   0.7095853  39.1802063  85.6125860   0.9988104
  48.8802312  80.9000384   2.1478894  47.9719189  80.8315792   1.8537655
  48.8289908  81.3772329   2.9760720  36.2926461  84.4764914   1.3361951
  36.4218842  84.7299393   2.2501362  35.6123912  85.0692622   1.0166606
  42.9543178  82.3190030  10.0913792  42.1776512  82.8783950  10.0816656
  43.5933741  82.8046813  10.6128662  50.7463958  79.1016822   3.9256768
  50.1038339  79.3949356   3.2796563  50.2418887  78.9869743   4.7309965
  41.2089550  85.1275483   9.6531759  41.9504234  85.6660527   9.3766582
  40.5026535  85.7541772   9.8103310  46.6844890  87.2704623   8.2503920
  47.0928246  86.8287034   7.5058553  45.9622151  86.6957251   8.5038113
  43.0375960  82.2077230   5.6237477  43.8837155  82.6316644   5.7672126
  42.9774597  81.5510854   6.3176040  46.1875405  79.8681598   7.2818651
  45.9436337  80.6223659   6.7452926  46.4635336  80.2466946   8.1165898
  48.1413868  86.4120211   5.9595916  48.3530763  87.0551971   5.2830297
  48.0943616  85.5782527   5.4917846  45.7440097  79.0238032   2.8632488
  44.8824576  79.3219285   3.1549226  45.7702531  79.2408430   1.9313521
  39.9450914  82.2815131  10.4547069  39.3149574  82.9631412  10.6882465
  39.8387002  82.1698213   9.5100207  35.2395886  81.9486927   1.3812993
  34.4494940  82.2044456   0.9053103  35.7307134  82.7635265   1.4865033
  43.0216299  88.8376210   6.2878984  43.0860732  89.2996617   7.1237156
  42.3127223  88.2073574   6.4161294  33.5233589  82.2017418   3.8127984
  33.7741628  83.0864427   4.0785560  34.0593138  82.0222019   3.0403075
  39.2231656  76.5835897  12.8172320  38.8298602  76.0302095  13.4919964
  40.0397797  76.8946475  13.2078837  42.1399617  77.9993776  10.4092576
  42.8809331  78.6000929  10.3297039  42.3717540  77.2571414   9.8510619
  37.2840955  83.1850143   8.6870806  37.1694471  82.2835401   8.9877905
  36.4285473  83.4313840   8.3355622  44.3632793  91.1267884  10.2858307
  43.9196647  90.3404262   9.9679211  45.0250007  91.3147034   9.6202197
  46.4614031  91.4070684   8.3139708  46.4432507  92.2279565   7.8219977
  47.3833951  91.2824759   8.5389849  42.9187085  88.9214813   9.1563216
  43.4515422  88.1603101   8.9262524  42.3901167  88.6288465   9.8987371
  46.0856780  74.0274879   4.6856858  45.7421050  74.9176521   4.6095969
  46.4535743  73.8376537   3.8226443  45.1653321  76.3979534   2.6506091
  44.6618116  76.3609669   1.8373896  45.4583928  77.3072277   2.7102748
  41.4096207  76.4818264   1.6572273  42.2749203  76.2861073   1.2978162
  41.4773716  76.2528616   2.5841630  39.0158526  78.7120472  -0.9711360
  39.5902278  78.4895653  -1.7038167  39.6029508  78.7809166  -0.2182759
  41.3181193  75.5861721  -2.2436291  40.6645606  75.2710738  -2.8679676
  41.2761668  74.9637461  -1.5176468  44.5518934  82.0743654   2.0811357
  43.6341495  82.2958601   1.9233045  44.9679077  82.1489965   1.2223064
  47.8844446  73.2868438  -0.2125404  48.1903323  72.4265802  -0.4999489
  48.6097051  73.8786058  -0.4126410  42.1565526  83.5822231   0.2950787
  42.2114136  82.6296068   0.2193263  41.3456728  83.7381670   0.7792085
  45.6932097  82.6641115   6.8856059  46.0481485  82.8912589   7.7450525
  46.3404229  82.9959492   6.2633315  39.5871960  79.7717646   3.6702401
  40.2271340  79.6306406   2.9725364  38.7549491  79.4852160   3.2941003
  36.5900577  79.7417971  -1.5524613  36.8507394  80.6563305  -1.6615452
  37.4117749  79.2742414  -1.4028000  38.0625502  81.1555729   5.6174212
  38.7348556  80.9473091   4.9686861  37.2355289  80.9577815   5.1779444
  43.9651074  77.7817670   7.6339873  43.3178989  78.4807619   7.5404349
  44.7352090  78.2153813   8.0016121  47.3729872  88.0466522  10.7090426
  47.2215379  87.8177073   9.7920510  47.3634552  89.0037123  10.7221771
  44.1415209  85.6198434   5.6936692  45.0707269  85.7709594   5.5205660
  43.7206239  85.7082455   4.8385339  38.4653000  84.4298332   6.3776649
  38.3272797  83.6978570   6.9788188  39.3757923  84.3407232   6.0960837
  41.0935300  84.1418291   5.8660329  41.8034919  83.5011483   5.8246947
  41.0504608  84.3931186   6.7886509  49.0822079  91.0785644   8.7866908
  49.0234625  90.3944864   8.1197491  49.4841597  91.8204634   8.3347534
  39.8064234  81.1283509   7.6855968  39.2701591  80.6774247   8.3377564
  39.2180943  81.2629418   6.9426432  49.0839486  89.0425228   7.0180888
  48.1966265  88.7051150   7.1407286  49.6538037  88.3108259   7.2549653
  35.5403355  80.2639517   4.7708963  35.4561544  79.6565186   4.0359373
  34.7186062  80.7548535   4.7718459  45.7127069  78.7493080   0.1379158
  46.2095769  77.9963042  -0.1819772  44.9414051  78.7857397  -0.4277633
  42.2962038  80.8910463  -0.1349158  41.9259826  80.3381503   0.5531748
  42.7921130  80.2868597  -0.6874158  40.1251237  91.3507958   6.9605860
  40.8260696  91.9844441   7.1135254  39.6546352  91.6922690   6.2001499
  48.1546064  75.7162674   2.2858517  47.2409144  75.9466900   2.4540723
  48.5839166  75.8001118   3.1372549  47.9252523  83.9052565   4.7858411
  47.2723973  84.1528473   4.1310863  48.3032902  83.0916704   4.4520888
  43.9740096  84.6472377  11.2724448  43.2980733  84.5466506  11.9426823
  44.7967729  84.4911590  11.7360445  35.7218955  90.8844313   3.8936963
  36.3072391  90.1388001   4.0264867  35.5243793  91.1948270   4.7773627
  37.6927372  78.3014454   6.1103948  37.7568698  79.1629285   5.6981346
  37.6294492  77.6888455   5.3776307  37.1679644  80.3737586   9.7576983
  37.7951683  79.9914664  10.3714507  36.3107563  80.1551788  10.1232675
  47.5673753  90.7800562  11.3630718  48.1113657  91.3930520  10.8685673
  46.9860598  91.3380140  11.8797731  37.4739434  80.2570012   1.6722886
  36.7526020  80.8705980   1.5330359  38.2632690  80.7927777   1.5939532
  40.2765747  77.5924439   7.9463538  40.8000149  77.8386735   8.7089847
  40.0578081  78.4244473   7.5266675  41.4818293  78.5338134   5.6313208
  41.1415113  77.7345947   6.0333888  40.7757299  78.8339844   5.0590042
  42.1334764  75.6187446   4.0840531  42.9560834  75.1447924   3.9619422
  42.3772828  76.3977930   4.5839218  39.6573343  82.3106567   1.8932510
  39.5117924  82.6246870   2.7856791  39.1798547  82.9291467   1.3403409
  41.5169726  79.3009115   1.9413400  41.5031295  78.4050208   1.6045697
  42.2342154  79.3079778   2.5751686  43.3695857  79.7346455   3.9866527
  43.1113635  80.6563526   3.9850857  42.8380897  79.3376889   4.6766991
  34.1319005  84.8511911   4.8320171  33.5872473  85.6271719   4.9640445
  35.0098355  85.1982716   4.6739293  43.7897812  75.8678405   0.3467689
  43.8119509  75.9317738  -0.6080331  44.2065871  75.0282914   0.5408196
  34.9185027  83.9781807   7.7250328  34.1766763  84.1264443   8.3114958
  34.5977771  84.2390073   6.8617077  42.8628690  93.5197786   7.5230718
  43.1715816  93.2746932   8.3953418  43.6604172  93.7244424   7.0349588
  40.4047701  79.6955492  11.4190902  40.4535857  80.5717615  11.0368672
  40.9470216  79.1532885  10.8462545  50.8902547  90.2396616  10.6992039
  50.0998091  90.2220754  10.1596539  50.6535902  90.7784909  11.4541076
  51.0100422  87.0889082   8.0124768  51.0598427  86.9239089   8.9540291
  50.9014346  86.2216341   7.6222649  48.3004185  83.0720010   9.3284075
  49.2014047  82.9326475   9.0368072  48.3752159  83.2374465  10.2682252
  42.6346990  80.4486865   8.1737261  41.7650299  80.7420431   7.9019849
  42.8706470  81.0327310   8.8944525  52.5118619  89.5086023   8.2566789
  52.2203427  89.8716004   9.0930250  51.8990750  88.7953032   8.0780121
  50.7605807  84.6318638   6.7246847  51.2359929  84.8246284   5.9165699
  49.8371373  84.6877824   6.4790231  45.3386024  76.6666482   5.6902681
  45.8567968  77.4027509   5.3649170  44.9841157  76.9730475   6.5249440
  45.5898618  73.0866764   1.2103578  45.8700372  72.4189953   1.8364004
  46.3749225  73.2795860   0.6978242  49.4607476  81.5084398   4.9575153
  50.4124899  81.6082496   4.9787377  49.2910927  80.7162667   5.4673237
  47.4821856  78.5939981   5.1434554  46.8871788  78.8744994   4.4481043
  47.1971552  79.0833882   5.9151295  52.0890043  81.5201561   4.1175736
  51.5729091  80.7360018   3.9305665  52.9729991  81.1920278   4.2822255
  49.7500769  75.2642577   0.0771549  49.5525591  74.9557665   0.9614880
  50.3600475  75.9904216   0.2069478  43.6617577  87.6504317  11.5745314
  44.5820587  87.8282916  11.7685360  43.6267160  86.7060362  11.4225013
  32.8799742  82.8442911   0.4998588  32.5602527  81.9908219   0.2072962
  32.3333171  83.0591489   1.2556556  36.6579650  85.5605352   4.2168095
  36.8765660  86.4922459   4.2356129  37.0705424  85.2013326   5.0022899
  45.5074416  75.1451484  -2.1731920  46.0605455  75.5646937  -1.5141897
  45.7444502  74.2187232  -2.1308964  41.5307515  81.1338557  13.6070844
  41.4304242  82.0832914  13.5382935  41.3129057  80.8056796  12.7346914
  47.3356790  76.6557067  -0.4631936  47.8356568  76.7673601  -1.2717617
  47.9792397  76.3518119   0.1768873  41.3938785  84.5635696  12.4235905
  40.9105867  85.3636056  12.6299794  41.4799724  84.5743641  11.4703349
  37.3212123  88.4540231   4.4604339  38.2755376  88.4224173   4.3934271
  37.1224646  87.9930855   5.2754565  37.9111505  87.0241347   7.0275137
  38.7304394  87.5185426   7.0509974  38.1848313  86.1073315   6.9992704
  33.1646419  81.3579481   7.7267334  33.8105283  80.8478435   8.2154559
  32.9563570  82.0948163   8.3010759  45.6899811  88.4260328  13.2259474
  46.5590971  88.6000981  12.8646109  45.2106563  89.2454745  13.1035204
  45.5002149  72.2162302  -2.2662833  44.7334545  71.6620789  -2.1206151
  45.9112854  72.2884171  -1.4048681  37.5043910  78.5047098  11.8242348
  38.3675372  78.1483903  12.0345673  36.9309321  78.1660993  12.5117752
  50.0625411  91.9127815  12.8172320  49.6692357  91.3594013  13.4919964
  50.8791551  92.2238393  13.2078837  48.0073399  95.7029504   9.7576983
  48.6345437  95.3206581  10.3714507  47.1501318  95.4843706  10.1232675
  52.3701270  96.4630475  13.6070844  52.2697997  97.4124832  13.5382935
  52.1522812  96.1348714  12.7346914  48.3437665  93.8339016  11.8242348
  49.2069126  93.4775820  12.0345673  47.7703075  93.4952910  12.5117752
  36.7280000  52.4570766  -1.9123975  37.2719904  53.0700725  -2.4069020
  36.1466844  53.0150345  -1.3956962  40.0508794  51.9166821  -2.5762654
  39.2604338  51.8990959  -3.1158155  39.8142148  52.4555114  -1.8213617
  34.8506058  50.1030533  -0.0495219  35.7197218  50.2771186  -0.4108584
  34.3712810  50.9224950  -0.1719490  43.8008023  62.9181439  -4.7502214
  43.7896664  62.5234237  -5.6221710  43.9628663  62.1847512  -4.1568443
  40.5215284  65.7018551  -5.8023030  40.2305150  66.6064182  -5.9176364
  41.1572269  65.7435078  -5.0878960  41.4471491  63.0795399  -9.2121670
  42.0435063  62.8551422  -9.9264707  41.5046463  62.3380145  -8.6096222
  48.9873650  53.1867420  -8.2069149  48.6556975  54.0562831  -8.4307934
  48.3919263  52.8703704  -7.5275119  42.9543179  59.3252152  -3.1840902
  42.1776513  59.8846072  -3.1938037  43.5933742  59.8108935  -2.6626032
  50.7463960  56.1078945  -9.3497925  50.1038340  56.4011478  -9.9958130
  50.2418888  55.9931865  -8.5444728  41.2089551  62.1337605  -3.6222935
  41.9504236  62.6722649  -3.8988111  40.5026537  62.7603894  -3.4651383
  46.6844891  64.2766746  -5.0250773  47.0928247  63.8349156  -5.7696141
  45.9622152  63.7019373  -4.7716580  43.0375961  59.2139353  -7.6517216
  43.8837156  59.6378766  -7.5082567  42.9774599  58.5572977  -6.9578653
  46.1875406  56.8743721  -5.9936043  45.9436338  57.6285782  -6.5301767
  46.4635337  57.2529069  -5.1588796  48.1413869  63.4182333  -7.3158777
  48.3530764  64.0614093  -7.9924396  48.0943617  62.5844650  -7.7836847
  39.9450915  59.2877254  -2.8207625  39.3149576  59.9693535  -2.5872228
  39.8387003  59.1760335  -3.7654486  43.0216300  65.8438332  -6.9875709
  43.0860733  66.3058739  -6.1517537  42.3127224  65.2135697  -6.8593399
  39.2231658  53.5898020  -0.4582374  38.8298603  53.0364218   0.2165271
  40.0397798  53.9008598  -0.0675856  42.1399619  55.0055899  -2.8662117
  42.8809332  55.6063052  -2.9457655  42.3717542  54.2633536  -3.4244075
  37.2840957  60.1912266  -4.5883887  37.1694472  59.2897523  -4.2876788
  36.4285474  60.4375963  -4.9399071  44.3632794  68.1330006  -2.9896387
  43.9196649  67.3466385  -3.3075482  45.0250008  68.3209157  -3.6552496
  46.4614033  68.4132806  -4.9614986  46.4432508  69.2341687  -5.4534716
  47.3833953  68.2886881  -4.7364844  42.9187087  65.9276936  -4.1191477
  43.4515424  65.1665224  -4.3492169  42.3901168  65.6350587  -3.3767323
  45.6932099  59.6703238  -6.3898634  46.0481486  59.8974711  -5.5304168
  46.3404230  60.0021615  -7.0121379  43.9651076  54.7879792  -5.6414821
  43.3178991  55.4869742  -5.7350344  44.7352091  55.2215936  -5.2738572
  47.3729873  65.0528644  -2.5664267  47.2215380  64.8239196  -3.4834184
  47.3634553  66.0099246  -2.5532922  44.1415210  62.6260557  -7.5818001
  45.0707270  62.7771717  -7.7549034  43.7206240  62.7144578  -8.4369354
  38.4653001  61.4360454  -6.8978044  38.3272799  60.7040693  -6.2966505
  39.3757924  61.3469354  -7.1793857  41.0935301  61.1480414  -7.4094365
  41.8034920  60.5073606  -7.4507746  41.0504610  61.3993308  -6.4868184
  49.0822080  68.0847767  -4.4887785  49.0234626  67.4006987  -5.1557202
  49.4841598  68.8266757  -4.9407160  39.8064235  58.1345631  -5.5898725
  39.2701592  57.6836370  -4.9377129  39.2180944  58.2691540  -6.3328261
  49.0839487  66.0487351  -6.2573806  48.1966266  65.7113273  -6.1347407
  49.6538038  65.3170382  -6.0205040  40.1251238  68.3570081  -6.3148833
  40.8260697  68.9906564  -6.1619439  39.6546353  68.6984812  -7.0753194
  47.9252524  60.9114688  -8.4896283  47.2723974  61.1590596  -9.1443830
  48.3032904  60.0978826  -8.8233805  43.9740097  61.6534499  -2.0030246
  43.2980734  61.5528628  -1.3327870  44.7967731  61.4973713  -1.5394248
  35.7218956  67.8906436  -9.3817730  36.3072393  67.1450124  -9.2489826
  35.5243794  68.2010392  -8.4981067  37.1679645  57.3799709  -3.5177711
  37.7951684  56.9976786  -2.9040186  36.3107564  57.1613911  -3.1522018
  47.5673754  67.7862684  -1.9123975  48.1113658  68.3992642  -2.4069020
  46.9860599  68.3442263  -1.3956962  40.2765749  54.5986561  -5.3291156
  40.8000151  54.8448858  -4.5664846  40.0578082  55.4306596  -5.7488018
  34.9185028  60.9843930  -5.5504365  34.1766764  61.1326565  -4.9639735
  34.5977773  61.2452196  -6.4137616  42.8628691  70.5259908  -5.7523975
  43.1715817  70.2809055  -4.8801276  43.6604173  70.7306547  -6.2405105
  40.4047703  56.7017615  -1.8563791  40.4535858  57.5779738  -2.2386021
  40.9470217  56.1595008  -2.4292148  50.8902548  67.2458738  -2.5762654
  50.0998092  67.2282877  -3.1158155  50.6535903  67.7847032  -1.8213617
  51.0100423  64.0951205  -5.2629925  51.0598428  63.9301212  -4.3214403
  50.9014347  63.2278464  -5.6532045  48.3004186  60.0782133  -3.9470619
  49.2014049  59.9388597  -4.2386621  48.3752160  60.2436587  -3.0072441
  42.6346991  57.4548987  -5.1017432  41.7650301  57.7482553  -5.3734844
  42.8706472  58.0389432  -4.3810169  52.5118620  66.5148146  -5.0187904
  52.2203429  66.8778127  -4.1824443  51.8990752  65.8015154  -5.1974572
  50.7605809  61.6380761  -6.5507846  51.2359930  61.8308407  -7.3588995
  49.8371374  61.6939947  -6.7964462  45.3386025  53.6728604  -7.5852012
  45.8567969  54.4089631  -7.9105523  44.9841158  53.9792598  -6.7505253
  49.4607478  58.5146521  -8.3179540  50.4124900  58.6144618  -8.2967316
  49.2910928  57.7224789  -7.8081456  47.4821857  55.6002104  -8.1320139
  46.8871789  55.8807117  -8.8273651  47.1971554  56.0896005  -7.3603398
  52.0890044  58.5263684  -9.1578958  51.5729092  57.7422141  -9.3449029
  52.9729992  58.1982401  -8.9932438  43.6617579  64.6566440  -1.7009380
  44.5820588  64.8345039  -1.5069333  43.6267162  63.7122485  -1.8529680
  36.6579651  62.5667474  -9.0586599  36.8765661  63.4984582  -9.0398565
  37.0705425  62.2075449  -8.2731795  41.5307517  58.1400680   0.3316150
  41.4304243  59.0895037   0.2628242  41.3129059  57.8118919  -0.5407779
  41.3938787  61.5697819  -0.8518788  40.9105868  62.3698179  -0.6454899
  41.4799726  61.5805764  -1.8051344  37.3212124  65.4602354  -8.8150354
  38.2755378  65.4286296  -8.8820423  37.1224648  64.9992977  -8.0000128
  37.9111506  64.0303470  -6.2479556  38.7304395  64.5247548  -6.2244719
  38.1848314  63.1135438  -6.2761989  45.6899813  65.4322451  -0.0495219
  46.5590972  65.6063103  -0.4108584  45.2106564  66.2516868  -0.1719490
  37.5043911  55.5109221  -1.4512345  38.3675373  55.1546025  -1.2409021
  36.9309322  55.1723115  -0.7636941  50.0625412  68.9189937  -0.4582374
  49.6692358  68.3656136   0.2165271  50.8791553  69.2300516  -0.0675856
  48.0073400  72.7091627  -3.5177711  48.6345439  72.3268704  -2.9040186
  47.1501319  72.4905829  -3.1522018  52.3701271  73.4692598   0.3316150
  52.2697998  74.4186955   0.2628242  52.1522813  73.1410837  -0.5407779
  48.3437666  70.8401138  -1.4512345  49.2069128  70.4837943  -1.2409021
  47.7703077  70.5015033  -0.7636941
 108.7385926 108.7385926 108.7385926 109.4712190 109.4712190 109.4712190
