default_name
 48083
  25.9192058  38.5324184  22.8337115  25.3510585  37.7243701  23.0443478
  26.1851265  38.4973573  21.8599779  25.4639831  39.3546450  23.2035970
  27.1937607  38.4127053  23.5941716  28.0472074  38.3936862  22.9164060
  27.3450195  39.6096291  24.5383459  27.3673089  40.5312609  23.9567985
  26.5023646  39.6368463  25.2292091  28.6309441  39.4759170  25.3184865
  28.6091997  38.5546811  25.9006828  29.4741439  39.4490978  24.6282734
  28.7817102  40.6689460  26.2595917  28.2939100  40.5556998  27.4158043
  29.3832397  41.6821518  25.8132999  27.2036844  37.0726123  24.3519482
  26.1802034  36.3629803  24.3156446  28.3006597  36.7621282  25.0493455
  29.0638562  37.4236607  25.0470755  28.4801961  35.4828616  25.7811854
  28.0099583  34.6660712  25.2336188  29.9662410  35.1802691  25.9253978
  30.4230809  36.0010562  26.4783040  30.0662581  34.2576521  26.4971271
  30.6645909  35.0228444  24.5830734  30.3663743  35.8701482  23.9656238
  31.7473000  35.0287996  24.7088016  30.2688013  33.7515136  23.8792371
  29.8021380  32.7976698  24.4887659  30.4965861  33.7123751  22.5883888
  30.2528495  32.8865313  22.0604912  30.9146955  34.5082578  22.1281100
  27.8032527  35.5500197  27.1511629  27.8898319  36.5484116  27.8524985
  27.2536676  34.4184115  27.6483672  27.2441920  33.1014146  26.9860173
  28.2255141  32.8953214  26.5586619  26.4944393  33.0907586  26.1949064
  26.8948640  32.1590405  28.1294673  27.8032216  31.8131077  28.6227382
  26.3373702  31.3014230  27.7529114  26.0435796  32.9885619  29.0605436
  26.1274768  32.5852015  30.0696822  24.9913585  33.0636702  28.7861551
  26.7003377  34.3707384  28.9960846  25.9904248  35.1903737  29.1070799
  27.7994175  34.4982447  30.0620427  28.9448527  34.2763550  29.7820370
  27.3961768  34.7821988  31.2753444  26.4483375  35.1093399  31.3965003
  28.2806418  34.7150351  32.4761140  29.0899986  35.4385558  32.3783463
  27.4955828  35.0326088  33.7362506  26.6165075  34.3882118  33.7274064
  28.1029763  34.8056897  34.6124247  27.0541676  36.4955770  33.7875425
  27.6044833  37.3285394  32.9740849  26.2168685  36.7925674  34.6362714
  28.9363232  33.3363225  32.5644001  28.3549068  32.3171157  32.1186183
  30.1454543  33.2860934  33.0800629  30.6342012  34.1349458  33.3263867
  30.8686291  31.9940511  33.2085844  30.9375273  31.4347126  32.2755824
  32.2717202  32.2427933  33.7573037  32.1999488  32.8979999  34.6254359
  32.9313039  30.9305284  34.1647754  33.0038504  30.2749317  33.2970020
  33.9300253  31.1304441  34.5529634  32.3324011  30.4464208  34.9361732
  33.1152633  33.0325602  32.7557987  33.3912315  32.3428792  31.9581256
  32.4769812  33.8181943  32.3514790  34.3488097  33.6426568  33.3346273
  34.9878486  32.8575409  33.7387586  34.8868732  34.1836385  32.5562151
  34.0735980  34.3328547  34.1321141  30.0726536  31.0045703  34.0574570
  30.0611077  29.8090951  33.7138659  29.4497160  31.4775784  35.1257556
  29.5221031  32.4727740  35.2821053  28.6329543  30.6723575  36.0732243
  28.7160652  29.6156322  35.8192100  29.1094814  30.8674556  37.5088328
  29.0301460  31.9453503  37.6500706  28.4077243  30.3619859  38.1722613
  30.5186743  30.4193951  37.8299232  31.2301870  31.0161991  37.2592434
  30.7778289  30.6025464  39.3037480  30.0669501  30.0056438  39.8751126
  31.7925508  30.2803982  39.5375440  30.6616205  31.6542053  39.5656823
  30.7576342  28.9993204  37.4119353  30.6047775  28.9058738  36.3367599
  31.7803038  28.7144565  37.6591210  30.0617729  28.3438810  37.9356481
  27.1894766  31.1649746  35.9856659  26.9800521  32.4104524  35.9136360
  26.2413710  30.2594071  36.0591521  26.4789305  29.2890372  35.9106688
  24.8150516  30.6101926  36.2698260  24.5924139  31.5237935  35.7185865
  23.9092534  29.5584831  35.8154366  24.2321295  28.6136393  36.2526100
  22.9042578  29.7952378  36.1647660  23.9040006  29.4467218  34.3915153
  23.3002284  28.7485870  34.1275707  24.5848471  30.9299769  37.7334488
  24.8865295  30.1360228  38.5978524  23.9835546  32.0687123  37.9840680
  23.8525262  32.7616039  37.2609967  23.5261916  32.3858071  39.3436485
  24.3414030  32.3814946  40.0671890  22.8505260  33.7611395  39.3753008
  22.2254687  33.8785157  38.4900745  21.9815588  33.8788738  40.6335335
  22.6060375  33.7620564  41.5192429  21.5019651  34.8574756  40.6542436
  21.2182035  33.1008818  40.6226364  23.8840427  34.8474521  39.3140695
  24.4571537  34.7528396  38.3917386  23.3918098  35.8197016  39.3372499
  24.5549281  34.7599758  40.1686815  22.5722781  31.2620152  39.7549606
  21.6679995  30.8688080  38.9779411  22.7444129  30.8023805  40.9943333
  23.4788983  31.2113994  41.5540959  21.9351453  29.7473991  41.5831635
  21.6100585  30.0819889  42.5682866  21.0640123  29.5953334  40.9459017
  22.6683864  28.4456715  41.7268464  22.1717396  27.5452337  42.4777922
  23.7079821  28.2335294  40.9430470  24.0076329  28.8903355  40.2367082
  24.3999369  26.9291070  41.0262139  23.7263925  26.0854237  41.1766656
  25.2830362  26.6633745  39.8142395  25.7628568  25.6936191  39.9463266
  24.4787887  26.6607012  38.5143442  23.9990168  27.6303534  38.3813251
  25.1458350  26.4676449  37.6741780  23.7172033  25.8821977  38.5592790
  26.4669731  27.6141462  39.7713499  26.1347294  28.5206069  39.2653422
  26.7291702  27.8497409  40.8027797  27.6930999  27.0475672  39.0500460
  27.4317835  26.8121498  38.0183521  28.4953448  27.7853774  39.0618106
  28.0262231  26.1412819  39.5557887  25.1888558  26.8725139  42.3460473
  25.6129434  27.9155866  42.9325062  25.5221442  25.6425101  42.6861953
  25.1853288  24.8802456  42.1155751  26.3343871  25.3213564  43.8708078
  26.4686499  26.1765130  44.5332125  25.5265118  24.2518245  44.6103542
  24.5099680  24.6306781  44.5044865  25.6229627  23.3139293  44.0634083
  25.8253128  24.0152139  46.0706837  26.8293829  23.5963493  46.1377396
  25.7470629  25.2752877  46.9086610  24.7430832  25.6945043  46.8424703
  25.9724292  25.0357408  47.9478569  26.4693084  26.0033206  46.5392967
  24.8611457  22.9250011  46.5817521  25.0139601  22.0081568  46.0124158
  25.0551496  22.7333403  47.6370861  23.8320440  23.2620273  46.4574063
  27.6923651  24.8399825  43.3676239  27.7220977  23.9326083  42.5210975
  28.7678145  25.4605940  43.8090160  28.6359649  26.2830981  44.3801571
  30.1600479  25.0609236  43.4561155  30.1955670  24.4365462  42.5633723
  31.0691625  26.2752679  43.2407609  31.0357092  26.8839021  44.1443894
  32.5071806  25.8825005  42.9481440  32.5414946  25.2741898  42.0443290
  33.1075521  26.7807524  42.8039282  32.9057584  25.3103407  43.7859211
  30.5362482  27.1672948  42.1334036  29.5398401  27.5207177  42.3986679
  31.2010615  28.0210654  42.0022601  30.4847710  26.6013047  41.2032927
  30.6475890  24.1578777  44.5872184  30.6163687  24.5879221  45.7416262
  31.0098675  22.9224878  44.2507783  30.7997018  22.6495656  43.3013347
  31.5927910  21.9026982  45.1658162  31.7114705  20.9563328  44.6381733
  32.9585344  22.3565918  45.6643355  33.4349313  22.9009447  44.8489674
  32.7877055  23.0334758  46.5014410  33.8649828  21.2155526  46.1108788
  33.2864478  20.5680417  46.7697624  34.1613848  20.6576320  45.2226375
  35.0932461  21.6966548  46.8333510  35.7155185  22.1934239  46.0889745
  34.7540297  22.4266916  47.5682510  35.9038847  20.6143894  47.5309065
  35.2302855  19.8564722  47.9308141  36.5855752  20.1532376  46.8162484
  36.6829085  21.2162973  48.6384488  36.0514008  21.6432911  49.3009999
  37.2208176  20.4975037  49.1011470  37.3074509  21.9183284  48.2680461
  30.6498860  21.5701865  46.3320722  31.1420117  21.4060470  47.4940019
  29.3328976  21.5972552  46.0803305  29.0390311  21.8473666  45.1469570
  28.2940476  21.3350981  47.0937116  27.3059295  21.5111669  46.6685980
  28.3724888  19.8760008  47.5650161  29.3629601  19.7073968  47.9876727
  27.6181443  19.7265953  48.3375071  28.1346710  18.8999726  46.4324523
  27.1880808  19.1439995  45.9502503  28.9546527  19.0936308  45.7409136
  28.1393180  17.4216767  46.8273707  27.1458635  16.7312375  46.5279396
  29.1699425  16.9425174  47.3857454  28.4431108  22.2905136  48.2821928
  28.0064400  21.9390991  49.3698317  29.0177387  23.4840740  48.0834408
  29.3099174  23.7572076  47.1560094  29.2921413  24.4118546  49.2097016
  28.6880308  24.1517084  50.0788815  30.7547305  24.2994584  49.5857679
  30.9395051  23.2584150  49.8506949  31.3352038  24.5569096  48.6998391
  31.1689160  25.1977976  50.7417601  31.1918817  26.2317613  50.3975325
  30.4405187  25.0994687  51.5466643  32.5303240  24.8079413  51.2477772
  32.4757070  23.8523244  51.7692293  33.2295427  24.7276444  50.4154642
  33.0145790  25.8020888  52.1602288  32.3673815  26.5307924  52.4252304
  34.2306699  25.8198472  52.6777001  35.0393408  24.7814639  52.4580427
  34.7155384  24.0014749  51.9040849  35.9715485  24.7802204  52.8467418
  34.6334433  26.8510320  53.3850200  34.0106109  27.6322225  53.5330783
  35.5640569  26.8578280  53.7774622  28.9538375  25.8748607  48.9125038
  28.4048387  26.5307621  49.8099133  29.4257399  26.4157746  47.7945712
  29.9437026  25.8304848  47.1548448  29.3184595  27.8611512  47.4933316
  29.0475403  28.4117865  48.3941660  30.6475729  28.3842699  46.9874013
  30.9773378  27.7982113  46.1295611  30.6075620  29.4383752  46.7128816
  31.7126391  28.2536118  48.0299441  31.8511383  28.9676977  49.1835334
  31.0946397  29.7254886  49.3874024  32.9647665  28.5538422  49.8632664
  33.2821782  28.9198511  50.7494869  33.5844051  27.5738920  49.1425837
  34.7519314  26.8626178  49.3913433  35.3193144  27.0906567  50.2936589
  35.1172323  25.9122027  48.4777539  36.0219186  25.3348705  48.6683588
  34.3850738  25.6561838  47.3247196  34.6718270  24.8847965  46.6099932
  33.2549301  26.3933960  47.0601247  32.7415325  26.2128477  46.1157064
  32.8298054  27.3495755  47.9872373  28.1872793  28.1282837  46.5235602
  28.2684422  27.6956736  45.3513716  27.1157710  28.7362905  47.0249509
  27.0898335  28.9632225  48.0087844  25.9420719  29.0414555  46.2134345
  25.8661007  28.3038080  45.4145580  24.6503054  29.0174968  47.0232012
  24.5606132  28.0222334  47.4585234  24.7550696  29.7539040  47.8199628
  23.4144459  29.3252856  46.2134745  23.5543835  30.3012340  45.7486702
  23.3248311  28.5639013  45.4386422  22.1516020  29.3421949  47.0537581
  21.9864658  28.3479720  47.4689083  22.2735563  30.0588420  47.8659426
  20.9675855  29.7366872  46.2099899  21.1519725  30.7239682  45.7864593
  20.8539411  29.0116282  45.4040907  19.7368924  29.7710128  47.0155171
  19.8418300  30.4431214  47.7620812  18.9584290  30.0373158  46.4297035
  19.5656223  28.8561641  47.4077128  26.1493097  30.4088202  45.5703667
  26.2891991  31.3827720  46.2543330  26.1563868  30.4365382  44.2472796
  25.9959989  29.5759767  43.7434851  26.4112339  31.6659785  43.4697195
  27.2351288  32.2356695  43.8995431  26.7368325  31.3649723  42.0024435
  25.8814858  30.8644582  41.5486077  27.0385943  32.6511416  41.2368338
  27.8941745  33.1520145  41.6898348  27.2666174  32.4113776  40.1982679
  26.1707124  33.3094876  41.2750835  27.9084226  30.4098439  41.8943941
  27.6631450  29.4747229  42.3978716  28.1204520  30.2114776  40.8437781
  28.7855506  30.8553659  42.3637100  25.1592601  32.5259070  43.5638600
  24.0770276  32.0422443  43.1431567  25.3190990  33.7768370  44.0256032
  26.2467375  34.0835694  44.2815354  24.1832060  34.7122543  44.2396300
  23.2348640  34.1778084  44.1838237  24.3060148  35.3453954  45.6245951
  25.2625386  35.8635974  45.5565644  23.5110027  36.0718235  45.7929930
  24.3449810  34.3618943  46.7794571  25.1589418  33.6548714  46.6191846
  24.5670669  35.1041206  48.0984108  23.7532046  35.8110446  48.2596112
  24.5930937  34.3874748  48.9192897  25.5133810  35.6434890  48.0575235
  23.1161808  33.4900988  46.8117613  23.0467423  32.9245863  45.8825286
  23.1819155  32.7996502  47.6526304  22.2298342  34.1145970  46.9235228
  24.0967536  35.8022787  43.1650851  22.9695282  36.1644550  42.7923397
  25.2134156  36.4346729  42.8749632  26.0568369  36.2527730  43.3999891
  25.2191382  37.5381256  41.9129548  24.7353511  37.1945072  40.9986378
  24.4967506  38.7859975  42.4068233  24.5367725  39.5059246  41.5893869
  23.4617875  38.4913817  42.5804694  25.0494068  39.4066496  43.6416108
  24.9113695  38.7800939  44.5227887  26.1031712  39.6674681  43.5433437
  24.2248731  40.6761069  43.7884315  24.4454711  41.3505376  42.9610387
  23.1644777  40.4240036  43.7781827  24.5236797  41.3409638  45.0107162
  24.1032744  40.9658775  45.8489697  25.2777310  42.4170817  45.1126908
  25.9401855  42.8721329  44.0629749  25.8680593  42.3921792  43.1772310
  26.5153419  43.6976241  44.1516266  25.3865648  43.0133967  46.2875166
  24.8947204  42.6407016  47.0870711  25.9610533  43.8389209  46.3800992
  26.6118488  37.8246820  41.4438709  27.5609183  37.6855992  42.1884224
  26.6803434  38.2143052  40.1951779  25.8652609  38.1198248  39.6062693
  27.9146357  38.7290679  39.5958231  28.7564887  38.1023452  39.8901043
  27.8131306  38.7260351  38.0711168  27.5274966  37.7236788  37.7520648
  27.0367120  39.4340613  37.7813355  29.1237475  39.1134424  37.4089197
  29.3104269  40.1696818  37.6028529  29.9231311  38.5170124  37.8486459
  29.0801194  38.8739948  35.9076711  29.2070906  37.8072456  35.7232168
  28.1072773  39.1935237  35.5340684  30.1730227  39.6435480  35.1930213
  30.4687845  40.4890849  35.8140630  31.0280848  38.9833076  35.0479334
  29.7019924  40.1382814  33.8767879  28.9099423  40.7504358  34.0110389
  30.4469558  40.6464273  33.4219063  29.4282867  39.3549157  33.3010080
  28.1427573  40.1261558  40.1575729  27.2478894  40.9751140  40.0291108
  29.3335500  40.3790398  40.6736537  30.0240154  39.6475300  40.7644846
  29.6528863  41.7205071  41.2236044  28.8647852  42.4611572  41.0878352
  30.0248401  41.6370585  42.7081433  30.2797804  42.6302726  43.0777803
  28.8516899  41.0985596  43.4845694  28.5964384  40.1051080  43.1157859
  29.1118926  41.0375094  44.5412946  27.9966361  41.7628466  43.3592499
  31.3233942  40.8702619  42.9817224  31.1639098  39.8331420  42.6866838
  32.1039590  41.3084679  42.3597951  31.7537930  40.9226606  44.4559324
  30.9738756  40.4841778  45.0784769  32.6793106  40.3615227  44.5849310
  31.9139227  41.9595046  44.7515889  30.7570483  42.3927365  40.4146397
  30.9899472  43.5965913  40.6679334  31.4191610  41.6663439  39.5223513
  31.2474318  40.6798149  39.3905594  32.4502337  42.3171623  38.6837296
  32.0530290  43.2637138  38.3171672  33.3296061  42.5067446  39.2992473
  32.8488208  41.4664993  37.5099431  32.6719669  40.2434397  37.5461906
  33.4172637  42.1134692  36.4935442  33.4233247  43.1222176  36.5434356
  34.0255319  41.4721537  35.3250934  34.1190962  40.3970553  35.4784180
  33.4348606  41.6607429  34.4286332  35.3988734  42.0622041  35.1402457
  35.4872550  43.1085844  34.4994603  36.3574271  41.5477889  35.9112676
  36.0874847  40.7935998  36.5264335  37.7619873  41.9954103  35.9288608
  37.7863222  43.0658403  36.1330342  38.2897686  41.4630365  36.7201410
  38.4580337  41.7285041  34.6033441  37.7786283  41.3790477  33.6142139
  39.7814398  41.8974829  34.5921919  40.2085410  42.1877995  35.4601782
  40.6495114  41.6935730  33.4213775  40.4210287  42.4543201  32.6749469
  41.6899909  41.7904290  33.7314110  40.4428285  40.3205527  32.8068155
  40.2474539  40.2428541  31.5854958  40.5223555  39.2500351  33.5971271
  40.5227627  39.3433441  34.6028073  40.6811451  37.8935962  33.0163135
  40.4546627  37.9175474  31.9503720  42.1229077  37.4012504  33.2003601
  42.3208357  37.4878900  34.2687314  42.2949453  36.3731650  32.8817014
  43.1541066  38.2473559  32.5011154  43.7326622  39.3231514  33.1545881
  43.4622998  39.5269611  34.1906700  44.6470981  40.1368348  32.5039766
  45.1064660  40.9687398  33.0378453  44.9731523  39.8994337  31.1989849
  45.7333669  40.5052638  30.7058889  44.3386993  38.8914038  30.5056083
  44.5304891  38.7570723  29.4410559  43.4536368  38.0456007  31.1646778
  42.9904451  37.2169886  30.6289958  39.6841187  36.9248710  33.6540469
  39.9152529  35.6685788  33.6880014  38.5880375  37.4557135  34.1671777
  38.4340535  38.4534808  34.1963088  37.5436603  36.5693198  34.7208848
  37.1823124  35.9108595  33.9309754  37.9755178  35.9707420  35.5229466
  36.3836140  37.3601027  35.2691368  36.2154927  38.4940759  34.9026263
  35.5806266  36.7150657  36.0964164  35.7952591  35.7481604  36.2942204
  34.3927384  37.3042383  36.7191742  34.3738873  38.3819272  36.5569079
  33.1562271  36.7025662  36.1021196  33.2294025  35.6182494  36.1857949
  32.2917322  37.0524793  36.6663088  32.9953290  37.0913470  34.6277183
  32.7627219  38.1315638  34.8556304  33.8914520  37.0471691  34.0087586
  31.8465322  36.4730366  33.8883063  31.2546193  35.5257404  34.4080149
  31.7492480  36.7587339  32.6735953  34.4313531  37.0387963  38.2149130
  35.0735590  36.0847874  38.6373400  33.7923586  37.9033008  38.9790427
  33.3971207  38.7314730  38.5571220  33.7233138  37.7652710  40.4398734
  34.0050850  36.7780118  40.8059656  34.5710564  38.8273265  41.1368272
  35.6125299  38.6405471  40.8750129  34.2069961  40.2105310  40.7548986
  33.1657188  40.3982192  41.0168439  34.8473072  40.9150513  41.2857033
  34.3395309  40.3381898  39.6805445  34.5718132  38.6528114  42.6555678
  33.6124810  39.0095959  43.0303842  34.6704352  37.5879733  42.8665016
  35.6812065  39.4005026  43.3313795  35.5829795  40.4655405  43.1212710
  35.6276389  39.2365656  44.4076483  36.6409342  39.0439192  42.9573863
  32.2644564  37.7986915  40.8702350  31.4637812  38.6020278  40.2845558
  31.9400484  36.9707219  41.8353494  32.6944947  36.4738691  42.2870656
  30.5689232  36.7329690  42.3065038  29.9056769  37.4817898  41.8735249
  30.0695275  35.3515699  41.9069860  30.7649422  34.6279793  42.3323261
  29.0899477  35.2281429  42.3688185  29.9566650  35.1265200  40.4278577
  31.0741376  34.8578354  39.6413835  32.0509644  34.7853025  40.1195548
  30.9582315  34.6829267  38.2668811  31.8456480  34.4888245  37.6644543
  29.7263141  34.8111156  37.6590389  29.6164910  34.6528599  36.2864530
  30.4556812  34.4577473  35.8630259  28.5968544  35.0415645  38.4333335
  27.6141628  35.1152515  37.9675139  28.7242089  35.1774580  39.8005730
  27.8389040  35.3297918  40.4179301  30.5392747  36.8214671  43.8341108
  31.5417843  36.5631072  44.5031299  29.3983439  37.2470087  44.3391022
  28.7521707  37.7064197  43.7134018  29.0014575  37.0659381  45.7357738
  29.8646715  37.1683489  46.3934006  27.9783678  38.1301589  46.1067785
  28.4140340  39.1073395  45.8984223  27.1416027  37.9543740  45.4307432
  27.4871093  38.0920025  47.5374271  27.8001205  37.1443100  48.2339670
  26.8054155  39.0819130  47.9516152  28.3662585  35.6983087  45.8527266
  27.4973064  35.3369037  44.9971789  28.9029395  34.8654449  46.7231060
  29.7294391  35.1572306  47.2249613  28.3954294  33.5137881  46.9502967
  27.4744563  33.3775607  46.3834193  29.3897226  32.4653506  46.5142408
  30.3141593  32.5831127  47.0796157  28.9763914  31.4734894  46.6971860
  29.5977072  32.5812024  45.4505585  28.0448772  33.3509066  48.4243200
  28.7127949  33.9481810  49.2422799  27.1252369  32.4396048  48.7254855
  26.5406335  32.0566825  47.9963018  26.9031142  31.9751675  50.1293663
  27.2218102  32.7479722  50.8288697  25.4185451  31.6806957  50.3681279
  25.0628188  31.3586710  49.3894256  25.3179847  30.8602800  51.0786951
  24.5865186  32.8742647  50.8459498  24.6179343  33.6630201  50.0942991
  23.1560361  32.4398065  51.0597626  23.1237640  31.6513340  51.8116725
  22.5645562  33.2898720  51.3998227  22.7458666  32.0641954  50.1223312
  25.1217784  33.5451288  52.1024657  26.1308087  33.9131852  51.9167464
  24.4751272  34.3798899  52.3728679  25.1433687  32.8235556  52.9191450
  27.7464292  30.7079662  50.3739881  27.6245099  29.7328461  49.6509615
  28.6278108  30.7655840  51.3606991  28.7986192  31.6566110  51.8045400
  29.4011226  29.5887158  51.8257874  29.6438877  28.9504644  50.9761996
  30.6851517  30.0196463  52.4868351  31.2154512  30.7457636  51.8706896
  30.3211235  30.5079322  53.3908044  31.6213962  28.9020271  52.8627973
  31.1159378  27.8108054  53.1554661  32.8818018  29.1296272  52.7410311
  28.5422549  28.7900855  52.8047624  28.2617096  29.3072726  53.9296716
  28.0402315  27.6594379  52.3855269  28.2208354  27.3173059  51.4525600
  27.0537159  26.9303677  53.2247149  26.4260745  27.6443467  53.7580061
  26.1589004  26.0447845  52.3595064  26.7921765  25.5122412  51.6499585
  25.6601120  25.3268267  53.0105415  25.0659662  26.8897640  51.5652884
  25.5500847  27.1945251  50.6374679  24.2612879  26.1893666  51.3415957
  24.3466227  28.4078611  52.4157590  23.5274486  27.6225139  53.8269573
  24.2657529  27.0887873  54.4254068  23.0468439  28.3854004  54.4394310
  22.7759717  26.9199667  53.4666644  27.7561830  26.1757249  54.3616773
  27.0373615  25.7166526  55.3017365  29.0712217  26.0901407  54.3766910
  29.6196827  26.4059577  53.5895763  29.7855929  25.4901815  55.5416407
  29.2439425  24.6185003  55.9089089  31.1906519  25.0484383  55.1097504
  31.0302853  24.3162996  54.3183247  31.7285967  25.9064833  54.7066694
  32.0074998  24.4172493  56.2254944  32.0316762  25.0934321  57.0800663
  31.3933453  23.1198101  56.6352294  31.3692432  22.4428934  55.7812378
  31.9845575  22.6739122  57.4350694  30.3771543  23.2939165  56.9889854
  33.4410111  24.2128310  55.7924270  33.8838802  25.1748230  55.5344778
  34.0061609  23.7599998  56.6070748  33.4682999  23.5560360  54.9229589
  29.8696638  26.5122258  56.6872198  29.4580407  26.1879490  57.8216686
  30.2685032  27.7349347  56.3976339  30.5204435  27.9349159  55.4402244
  30.4859182  28.7849715  57.4126076  30.5671878  28.3687182  58.4167129
  31.7377772  29.5843279  57.1173512  31.8180332  30.3879695  57.8493481
  32.9887742  28.7027115  57.1881552  32.9094502  27.8990582  56.4560700
  33.8710778  29.3049909  56.9715932  33.0770856  28.2759623  58.1872482
  31.5516228  30.1735922  55.8240009  32.3258096  30.6927826  55.5944873
  29.2436189  29.6692940  57.5505356  29.2371973  30.4672774  58.4982313
  28.3336158  29.5815596  56.6090330  28.5473859  29.0002810  55.8112129
  27.0656702  30.3617804  56.5943958  26.5078726  30.1705514  55.6776666
  26.2059491  29.9322232  57.7899196  26.8290068  30.0124415  58.6806853
  25.3778567  30.6373573  57.8616748  25.6647047  28.5332166  57.6814528
  24.9573931  28.4679605  56.8546802  26.4794046  27.8276620  57.5184841
  24.9517078  28.1939585  58.9890125  25.6650371  28.2215815  59.8127220
  24.1581357  28.9184697  59.1718409  24.3702374  26.8792277  58.9265942
  24.6785474  26.2857662  58.1697271  23.4474554  26.4031189  59.7797289
  23.0054141  27.1510760  60.7827313  23.3647129  28.0867355  60.9074138
  22.3117016  26.7812650  61.4168467  22.9972491  25.1805141  59.6277364
  23.3462277  24.6073258  58.8729058  22.3037109  24.8179997  60.2662399
  27.3952170  31.8437556  56.5688092  27.0346454  32.6160853  57.5032137
  28.1887504  32.2430962  55.5845202  28.5026743  31.5424252  54.9283104
  28.6225830  33.6264545  55.3830325  27.9301635  34.3024762  55.8846788
  30.0361951  33.8523594  55.9585244  30.6891208  33.1103584  55.4989358
  30.3488371  34.8504724  55.6517257  30.1239664  33.7376462  57.4604651
  29.3779023  34.4528209  57.8068959  29.8324508  32.7326967  57.7657427
  31.4701885  34.0788819  58.0669155  32.4081570  34.3420875  57.2884511
  31.5939913  33.9991224  59.3459102  28.6618777  33.9304183  53.8855025
  28.8652817  33.0134666  53.0817841  28.5827760  35.2051116  53.5174634
  28.3164366  35.9092471  54.1907804  28.8187382  35.6259976  52.1177960
  28.4145599  34.8619407  51.4537508  28.1636288  36.9670781  51.7765485
  28.4943410  37.6634806  52.5471017  28.4705188  37.3362505  50.7979626
  26.6711201  36.8896330  51.8113631  26.0240175  37.0349166  52.8544095
  26.1079319  36.5780536  50.6767960  25.1021897  36.5058249  50.6187845
  26.6802410  36.4104899  49.8616362  30.3204551  35.6920610  51.8959315
  31.0862469  36.1084110  52.8081095  30.7410490  35.2758633  50.7064736
  30.0381795  34.9395675  50.0638391  32.1558382  35.2259172  50.2856458
  32.7740985  35.8919022  50.8875738  32.7240675  33.7909243  50.3943932
  33.7620187  33.7942218  50.0616088  32.6544176  33.2984347  51.8320099
  31.6166524  33.2944194  52.1653691  33.0581351  32.2876362  51.8903094
  33.2384881  33.9598671  52.4719087  31.9982162  32.8176756  49.4911341
  32.0947575  33.1416685  48.4548859  32.4328089  31.8243035  49.6026727
  30.9435048  32.7850281  49.7642986  32.2543464  35.7423348  48.8631501
  31.2184589  35.8407180  48.1795919  33.4587313  36.0268973  48.4174426
  34.2174925  36.0212195  49.0840373  33.7657314  36.3577184  47.0071964
  32.8835259  36.7031146  46.4682028  34.8134070  37.4168835  46.9349861
  35.7064433  37.0818849  47.4625865  35.0606682  37.6135606  45.8917793
  34.4398324  38.3303348  47.3977471  34.2624807  35.0932291  46.3199003
  35.0305240  34.3285335  46.8961955  33.7784358  34.9140928  45.1138407
  33.1223946  35.5965051  44.7616721  34.1078075  33.7515764  44.2595738
  34.9018110  33.1590989  44.7141373  32.8651288  32.8683649  44.1048323
  32.7089912  32.4119612  45.0822861  32.0281167  33.5274195  43.8742724
  32.9596342  31.7765138  43.0433693  33.3435235  32.1961391  42.1135067
  33.8575159  30.7488510  43.5139419  33.4740255  30.3284023  44.4435961
  33.9342717  29.9614763  42.7641084  34.8432094  31.1795789  43.6899591
  31.5775523  31.1797778  42.7572978  30.9101285  31.9632809  42.3984558
  31.6667039  30.4031005  41.9977416  31.1713122  30.7478736  43.6719162
  34.5973292  34.3010009  42.9225359  33.7823720  34.8708176  42.1691975
  35.8851719  34.1141625  42.6258415  36.4909096  33.7189712  43.3308273
  36.4680677  34.4730088  41.3319575  35.8731293  35.2557263  40.8613187
  37.8928734  34.9883510  41.5176163  38.4342562  34.2382729  42.0941462
  38.3365820  35.0733920  40.5256532  37.9766207  36.3194773  42.2211375
  37.3811787  37.0347686  41.6537682  37.5477679  36.1986666  43.2159199
  39.3937137  36.8285822  42.3425031  39.9939949  36.0660009  42.8387201
  39.7854830  37.0035544  41.3405046  39.4529549  38.1054157  43.1332753
  38.7691203  38.8282929  42.6883938  39.1467807  37.8999781  44.1590199
  40.8278128  38.6594333  43.1299250  41.1115504  38.8502689  42.1795701
  40.8470755  39.5155781  43.6654107  41.4615582  37.9899268  43.5425108
  36.4661849  33.2350251  40.4358444  36.7815400  32.1705225  40.9257448
  36.2013177  33.4251396  39.1690390  35.9264443  34.3458116  38.8577400
  36.1915606  32.3157444  38.1813563  36.8707477  31.5163740  38.4776855
  34.7969326  31.7166675  37.9585788  34.8732115  30.9114195  37.2279240
  34.2306438  31.1709600  39.2539155  34.1536296  31.9757800  39.9849658
  33.2414219  30.7515848  39.0704353  34.8889755  30.3924331  39.6393981
  33.8666634  32.7478994  37.3474241  34.2675887  33.0767335  36.3886597
  32.8819905  32.3055030  37.1964127  33.7811959  33.6033125  38.0175469
  36.7935250  32.7821027  36.8669159  36.7530251  33.9710558  36.5583706
  37.2960528  31.8239623  36.1546821  37.3602557  30.9170327  36.5945184
  37.8083398  31.9720186  34.7803436  37.3745177  32.8575815  34.3159344
  39.3317607  32.1239610  34.7952844  39.6286328  32.4872283  33.8114129
  39.5729154  32.8751729  35.5473649  40.0759171  30.8430461  35.1054235
  39.4998749  30.5933309  35.9964445  39.9618003  30.0506262  34.3657294
  41.5523796  30.9845402  35.4765661  42.0274562  32.0826831  35.3751642
  42.2101515  29.9552966  35.6168044  37.3835748  30.7456301  33.9809320
  37.2681519  29.6410120  34.5540555  37.1434816  30.9052384  32.6928989
  37.0890220  31.8286341  32.2873452  36.8927797  29.7410574  31.8195059
  36.0849518  29.1451061  32.2441885  36.5071495  30.1514063  30.4389679
  35.4995302  30.5668813  30.4524978  37.2057263  30.9055672  30.0765705
  36.5414868  29.0295376  29.5840787  36.2928786  29.2962402  28.6960114
  38.1512599  28.8524166  31.7788843  39.2623530  29.4062601  31.6625116
  37.9792540  27.5421700  31.8017930  37.0503631  27.1928971  31.9895943
  39.0751493  26.5696416  31.6604639  39.8817331  26.8288945  32.3462552
  38.5853777  25.1868955  31.9950547  37.7834841  24.9094598  31.3108793
  39.4066243  24.4767321  31.8985033  38.2107060  25.1713445  33.0185187
  39.6641826  26.6593021  30.2452237  40.7335929  26.1044124  30.0669292
  38.9656450  27.2993377  29.2948833  38.1148383  27.7609901  29.5831615
  39.3474184  27.3553150  27.8533981  40.1065569  26.6005850  27.6479946
  38.1402862  27.0904913  26.9554804  37.2967936  27.6429438  27.3695042
  38.3774441  27.4789931  25.9650651  37.7789004  25.6228852  26.8487348
  37.0679096  25.5275771  26.0280587  38.6547732  25.0074709  26.6432741
  37.1260354  25.1246779  28.1115249  36.1758733  25.7206777  28.6315953
  37.6724588  24.0483880  28.6524004  37.2845650  23.6608531  29.5006083
  38.4750717  23.6190468  28.2147017  39.9435956  28.7123989  27.4442330
  40.4396909  28.7952808  26.2931435  39.9012993  29.7374003  28.2842772
  39.5104910  29.6242246  29.2087010  40.2955172  31.1079630  27.8459267
  39.9134941  31.2832319  26.8402238  39.7429549  32.1843251  28.7708507
  39.9546198  33.1493634  28.3104179  38.6642527  32.0397440  28.8308334
  40.3295719  32.1499004  30.1519664  40.3208282  31.1624338  30.6134142
  41.3602662  32.4678170  29.9948029  39.6623345  33.1246487  31.0877195
  38.4358390  33.0918476  31.3356184  40.5003168  33.9269356  31.7326538
  40.1400550  34.6125106  32.3809592  41.4943614  33.8481454  31.5721270
  41.8115659  31.1574122  27.6952843  42.5283551  30.4112927  28.3516415
  42.3286180  31.9717981  26.7449602  41.5638278  32.9724468  25.9776218
  41.2821117  33.7773305  26.6565169  40.6648133  32.4905180  25.5934130
  42.4822030  33.4390288  24.8753068  42.4159192  34.5238409  24.7923117
  42.1702602  32.9835134  23.9354670  43.8936551  32.9937028  25.2552141
  44.4468733  33.8495437  25.6419762  44.4274743  32.5712576  24.4039346
  43.7363937  31.9243921  26.3634562  43.9465565  30.9133203  26.0146532
  44.6975392  32.2802440  27.5131186  45.7625668  31.7038312  27.5874178
  44.3495640  33.2754016  28.3158300  43.5063861  33.8001325  28.1319608
  45.2079146  33.6950244  29.4609675  46.0817510  33.0438330  29.4823882
  45.6822550  35.1471928  29.3876800  46.1791350  35.2960530  28.4290089
  44.8079596  35.7953487  29.4476926  46.6477053  35.4896089  30.5193716
  46.0569053  35.5067292  31.4352117  47.3688578  34.6737204  30.5680246
  47.3804421  36.7996341  30.3695228  48.1119343  36.6978957  29.5678574
  46.6583910  37.5724522  30.1059059  48.0863561  37.1855213  31.6493265
  48.4765610  38.1967093  31.5338297  47.3586569  37.1679067  32.4606482
  49.2045800  36.2557691  31.9660395  49.8792081  36.2722656  31.2145713
  49.6501623  36.5453479  32.8249345  48.8431605  35.3187941  32.0735232
  44.4414292  33.4672569  30.7537692  43.3641918  34.0714412  30.9287804
  44.9608636  32.5434605  31.5585146  45.7755462  32.0312181  31.2519215
  44.3660851  32.1954331  32.8613290  43.4195316  32.7186875  32.9967560
  44.1070728  30.7050295  32.9162898  45.0140241  30.1831489  32.6110371
  43.8597569  30.4328396  33.9423734  42.9532368  30.3070838  31.9905503
  42.0360130  30.6269957  32.4849770  43.0460670  30.8181176  31.0322554
  42.8730355  28.8320753  31.7407331  43.0697627  28.0152022  32.6370287
  42.6264347  28.4770869  30.4877553  42.5589900  27.4984425  30.2473228
  42.5071012  29.1868613  29.7791785  45.3121368  32.6481274  33.9750373
  46.5309929  32.4129659  33.8345566  44.7994997  33.3316257  34.9701465
  43.8086630  33.5263164  34.9910626  45.6522365  33.9315163  36.0136081
  46.6828679  33.5782300  36.0465778  45.6612953  35.4676958  35.9467380
  46.2244225  35.8415137  36.8018679  46.2980525  35.9870626  34.6477428
  45.7351557  35.6140124  33.7921251  46.2821942  37.0769445  34.6451909
  47.3290025  35.6390574  34.5834300  44.2817268  36.0516729  36.2290363
  43.9575263  35.7536153  37.2261109  44.3285002  37.1392112  36.1727135
  43.5713362  35.6803353  35.4904198  45.2404416  33.4330318  37.3980662
  45.8776696  33.8929799  38.3968731  44.2160576  32.5656069  37.5377244
  43.6814031  32.2081171  36.7589787  43.7757898  32.2215101  38.9076655
  43.7555630  33.1295395  39.5103036  42.3819924  31.5893873  38.9287040
  42.3678079  30.8896393  38.0930900  42.2514726  31.0422541  39.8623581
  41.2493904  32.5953729  38.7674572  41.3285526  33.0702659  37.7895457
  39.8952272  31.8866432  38.8827534  39.8151342  31.4118679  39.8606451
  39.0924326  32.6146551  38.7660467  39.8137507  31.1286852  38.1036760
  41.3080952  33.7044555  39.7632034  42.2482765  34.2444941  39.6513244
  40.4752394  34.3875785  39.5964842  41.2437291  33.2928912  40.7704625
  44.8266687  31.3304053  39.5844536  44.8699151  31.3849393  40.8194264
  45.6843647  30.6393016  38.8312689  45.5921377  30.6077554  37.8259836
  46.7802401  29.8643275  39.4612809  46.3680132  29.1566438  40.1805527
  47.5580071  29.0850327  38.3996425  46.8445956  28.4190096  37.9143010
  47.9211198  29.8161845  37.6773778  48.7295043  28.2724820  38.9309057
  49.5531033  28.9635303  39.1104546  48.4176162  27.8265382  39.8753431
  49.1814132  27.1870097  37.9882370  48.4851881  26.3525969  38.0726455
  49.1505551  27.5840643  36.9735967  50.5891380  26.7056070  38.3010728
  51.2436785  27.5727471  38.3890809  50.5718412  26.1664718  39.2482439
  51.0929292  25.8156282  37.2383060  51.1094423  26.3151442  36.3606325
  52.0275192  25.5104855  37.4696703  50.4867975  25.0118411  37.1568834
  47.7037054  30.8394852  40.2096238  48.1253554  30.5295688  41.3607716
  47.9393986  32.0136338  39.6435418  47.5797784  32.1996902  38.7182550
  48.7657487  33.0682732  40.3084743  49.6766881  32.6153597  40.6998281
  49.1556871  34.1899049  39.3287543  49.6959954  33.7261514  38.5034671
  48.2310975  34.6300741  38.9552773  50.0147347  35.2717885  39.9495435
  50.1605894  36.0452018  39.1954487  49.4598028  35.6859059  40.7913626
  51.6478151  34.6862028  40.5348142  52.4369559  34.2690632  39.0008620
  52.4960237  35.1554403  38.3692406  53.4421390  33.8966018  39.1982959
  51.8580585  33.4985868  38.4916026  48.0032746  33.6559889  41.4887406
  48.5758812  33.8915120  42.5858812  46.7181165  33.9280841  41.2943647
  46.3224004  33.8224127  40.3711412  45.8482867  34.4301914  42.3748064
  46.1680317  35.4306618  42.6662188  44.3837128  34.4974826  41.9137954
  44.3393480  35.1428330  41.0364961  44.0738364  33.4893330  41.6386391
  43.4506702  35.0393882  42.9904624  42.4387781  34.6505819  42.8764232
  43.9209255  34.5779587  43.8588183  43.3954630  36.5408259  43.1847452
  43.8942959  37.2642918  42.2964745  42.7173567  36.9587530  44.1240886
  45.9879002  33.5241956  43.5938793  46.2026092  34.0462015  44.7151829
  45.8474557  32.2269908  43.4053695  45.6870334  31.8610322  42.4777713
  45.8727463  31.2640110  44.5552462  45.2318263  31.5565869  45.3869433
  45.4803846  29.8453846  44.1076466  46.0571649  29.6029959  43.2150821
  45.7481409  28.7936550  45.1897008  45.1713065  29.0351317  46.0824786
  45.4536616  27.8105730  44.8223697  46.8101663  28.7861656  45.4349506
  44.0673892  29.8025964  43.6499761  43.9367833  30.4827932  42.8083251
  43.8161171  28.7884845  43.3392689  43.4112593  30.1050823  44.4661235
  47.2481870  31.2412206  45.1853872  47.3546101  31.2742448  46.3759524
  48.3096603  31.2277725  44.3739640  48.1827298  31.2471798  43.3721599
  49.6813460  31.1247301  44.9025002  49.8071601  30.2342922  45.5184469
  50.6671531  31.0676361  43.7681472  50.5595626  31.9571816  43.1474757
  51.6801554  31.0247563  44.1682569  50.4772343  30.1795328  43.1654013
  49.9232047  32.3283888  45.8204387  50.4890971  32.1540694  46.9092121
  49.6479884  33.5186602  45.3255297  49.2802444  33.6212871  44.3904728
  49.9602041  34.7538588  46.1024678  50.9294600  34.7442278  46.6010152
  49.8722919  36.0064835  45.2288633  48.8775601  36.0681313  44.7874932
  50.1288624  37.2397243  46.0679446  51.1236577  37.1790125  46.5093031
  50.0645743  38.1276056  45.4389499  49.3833925  37.3019633  46.8607261
  50.7732452  35.9094393  44.0091766  50.4777995  35.0509838  43.4059619
  50.6811786  36.8189457  43.4155256  51.8079855  35.7886704  44.3298452
  49.0291531  34.8454343  47.3117994  49.5249044  35.1789359  48.4114854
  47.7234994  34.6589116  47.1466732  47.3448483  34.4795699  46.2276742
  46.7902978  34.7032106  48.2930660  46.6844793  35.7118516  48.6924966
  45.4444730  34.2491772  47.7601922  45.3567320  34.7385358  46.7901773
  45.5468771  33.1736182  47.6160177  44.2213445  34.5282882  48.5707104
  44.2503505  33.8752223  49.4429285  44.1143767  35.9741571  49.0244580
  44.0848508  36.6278391  48.1527201  43.2031028  36.1059637  49.6078170
  44.9783192  36.2275541  49.6388631  43.0367671  34.1851769  47.6814147
  43.0874771  33.1340736  47.3973199  42.1093113  34.3701997  48.2233498
  43.0630950  34.8049345  46.7851411  47.2827756  33.7676753  49.3918259
  47.3102571  34.1657737  50.5790599  47.6931358  32.5586733  49.0439471
  47.6150470  32.2449497  48.0870882  48.1781024  31.5958246  50.0621120
  47.4418562  31.5176854  50.8620714  48.3996249  30.1987251  49.4601728
  48.9611090  30.3144608  48.5331129  48.9858654  29.6136605  50.1687781
  47.1102255  29.4931165  49.1773711  46.5897438  29.3897530  50.1294822
  46.5329654  30.1399090  48.5166652  47.2642147  28.1548940  48.5495137
  47.5168222  28.2923386  47.4981349  48.0754357  27.6277512  49.0516496
  45.9968267  27.3474269  48.6598104  45.1434390  28.0065855  48.5006248
  46.0044312  26.5722613  47.8935470  45.8919713  26.7189642  49.9959485
  45.8844748  27.4371008  50.7061059  45.0374761  26.1832110  50.0498596
  46.6824241  26.1078034  50.1434812  49.4355246  32.1501461  50.7127325
  49.5906925  32.0302595  51.9324731  50.3895839  32.6611192  49.9259394
  50.2774374  32.6658776  48.9221965  51.6655494  33.1430596  50.4897145
  52.1346335  32.3584359  51.0833683  52.6188554  33.5340523  49.3531198
  51.9920765  33.8116544  48.5056621  53.1697696  34.4087370  49.6988368
  53.6000293  32.4539864  48.9251590  53.2361799  31.5195553  49.3524212
  53.5459149  32.4010814  47.8377885  55.0464058  32.6779655  49.3512930
  55.4111970  33.5291139  48.7763384  55.0215011  32.9387321  50.4093478
  55.9748051  31.4908772  49.1436753  56.8364535  31.6208637  49.7984777
  55.4342967  30.5886972  49.4300683  56.4367695  31.3655996  47.7364399
  56.9380138  32.2013007  47.4710015  57.0476501  30.5656644  47.6526037
  55.6385266  31.2447146  47.1295674  51.4166845  34.3016458  51.4628057
  52.2545411  34.5188507  52.3582834  50.3387310  35.0515734  51.2768842
  49.7067572  34.8386056  50.5183638  50.0774542  36.2647757  52.0908151
  51.0041337  36.6240704  52.5383323  49.5114574  37.3541347  51.2141255
  48.7104827  36.8417691  50.6811899  49.0858707  38.1324070  51.8475828
  50.4634854  37.9814177  50.2136272  50.9575375  37.2017499  49.6338588
  49.6579042  38.8933607  49.2664546  49.1639066  39.6736083  49.8454872
  50.3313984  39.3507732  48.5416925  48.9081485  38.3012497  48.7416961
  51.5701397  38.7201482  50.9968689  52.1050624  38.0103116  51.6278121
  52.2671492  39.1795587  50.2959973  51.1205810  39.4928354  51.6205278
  49.1746926  35.9693955  53.2693086  48.9166903  36.8972310  54.0437428
  48.7453146  34.7383220  53.4832676  48.9284858  33.9731430  52.8499835
  47.8602749  34.4941710  54.6372763  47.0059088  35.1699194  54.5982665
  47.3529499  33.0745534  54.6185070  48.2047947  32.3993391  54.5376034
  46.8228726  32.8797966  55.5508095  46.4004035  32.8443892  53.4284630
  47.0042684  33.0127769  52.5367829  46.0232271  31.8217384  53.4234180
  45.2072501  33.8067695  53.4010560  44.3055651  33.6761329  54.2273219
  45.1233106  34.7347503  52.4356878  44.3378388  35.3693878  52.4164305
  45.8459769  34.7944562  51.7326303  48.6194513  34.8622237  55.9280367
  49.7694831  34.4583054  56.0896625  47.9185201  35.5378061  56.8356037
  46.9383022  35.7190713  56.6730765  48.5236826  36.0371601  58.0821745
  47.7911391  35.9344761  58.8827588  49.3962336  35.4241593  58.3079710
  48.9511119  37.4874758  57.9881284  49.2860124  38.0350252  59.0413327
  49.0767735  38.0334393  56.7742442  48.8937359  37.4546580  55.9670213
  49.5156698  39.4172161  56.5535684  50.1922002  39.7032530  57.3589184
  50.2372175  39.5958088  55.2259466  49.4969548  39.4045342  54.4490782
  50.5446453  40.6407459  55.1847819  51.4452065  38.7042977  55.0037089
  51.2260733  37.7234622  55.4256606  51.6049293  38.6097415  53.9296280
  52.6783282  39.2578825  55.6439397  52.6785003  40.3398687  55.5120120
  52.6492747  39.0220954  56.7077347  53.9290123  38.6776794  55.0350828
  53.7941636  38.5814644  53.9577439  54.7697126  39.3412147  55.2376737
  54.2005551  37.3467371  55.6181461  53.4218496  36.7316121  55.4301600
  55.0393745  36.9635416  55.2062684  54.3259639  37.4357309  56.6163705
  48.2996263  40.3170296  56.6196517  47.1486888  39.8663320  56.4212159
  48.5632438  41.5925342  56.7899534  49.5040771  41.8829042  57.0149364
  47.5131981  42.6140258  56.7432841  46.6036752  42.2498517  57.2210336
  47.9938950  43.8547792  57.4913219  48.6303461  43.5680741  58.3284775
  48.5833368  44.4082688  56.7603583  46.8615672  44.7296143  57.9940008
  45.6959741  44.3242650  57.8425093  47.1775652  45.7877390  58.5981254
  47.1601844  42.8958361  55.2715103  47.9635082  42.6311205  54.3581825
  46.0326283  43.5323174  55.0746103  45.4069656  43.5839296  55.8658003
  45.5791646  44.1012111  53.7803693  44.6261522  44.6106274  53.9230632
  46.5972410  45.1102713  53.2262540  47.5318480  44.6111857  52.9702804
  46.2046238  45.6189862  52.3458218  46.9375194  46.1710502  54.2149945
  46.0160490  47.1247786  54.6511601  46.6363980  47.9647802  55.4927142
  46.1129567  48.8298167  55.8999242  47.8900055  47.5279747  55.6781416
  48.5771432  47.9225048  56.3044702  48.0964775  46.4398429  54.8676420
  49.0739548  45.9582918  54.8402960  45.2999628  43.0046338  52.7533388
  45.2994538  43.3174287  51.5746594  45.0467697  41.7845605  53.1817921
  45.1747750  41.5253151  54.1495244  44.7419002  40.7104474  52.1980921
  44.3052669  41.0859995  51.2726673  45.9298200  39.7829633  51.8439144
  45.6257452  39.1561843  51.0055912  47.1814517  40.5507601  51.4719251
  47.4864227  41.1774621  52.3099813  47.9811055  39.8494854  51.2334547
  46.9787704  41.1786210  50.6042774  46.2135208  38.7528601  52.8904149
  45.3356503  38.1213032  53.0267285  47.0573894  38.1383611  52.5767647
  46.4545793  39.2470948  53.8315438  43.5046767  39.9353893  52.6615400
  43.2647058  39.7717319  53.8867960  42.7647269  39.4649858  51.6924638
  42.9932444  39.6897563  50.7346760  41.5606923  38.6579193  51.9519657
  40.9485476  39.1527444  52.7059725  40.7334895  38.4841854  50.6945007
  41.3354677  38.0536572  49.8942714  39.8725330  37.8436284  50.8856566
  40.0638692  40.0491054  50.0379132  39.4369810  39.5065926  48.9979183
  41.9414981  37.3092156  52.5168322  42.9096697  36.7001766  52.0748171
  41.1370695  36.7992552  53.4256853  40.4288928  37.3812530  53.8497886
  41.2708616  35.4020909  53.8953847  42.2936145  35.2238291  54.2274969
  40.3219376  35.1272716  55.0646984  40.4651827  35.9262379  55.7921824
  39.3054855  35.1707339  54.6734998  40.5480317  33.7858763  55.7362273
  40.2012133  32.9957669  55.0702357  41.6146266  33.6608628  55.9229061
  39.7899060  33.7073925  57.0541392  38.7335687  33.9101822  56.8777113
  39.9018847  32.7095642  57.4782840  40.3005735  34.6847486  58.0145743
  39.7947365  35.5526371  58.1194449  41.3630427  34.4628662  58.8050688
  42.0288629  33.3223081  58.7119419  41.7348158  32.6223890  58.0457966
  42.8277654  33.1573998  59.3074750  41.7952161  35.3997562  59.6347248
  41.3224260  36.2913467  59.6751734  42.5957012  35.2185620  60.2233596
  40.9965962  34.4362940  52.7374262  39.9703959  34.5712399  52.0299656
  41.8687979  33.4695711  52.5580382  42.7135603  33.4918636  53.1111917
  41.6948194  32.3734787  51.5971954  41.3535325  32.7634803  50.6382788
  43.0292882  31.6584646  51.3866488  43.6866908  32.3466634  50.8553265
  43.5174349  31.3243456  52.3021690  42.8806502  30.4563602  50.5198715
  42.8479032  30.6073502  49.1521184  42.9722612  31.5974923  48.7136510
  42.6562539  29.4979759  48.3272952  42.6035421  29.6169840  47.2450941
  42.5339356  28.2512429  48.8871603  42.5008272  27.3704569  48.2458961
  42.4530092  28.1106120  50.2559418  42.2105256  27.1444144  50.6983940
  42.6824013  29.2083345  51.0710840  42.7067578  29.0873590  52.1540760
  40.6653560  31.3852534  52.1102468  40.7569007  30.9306998  53.2586281
  39.7433160  30.9813907  51.2353856  39.7596170  31.3538044  50.2966942
  38.6092111  30.0895981  51.6240630  38.7150412  29.6645303  52.6221695
  37.2769252  30.8423839  51.5281631  37.2130085  31.3128070  50.5469816
  36.0865608  29.8921094  51.7181052  36.1495409  29.4216267  52.6993188
  35.1561599  30.4552067  51.6447825  36.1074754  29.1237229  50.9452896
  37.2956937  32.0114721  52.5362551  37.3053028  31.5594996  53.5280864
  38.2329202  32.5427411  52.3705471  36.1401086  32.9843572  52.4365967
  35.2025050  32.4538662  52.6026646  36.2544855  33.7635789  53.1901422
  36.1301212  33.4371062  51.4451238  38.6059039  28.7993988  50.8047647
  38.2840137  27.7417995  51.3653388  38.9602291  28.8364561  49.5177548
  39.1698687  29.7127068  49.0613171  39.0548704  27.5993478  48.7287460
  39.8174642  26.9635612  49.1785518  38.0905065  27.0928795  48.7686412
  39.4168996  27.8544695  47.2839973  39.5414122  29.0143088  46.8841655
  39.5734537  26.7873911  46.5382276  39.5007059  25.8788194  46.9733191
  39.9685131  26.8534251  45.1143306  39.2859401  27.5160227  44.5822051
  41.3754810  27.3783522  44.9518933  41.5912973  27.5560319  43.8983505
  41.4968892  28.3074327  45.5088220  42.6699334  26.2630651  45.5481385
  43.6910579  27.0566909  45.2377175  39.7876290  25.5125489  44.4323358
  39.7205339  24.4572201  45.1036632  39.6264858  25.5326189  43.1268110
  39.6315544  26.4113082  42.6288365  39.4378770  24.3083897  42.3636572
  40.2260066  23.6066412  42.6366037  38.4682460  23.8846298  42.6250815
  39.4851120  24.5451766  40.8705096  39.5258009  25.7064029  40.4309201
  39.5525745  23.4457526  40.1380987  39.5144886  22.5667538  40.6340926
  39.7276859  23.4153215  38.6695324  39.4113610  24.3620170  38.2315765
  41.2051666  23.1907233  38.3348696  41.4635176  22.1946981  38.6944358
  41.2915992  23.2180601  37.2486458  42.1588520  24.2166239  38.9476215
  41.8562949  25.1783482  38.5333191  41.9530067  24.2017283  40.0179056
  43.6596296  24.0090203  38.7132854  44.2095712  24.7966885  39.2283019
  43.9493905  23.0395834  39.1186618  44.0085582  24.0461937  37.2895097
  44.1150567  23.1557996  36.8247995  44.1940482  25.1729597  36.5718212
  44.0865296  26.3616659  37.1387412  43.8628400  26.4308200  38.1212282
  44.2285309  27.1956205  36.5869667  44.4869467  25.0971840  35.2841195
  44.5710809  24.1935771  34.8408180  44.6251045  25.9432812  34.7501432
  38.8329135  22.3080832  38.1330395  38.8070143  21.2145761  38.7512414
  38.0576620  22.5883492  37.0918594  37.9384925  23.5503792  36.8083170
  37.2398156  21.5528386  36.4215624  37.7294889  20.5862114  36.5396774
  35.8276073  21.4596254  37.0022362  35.2940259  20.6673179  36.4772227
  35.8934872  21.2123099  38.0617620  35.0395707  22.7620811  36.8523953
  34.8504602  23.3256046  35.7628823  34.5730233  23.2588135  38.0039662
  34.0405597  24.1170531  38.0012911  34.7554674  22.7732373  38.8705864
  37.2854425  21.8215441  34.9201919  38.0033225  22.7480197  34.5082134
  36.6220716  20.9675350  34.1454128  36.1487095  20.1921902  34.5868515
  36.6210403  21.0404208  32.6700361  37.6448719  21.0494330  32.2961555
  35.8982037  19.8265886  32.0856493  34.9887774  19.7133694  32.6757547
  35.6344094  20.0066974  31.0435009  36.7266785  18.5591806  32.1855862
  37.9056640  18.6688850  32.5869752  36.2056100  17.4830223  31.8078018
  36.0063916  22.3622668  32.2000020  36.2800391  22.7575589  31.0706118
  35.1925875  23.0233517  33.0225363  35.0423787  22.7025911  33.9683953
  34.4309672  24.2019179  32.5520235  34.4319420  24.2375362  31.4626064
  32.9816116  24.1146319  33.0373455  33.0122729  24.0141531  34.1222709
  32.4979734  25.0551837  32.7736101  32.1907384  22.9502456  32.4401478
  31.9656987  23.1479724  31.3921201  32.7644659  22.0269108  32.5200955
  30.8851947  22.8081442  33.2234286  31.1606411  22.7339479  34.2754377
  30.3230082  23.7274859  33.0595484  30.0326060  21.6700875  32.8808423
  30.3864012  21.0415453  32.1738325  28.8264329  21.4070904  33.4328642
  28.3228814  22.2066351  34.3644227  28.8437779  23.0183327  34.6642791
  27.4210132  21.9998501  34.7693590  28.1335624  20.3401599  33.0464243
  28.5107289  19.7260042  32.3388522  27.2332440  20.1487305  33.4622130
  35.1384381  25.4559209  33.0500551  35.2921865  26.4547228  32.2880531
  35.5133073  25.4522067  34.3094098  35.3886211  24.6328880  34.8867049
  36.0470730  26.6722783  34.9356569  36.6157964  27.2398642  34.1991115
  34.9200215  27.5565179  35.4697957  35.4005574  28.4242866  35.9216385
  34.2462873  27.8857755  34.6787383  34.0541130  26.9320499  36.5445199
  32.9213009  26.1885235  36.2136694  32.6579157  26.0346117  35.1672281
  32.1251318  25.6416960  37.2215104  31.2548416  25.0457479  36.9466622
  32.4271513  25.8469077  38.5476025  31.8038832  25.4137601  39.3299195
  33.5288820  26.6078481  38.8847540  33.7758895  26.7841088  39.9316636
  34.3252745  27.1506287  37.8811050  35.1870622  27.7650749  38.1416385
  37.0381968  26.3186473  36.0428881  36.9771413  25.1790745  36.6094277
  37.8414014  27.3125512  36.3734668  37.8734852  28.0972739  35.7384232
  38.6942649  27.3495948  37.5715576  38.6627718  26.3795174  38.0675990
  40.1341664  27.6653880  37.2157311  40.2018449  28.6733894  36.8065222
  40.7373467  27.6001790  38.1212813  40.6849561  26.6919471  36.1967960
  40.4274450  25.5031386  36.2472668  41.4370240  27.2227257  35.2581108
  41.8390951  26.6328084  34.5436626  41.6092173  28.2179367  35.2557951
  38.1386443  28.4153890  38.5040952  37.5508074  29.4170502  38.0434285
  38.2974623  28.2401054  39.8111447  38.7544200  27.4132443  40.1683417
  37.7221869  29.1856341  40.7715190  37.6876607  30.1755769  40.3166340
  36.3020805  28.7902786  41.1928513  35.8774463  29.6098457  41.7725881
  35.7302825  28.6615662  40.2738408  36.2442952  27.5204099  42.0019898
  36.1915545  26.2926920  41.3873408  36.1651333  26.2421622  40.2988335
  36.1716923  25.1175516  42.1415851  36.1561242  24.1483812  41.6430188
  36.1934199  25.1842891  43.5209255  36.1606955  24.0021856  44.2314425
  36.1247837  23.2262987  43.6672532  36.2248981  26.4102543  44.1483740
  36.2180146  26.4793101  45.2361628  36.2655026  27.5586438  43.3843756
  36.3159662  28.5338774  43.8685997  38.6163138  29.3518567  41.9835776
  39.4248081  28.4428097  42.3124493  38.4684851  30.5102065  42.6275858
  37.8945308  31.2261260  42.2055254  39.1157596  30.8044811  43.9232182
  39.4106973  29.8921848  44.4417029  40.3486985  31.7041686  43.7747292
  40.0239681  32.6945639  43.4557203  41.0880286  31.8155136  45.0715898
  41.4135008  30.8254996  45.3910284  41.9581996  32.4586781  44.9402802
  40.4314915  32.2435536  45.8291137  41.2594515  31.2072256  42.6849267
  40.7212135  31.1976093  41.7371348  42.1239678  31.8662025  42.6045488
  41.5938611  30.1973633  42.9225169  38.0779882  31.4899988  44.7815106
  37.3661877  32.3954948  44.2720658  38.0242479  31.1150717  46.0612574
  38.6437338  30.3888015  46.3912091  37.0614055  31.6993418  47.0141414
  36.4171806  32.4491857  46.5550035  36.1779887  30.6172091  47.6510831
  36.7919905  30.0276785  48.3319316  35.0196873  31.2218695  48.4126925
  34.4049275  31.8112118  47.7323639  34.4164946  30.4260586  48.8496640
  35.4016489  31.8647479  49.2057337  35.6864499  29.6421044  46.6197606
  36.5380486  29.1585426  46.1411692  35.0635747  28.8875457  47.1001432
  35.1005158  30.1715961  45.8684813  37.8529405  32.4470947  48.0831390
  38.8244233  31.8916071  48.6403973  37.4056283  33.6321813  48.4487828
  36.6073037  34.0219071  47.9682716  38.0918150  34.4628106  49.4440495
  38.4177248  33.8307615  50.2701221  39.3242993  35.1755400  48.8531745
  39.9510657  35.4964654  49.6852021  39.8677581  34.4494817  48.2485325
  38.9713731  36.3541045  48.0147511  38.2679519  36.9249109  48.6209519
  39.9020507  36.9128744  47.9161733  38.2636557  36.0882746  46.3783790
  39.5427418  35.0888413  45.6211666  39.6749257  34.1713989  46.1946871
  39.2533693  34.8399556  44.6001768  40.4794148  35.6461109  45.6071865
  37.1449995  35.4470279  50.0922954  35.9725024  35.5770522  49.6910733
  37.6214337  36.0663466  51.1485600  38.5496377  35.8421951  51.4776387
  36.8225470  37.0308405  51.9192152  35.9815671  36.5536580  52.4223541
  37.7541164  37.6026719  52.9693182  38.1722646  36.7542937  53.5110799
  38.5503494  38.1186115  52.4327370  37.1064534  38.5562951  53.9487586
  36.6386781  39.4240700  53.4837277  36.3577701  37.9983820  54.5111715
  38.1727622  39.0380530  54.9087836  39.3846967  38.7131143  54.7986535
  37.7749477  39.8918864  55.8365450  38.4397643  40.2501846  56.5071735
  36.8080723  40.1819032  55.8703623  36.2095695  38.1079231  51.0295992
  36.9221247  38.6870041  50.1921296  34.9377651  38.3932719  51.2432968
  34.4350378  37.8375341  51.9204379  34.2085352  39.4606848  50.5358920
  34.5324027  39.5366420  49.4978941  32.6941401  39.0980502  50.5594391
  32.6281202  38.1138807  50.0955955  32.3874998  39.0285634  51.6031073
  31.7718994  40.0737078  49.8202569  31.9049761  41.0685162  50.2454014
  32.0910998  40.1117095  48.3265846  31.9577908  39.1172857  47.9006163
  31.4206819  40.8124317  47.8289613  33.1228729  40.4325597  48.1830580
  30.3254614  39.6499259  50.0347303  30.0962422  39.6644244  51.1002573
  29.6629033  40.3395067  49.5116659  30.1801684  38.6420022  49.6460419
  34.4897343  40.7786961  51.2567853  34.2435638  40.8785800  52.4569696
  34.8459040  41.7982552  50.4859070  35.0043372  41.6333319  49.5021394
  35.0992245  43.1397139  51.0143191  35.0751568  43.1327974  52.1040311
  36.4683868  43.5938913  50.5644619  36.4715253  43.6496698  49.4758948
  36.6553129  44.5844842  50.9790511  37.5639886  42.6320703  51.0286633
  37.3259105  41.6531611  50.6125425  38.5029636  42.9879346  50.6046484
  37.7288443  42.4954097  52.5022085  37.0920031  43.1399194  53.3088549
  38.6221136  41.6204613  52.9122003  38.7759352  41.4860974  53.9013346
  39.1497660  41.0873255  52.2358494  33.9915065  44.0962573  50.5728630
  32.9359078  43.6629863  50.0612678  34.2130220  45.3610268  50.8912937
  35.1078977  45.6251188  51.2780136  33.2051105  46.4017236  50.7041934
  32.2400728  45.9115301  50.5756952  33.1847377  47.0118806  51.6071844
  33.4668264  47.2988856  49.5074519  33.8253851  46.7826806  48.4086758
  33.3790062  48.5997119  49.7493104  33.1943512  48.9021172  50.6951184
  33.3882135  49.6177840  48.6770205  32.7924344  49.2646072  47.8353480
  32.8041084  50.9384019  49.1674320  33.3920553  51.2843072  50.0175892
  32.8689041  51.6682867  48.3604811  31.3432021  50.7752105  49.5908271
  30.8359990  50.1665482  48.8422444  31.3208854  50.2615022  50.5519243
  30.6372420  52.1156487  49.7165997  31.0387134  52.8580204  49.0268143
  29.5606923  52.0286599  49.5697216  30.8849881  52.5574289  51.0659459
  31.2186781  51.8407289  51.6945090  30.7110285  53.7905196  51.5420882
  30.3119328  54.7982574  50.7613936  30.1338146  54.6335172  49.7809679
  30.1901166  55.7203524  51.1550957  30.9552715  53.9862977  52.8225526
  31.2612357  53.2153065  53.3987980  30.8353158  54.9063877  53.2214808
  34.8078814  49.7335394  48.0938561  35.7796394  49.8602350  48.8149106
  34.8419202  49.7220900  46.7985533  33.9541660  49.7082722  46.3170963
  36.0609424  49.7600152  45.9997045  36.8297652  49.0826511  46.3714418
  35.6265440  49.2923159  44.6300336  35.1059863  48.3428631  44.7551670
  34.9637747  50.0081280  44.1437724  36.8164367  49.0724657  43.7544497
  37.2885632  50.0544289  43.1660503  37.2209460  47.8085983  43.6509099
  38.0198973  47.5827974  43.0757660  36.7270780  47.0811840  44.1479650
  36.6147553  51.1887153  45.9167025  35.8359539  52.1390474  45.8043000
  37.9386470  51.3951349  46.0206283  38.5710649  50.6116253  46.0997459
  38.5070413  52.7602690  46.0455695  38.0541457  53.3212254  46.8630734
  40.0287154  52.7407428  46.2478856  40.3773337  52.0474275  45.4824586
  40.3972001  53.7421352  46.0253268  40.5444519  52.3042893  47.5915199
  40.4465814  51.2221898  47.6785991  42.0217553  52.6984321  47.7432566
  42.1203705  53.7805088  47.6567480  42.3854377  52.3778627  48.7195102
  42.6089624  52.2169313  46.9613069  39.7273324  52.9005477  48.7035080
  38.6906328  52.5781613  48.6064495  40.1222027  52.5683982  49.6636411
  39.7758243  53.9880465  48.6478839  38.2092488  53.5057141  44.7481582
  38.1212523  54.7272246  44.8068255  38.1579277  52.8041707  43.6158680
  38.3614301  51.8149062  43.6223258  37.8594185  53.4490780  42.3213901
  38.5745377  54.2500288  42.1338230  37.9364290  52.4626914  41.1916326
  37.2194952  51.6592283  41.3606089  37.7033026  52.9655274  40.2530654
  38.9424637  52.0463586  41.1400547  36.4715005  54.0869406  42.3894558
  36.3087889  55.2432898  41.9433523  35.5024956  53.3727876  42.9427333
  35.7010918  52.4296145  43.2445335  34.1146114  53.8805659  43.0870295
  33.7737607  54.2869514  42.1347843  33.1680059  52.7660561  43.5066744
  33.6118802  52.2958696  44.3841705  32.2214507  53.2302559  43.7835352
  32.9222139  51.7131958  42.4377677  33.1179437  52.0413621  41.2696741
  32.5245242  50.5702762  42.7916756  34.0869335  55.0305634  44.1068381
  33.4451132  56.0664565  43.8493167  34.7917998  54.8759875  45.2268278
  35.3401102  54.0435666  45.3897097  34.7462448  55.9066194  46.2907529
  33.7154881  56.0900877  46.5940336  35.5264981  55.4282642  47.4949199
  36.4625518  55.0808318  47.0576632  35.7274907  56.2631351  48.1662563
  34.8796431  54.2928000  48.2769797  34.5730718  53.5083072  47.5851084
  35.8716299  53.7239157  49.2810882  36.1783287  54.5077651  49.9736305
  35.4019371  52.9122684  49.8367122  36.7461493  53.3436695  48.7531404
  33.5887644  54.7059661  48.9600258  32.8722934  55.0427152  48.2107802
  33.1749346  53.8550574  49.5011362  33.7906903  55.5172671  49.6593937
  35.3096428  57.2102839  45.7427861  34.8044984  58.2778305  46.0662662
  36.3938060  57.1176952  44.9615778  36.8045560  56.2207423  44.7451079
  37.0291151  58.3277528  44.4117324  37.2339353  59.0156987  45.2320240
  38.3372646  58.0338442  43.6837821  38.9601280  57.4028895  44.3178458
  38.1143130  57.5077315  42.7555590  39.0735205  59.3163896  43.3712450
  38.3651417  59.9830006  42.8793811  39.3809273  59.7514731  44.3221947
  40.2926012  59.1283118  42.4827937  40.8388680  60.0676340  42.3969715
  40.9466692  58.3655170  42.9052136  39.8835677  58.7076552  41.1607632
  39.8471076  57.7118725  40.9958787  39.5895513  59.5158289  40.1729901
  39.5797021  60.8325234  40.3310708  39.8030449  61.2316420  41.2315830
  39.3489019  61.4301076  39.5502225  39.2697583  58.9899561  39.0087053
  39.2566040  57.9861330  38.8979524  39.0391424  59.5929157  38.2319462
  36.0750667  59.0188984  43.4212929  35.9040507  60.2570191  43.4603425
  35.4147066  58.2305218  42.5894848  35.5912234  57.2361872  42.6049767
  34.5215502  58.7725852  41.5282168  35.0204542  59.5882338  41.0048514
  34.1760310  57.6791541  40.5137205  33.9395000  56.7661548  41.0601496
  33.3016045  57.9999978  39.9475601  35.3338817  57.4121421  39.5537620
  35.6858297  58.4056007  39.2757811  36.0856854  56.9204850  40.1711489
  35.0938625  56.5909168  38.2988126  34.6534417  55.6212734  38.5310198
  34.4565060  57.1182878  37.5890550  36.4149559  56.3736458  37.6773148
  36.9230295  55.5827284  38.0466524  36.9876099  57.1079578  36.7104196
  36.3643691  58.1357068  36.1401355  35.4302172  58.3823088  36.4344954
  36.8282313  58.6646277  35.4154465  38.2038175  56.7862334  36.3109430
  38.6798699  56.0019949  36.7333696  38.6527583  57.3257831  35.5846945
  33.2922254  59.4423160  42.1794245  32.7437241  60.3634409  41.5725982
  32.9023934  59.0373730  43.3894188  33.3891919  58.2529031  43.7989716
  31.7587230  59.6163331  44.1280623  30.9312047  59.8028484  43.4435737
  31.2966322  58.6732970  45.1895726  32.1426091  58.4109441  45.8248627
  30.5297273  59.1623094  45.7902587  30.7595659  57.4934980  44.6047649
  30.4669763  56.8973564  45.2980227  32.0932388  60.9810355  44.7342244
  31.1936725  61.7262823  45.0679125  33.3655093  61.3263267  44.8346968
  34.0775752  60.6591654  44.5740108  33.7938563  62.6425944  45.3473560
  33.2829955  62.8693256  46.2831516  35.3031126  62.6209454  45.6064901
  35.8042497  62.2868452  44.6980090  35.6261917  63.6336623  45.8475801
  35.6597153  61.6890791  46.7534835  35.2228097  60.6959770  46.6487815
  36.7465965  61.6077364  46.7667017  35.2089169  62.2745255  48.0521184
  35.6763254  63.3512222  48.4724034  34.2500530  61.6214327  48.6552136
  33.8926247  61.9567778  49.5383275  33.8712957  60.7846656  48.2351361
  33.4437957  63.7382979  44.3505443  33.7158127  63.5338587  43.1816353
  33.1517471  64.9279297  44.8778560  33.1122948  64.9619132  45.8865126
  32.7646530  66.1404766  44.1181902  31.7513288  66.0184648  43.7355857
  32.8068517  67.3830304  44.9953363  33.7551472  67.4148629  45.5318263
  32.7140415  68.2706761  44.3695796  31.7365069  67.3477956  45.9281731
  31.7665746  68.1331174  46.4795037  33.5950607  66.3192311  42.8438460
  32.9707535  66.6626332  41.7971290  34.9093466  66.3429653  42.9434405
  35.3404135  66.1843805  43.8429579  35.7940613  66.6588638  41.7785598
  35.1928097  66.8358826  40.8867863  36.6092981  67.9180067  42.0761468
  36.9940476  67.8040973  43.0896021  37.4403211  67.9213755  41.3708175
  35.8442901  69.2356619  41.9674236  35.2273724  69.2321342  41.0688130
  35.2089310  69.3678358  42.8431809  36.8483039  70.3820928  41.8901810
  37.5289913  70.2774515  42.7350560  37.4044062  70.2669502  40.9598091
  36.2659590  71.7145361  41.9231670  35.2755951  71.7739451  41.7340921
  36.9373110  72.8474929  42.1850859  38.2350671  72.8225365  42.4513416
  38.7291922  71.9416891  42.4582910  38.7241714  73.6844751  42.6461197
  36.3034076  74.0086409  42.1759221  35.3147672  74.0391877  41.9715767
  36.8110233  74.8592068  42.3733117  36.6752611  65.4278407  41.5269882
  37.8008078  65.5217488  40.9307702  36.2066225  64.2664140  41.9710557
  35.2628443  64.2047494  42.3254276  37.0331505  63.0424490  41.9637036
  36.4414486  62.2196655  42.3649709  37.3153969  62.8184205  40.9349920
  38.3033673  63.2004183  42.8061553  39.2867475  62.4673032  42.5674991
  38.2504141  64.0463279  43.8414803  37.4453658  64.6417786  43.9735223
  39.4132301  64.2272532  44.7418724  40.2201731  63.5764024  44.4052191
  39.9275941  65.6633042  44.7770853  40.7987523  65.6959905  45.4313904
  40.3086371  66.1628177  43.4098104  39.4378131  66.1308622  42.7550250
  40.6688665  67.1888474  43.4846231  41.0956487  65.5311000  42.9979291
  38.9089223  66.5131811  45.3023339  39.2281986  67.4182139  45.3263889
  39.0888623  63.7181025  46.1366617  37.9714480  64.0012152  46.6519960
  40.1015057  63.1665500  46.7873669  40.9151648  62.8818216  46.2610705
  40.1024878  62.9508247  48.2570089  39.0801951  62.9575390  48.6351248
  40.7342943  61.6082127  48.5884775  41.6739985  61.6051982  48.0361675
  40.9393819  61.5048137  49.6540044  39.9817769  60.3634830  48.1695458
  38.6155877  60.2134157  48.3963667  38.0449259  61.0318511  48.8352385
  37.9831962  59.0288450  48.0658469  36.9225743  58.9153250  48.2901125
  38.6716648  58.0034754  47.4634415  38.1538808  57.1018808  47.1361392
  40.0513292  58.1258810  47.2719370  40.6301577  57.3091042  46.8407372
  40.6817879  59.3037801  47.6378652  41.7588438  59.4087615  47.5073680
  40.9056345  64.0550302  48.9228405  41.8620956  64.6341381  48.3190607
  40.5551938  64.3443194  50.1747387  39.7038147  63.9467133  50.5450929
  41.3304591  65.2291922  51.0279785  41.5092166  66.2017846  50.5694931
  40.6193772  65.4432088  52.3697931  41.2502458  66.0674038  53.0026325
  39.2793978  66.1142610  52.1767930  38.6477687  65.4903924  51.5443911
  38.7989674  66.2527616  53.1453504  39.4234493  67.0844009  51.7012109
  40.5093674  64.1704525  52.9935745  40.0670236  64.2661988  53.8401942
  42.7141691  64.6342441  51.2682626  42.9276186  63.4156752  51.0707324
  43.6157432  65.4711458  51.7528632  43.4456988  66.4656411  51.7993747
  44.9750225  64.9747714  52.0745807  45.3790802  64.2730597  51.3448976
  45.9671661  66.1285027  52.2783946  46.0016123  66.7139061  51.3595820
  45.5664229  67.0294732  53.4393159  45.5322098  66.4448330  54.3586233
  46.2967573  67.8315028  53.5463706  44.5831180  67.4577415  53.2449017
  47.3941660  65.5928569  52.3908929  48.0534014  66.4474591  52.5430919
  47.4323108  64.9447506  53.2664514  47.8480792  64.8143420  51.1633415
  47.8106434  65.4619717  50.2873996  48.8694018  64.4637572  51.3119671
  47.1895509  63.9592640  51.0107577  44.8814127  63.9873567  53.2558674
  45.6013746  63.0015271  53.2216792  43.9544954  64.1765961  54.1794917
  43.4195472  65.0332785  54.1744935  43.7545601  63.2315045  55.2997157
  44.6922195  63.1126973  55.8426512  42.7066534  63.7243113  56.2544748
  43.0459687  64.6444000  56.7302911  41.7786450  63.9154059  55.7156025
  42.4817714  62.7323543  57.2480090  41.8120633  63.0411207  57.8626262
  43.4476908  61.8380677  54.7599992  44.0464540  60.8302804  55.2308681
  42.4249933  61.6963534  53.9126568  41.8512173  62.4999481  53.7002516
  42.0288942  60.3897361  53.3598859  41.9333938  59.6371924  54.1426099
  40.6912531  60.4955612  52.6156202  40.7141941  61.4011458  52.0094104
  40.4316515  59.3151976  51.7373368  40.4081057  58.4092268  52.3429456
  39.4729772  59.4401038  51.2339074  41.2242027  59.2338599  50.9934635
  39.6445226  60.6367524  53.5987185  38.7959282  60.7049498  53.1550554
  43.1867391  59.8744171  52.4860762  43.5160101  58.6953762  52.5912867
  43.7863107  60.7315440  51.6694672  43.4712518  61.6909555  51.6503146
  44.8595695  60.3171105  50.7098186  44.5035805  59.5048680  50.0760733
  45.3054000  61.4685606  49.8200761  45.5925119  62.3040039  50.4585911
  46.4773083  61.0788319  48.9410434  46.1907899  60.2436890  48.3018697
  46.7654091  61.9279030  48.3212245  47.3195788  60.7842709  49.5670744
  44.1899713  61.8545679  49.0186129  44.4439965  62.5817944  48.4457140
  46.0491512  59.7251312  51.4888340  46.5563119  58.6586320  51.0684528
  46.5024830  60.4124236  52.5370451  46.0625966  61.2745990  52.8255807
  47.6920821  59.9503405  53.2804375  48.5329506  59.8095126  52.6013155
  48.0750145  60.9955727  54.3184521  47.1296144  61.2630488  54.7904421
  48.7328864  60.5382396  55.0574724  48.7318374  62.2430380  53.7608726
  48.0781473  62.7034974  53.0200843  48.9763319  63.2142258  54.8876923
  49.6303628  62.7546118  55.6287033  49.4487587  64.1149163  54.4956843
  48.0269009  63.4763433  55.3545710  50.0342588  61.9256322  53.0215173
  49.8260295  61.2513942  52.1907687  50.4698571  62.8487577  52.6391631
  50.7355241  61.4504318  53.7074550  47.3993057  58.6088634  53.9413652
  48.2769975  57.7328145  53.9610980  46.2550526  58.4574200  54.5751165
  45.6250893  59.2408892  54.6721806  45.9347765  57.2075487  55.2954088
  46.7866095  56.9055968  55.9047566  44.7313214  57.4058085  56.2059772
  43.9216184  57.8317791  55.6134999  44.4277375  56.4309078  56.5874288
  45.0448559  58.3251986  57.3654689  45.8568923  57.8867702  57.9455363
  45.3625128  59.2889181  56.9674224  43.8433072  58.5201031  58.2521814
  43.3733874  57.5540214  58.4364656  44.1634773  58.9543814  59.1992785
  42.8618791  59.4077403  57.6391945  43.1858157  60.0209286  56.9049162
  41.5998418  59.4955582  58.0235588  41.1402543  58.6547519  58.9193139
  41.7515047  57.9500906  59.3065160  40.1772658  58.7159135  59.2176625
  40.7871345  60.3840197  57.4684561  41.1338820  60.9990294  56.7462170
  39.8250543  60.4417022  57.7704050  45.7899173  56.0422234  54.3115033
  46.3482655  54.9796591  54.5658542  45.0618343  56.2292372  53.2176245
  44.5408473  57.0824718  53.0738798  44.9605608  55.1691846  52.1996755
  44.5679561  54.2531343  52.6410513  44.0047996  55.6273969  51.0889442
  44.3248639  56.6412348  50.8485471  44.1558256  54.9841004  50.2220758
  42.5353117  55.6366430  51.4609911  42.3635501  56.2939585  52.3133614
  41.7568662  56.1520988  50.2579542  41.9277734  55.4949891  49.4052547
  40.6928857  56.1709724  50.4939416  42.0919527  57.1598126  50.0123320
  42.0372052  54.2478307  51.8815339  42.6038629  53.9047740  52.7471612
  40.9795017  54.3032112  52.1390167  42.1738594  53.5473956  51.0576314
  46.3445708  54.8558216  51.6368788  46.6819743  53.6800984  51.4776846
  47.1044560  55.8820288  51.2664597  46.7348726  56.8139628  51.3889601
  48.4433846  55.7362400  50.6925034  48.3705908  55.2531690  49.7181099
  48.8983445  56.7199556  50.5766820  49.3203311  54.8895775  51.5998959
  50.0461215  54.0043532  51.0993059  49.2914249  55.1801126  52.9062373
  48.7207351  55.9254918  53.2788260  50.1564010  54.4340572  53.8331470
  51.1796784  54.4376847  53.4576616  50.1450280  55.0629993  55.2255016
  50.4262786  56.1113715  55.1259366  49.1310006  54.9952365  55.6195277
  51.1060040  54.3690062  56.1779951  50.6927733  53.3924452  56.4303238
  52.0600059  54.2383015  55.6672126  51.3186350  55.1719151  57.4489256
  52.0432255  54.6477107  58.0720446  51.7142674  56.1506653  57.1775910
  50.0955907  55.3592937  58.2135836  49.2516447  54.9280319  57.8644877
  50.0480896  55.9915321  59.3794147  51.1488473  56.4976616  59.9071744
  52.0286796  56.4022408  59.4204610  51.1052145  56.9775657  60.7948049
  48.8902706  56.1911477  59.9715911  48.0404465  55.8620262  59.5361853
  48.8566689  56.6725787  60.8588306  49.6985357  52.9705273  53.8991211
  50.5293656  52.0820326  53.8449278  48.4041913  52.7143047  53.8998836
  47.7368763  53.4698362  53.9628301  47.8952568  51.3305931  53.8977329
  48.3525557  50.7749729  54.7164290  46.3785811  51.2981544  54.0731796
  45.9513001  51.9541705  53.3147779  46.0539370  50.2736372  53.8913262
  45.9125909  51.7378592  55.4377963  46.6587477  51.3545887  56.1338240
  45.8567308  52.8227737  55.5269153  44.5653511  51.1526503  55.8024530
  44.3065991  49.9727869  55.5391078  43.6806034  52.0058042  56.3244453
  42.7627422  51.6777181  56.5890048  43.9333224  52.9752802  56.4523151
  48.3283431  50.6274667  52.6123903  48.6989431  49.4371251  52.6632206
  48.1930342  51.2988655  51.4755350  47.6983130  52.1793198  51.4632714
  48.5875442  50.7004529  50.1864658  48.2064726  49.6825036  50.1048403
  48.0711737  51.5286911  49.0230880  48.4200023  52.5572114  49.1156350
  48.5938469  50.9347645  47.7401087  48.2450272  49.9063256  47.6466262
  48.2313089  51.5191323  46.8944248  49.6837106  50.9487278  47.7501752
  46.5442640  51.5705228  49.0286518  46.1917190  50.5764221  48.7537399
  46.2299029  51.7981453  50.0472118  45.9696354  52.5736969  48.0980859
  46.2832017  52.3464452  47.0791979  44.8816779  52.5443165  48.1579557
  46.3213878  53.5681688  48.3726687  50.0958183  50.4298603  50.1657302
  50.5065384  49.3420648  49.6917608  50.9141729  51.3628260  50.6542298
  50.5769865  52.2639629  50.9614055  52.3690886  51.0990499  50.7180602
  52.7725698  50.9118533  49.7229423  53.0517631  52.3180708  51.2945674
  52.8580266  53.0735300  50.5330906  52.5632847  52.6072511  52.2250853
  54.5533133  52.2025194  51.5242913  54.7395477  51.3884627  52.2248120
  55.2775774  51.9257615  50.2266440  55.0921823  52.7396704  49.5257304
  56.3479893  51.8475449  50.4169101  54.9155500  50.9902221  49.8002607
  55.0776909  53.4532131  52.2221076  54.5780518  53.5698254  53.1838050
  56.1519199  53.3581387  52.3805185  54.8783917  54.3267833  51.6014194
  52.6108302  49.8611369  51.5740547  53.4934039  49.0620708  51.2062532
  51.9456245  49.7550766  52.7239446  51.3697700  50.5047230  53.0796427
  52.1012752  48.5303072  53.5542756  53.1379506  48.4490944  53.8810902
  51.2042730  48.5638402  54.7847201  50.1802700  48.7064096  54.4394795
  51.2892905  47.5956892  55.2782336  51.5662300  49.6681857  55.7685622
  52.5594906  49.5726055  56.2071950  51.5596071  50.4989956  55.0630055
  50.5555115  49.9283691  56.8624666  49.5534080  49.2174857  56.9418973
  50.8913252  50.7162197  57.7537588  51.8096284  47.2910004  52.7138313
  52.5789745  46.3147566  52.7850248  50.7299987  47.2876905  51.9496992
  50.0949378  48.0697561  52.0216045  50.3197800  46.1223747  51.1307037
  50.3454293  45.2260752  51.7504525  48.9305912  46.2830078  50.5747275
  48.5738726  45.2935461  50.2886915  48.3008821  46.6794580  51.3712158
  48.8741896  47.1410926  49.4619340  47.9677022  47.2043921  49.1522994
  51.3754583  45.8086251  50.0704785  51.6573833  44.6147364  49.8079636
  51.9704539  46.8284762  49.4698855  51.6328047  47.7674212  49.6263294
  53.0501059  46.6243741  48.4624685  52.8217939  45.8454090  47.7350166
  53.3046807  47.9550484  47.7270697  53.4104310  48.7491418  48.4662131
  54.5645821  47.8774849  46.8846864  54.4593925  47.0838635  46.1449561
  54.7215199  48.8288259  46.3763346  55.4190586  47.6639737  47.5268562
  52.0602920  48.3158024  46.8937857  51.9930803  47.5836863  46.0890564
  51.1966787  48.2130411  47.5508335  52.0834988  49.7099592  46.3061869
  52.9466401  49.8133370  45.6486156  51.1703592  49.8795916  45.7356607
  52.1502409  50.4426920  47.1103932  54.2837529  46.0380295  49.1293568
  54.8813843  45.1076547  48.5533632  54.7564132  46.6090933  50.2370433
  54.3342224  47.4435101  50.6186228  55.9460249  46.0438820  50.9247708
  56.8063723  46.0867096  50.2568881  56.2723011  46.8254326  52.1885886
  56.3412686  47.8822770  51.9308627  55.4618844  46.6782162  52.9024879
  57.5731824  46.3723231  52.8044673  57.3650681  45.3449874  53.1034166
  58.3391354  46.3764377  52.0289687  58.0649476  47.1573400  54.0038928
  57.4164901  48.1606780  54.3665343  59.1370405  46.7787951  54.5190688
  55.6386621  44.5670134  51.2613555  56.5422648  43.7240101  51.1245872
  54.4178451  44.2605469  51.6808294  53.7367343  44.9993997  51.7822388
  54.0317251  42.8874424  52.0879074  54.7235008  42.5114163  52.8416646
  52.6434031  42.8981238  52.6714705  52.5909462  43.6843026  53.4246441
  51.9340616  43.1133517  51.8723386  52.3239468  41.6631966  53.2608696
  51.4355660  41.7015969  53.6226772  54.1430391  41.9241121  50.8993819
  54.7843513  40.8669248  51.0497806  53.5778248  42.2781646  49.7650943
  52.9918732  43.0965963  49.6818496  53.6409939  41.3343573  48.6134865
  53.4654538  40.3145551  48.9559605  52.6549590  41.6737184  47.5055672
  51.6546773  41.7036477  47.9375869  52.9655464  43.0107846  46.8556537
  53.9655613  42.9814681  46.4229745  52.2364007  43.2119578  46.0708119
  52.9179034  43.7999008  47.6060702  52.6460172  40.5620402  46.4579085
  53.6500370  40.4947240  46.0389651  52.4022220  39.6297940  46.9673987
  51.6626028  40.8001939  45.3580621  51.9060444  41.7320971  44.8477755
  51.7052612  39.9752615  44.6468897  50.6582291  40.8671694  45.7762099
  55.0896698  41.2122353  48.1612529  55.5643773  40.0632596  47.9599730
  55.8529192  42.2949636  48.1651118  55.4625599  43.2065008  48.3569938
  57.2972318  42.2059158  47.8056308  57.4023993  41.7662175  46.8138120
  57.9362834  43.5886256  47.7953492  57.7098756  44.0938864  48.7342583
  59.0165519  43.5506851  47.6550624  57.3988807  44.4436554  46.7142991
  57.7790220  45.7666360  46.6005142  57.1627360  46.2802789  45.5559796
  57.3101420  47.3345386  45.3216574  56.4324647  45.3459183  44.9529008
  55.8773905  45.4356182  44.1138856  56.5659123  44.1861748  45.6961879
  56.0314632  43.2838666  45.3990256  58.0143591  41.2697194  48.7658296
  58.9013202  40.5421748  48.3365918  57.6400260  41.3171446  50.0464839
  56.8945652  41.9414703  50.3196229  58.3553274  40.5732625  51.1060803
  59.4274415  40.7413878  51.0040785  57.9265772  41.0210731  52.4777307
  58.6902779  40.7186232  53.1942394  57.8413195  42.1077311  52.4753627
  56.7032244  40.4603116  52.8388725  56.4582555  40.7644454  53.7158518
  58.1962700  39.0648123  50.9317109  59.0641780  38.3363334  51.4591654
  57.1837212  38.6089797  50.2123594  56.4567782  39.2407955  49.9082837
  57.0117893  37.1540858  49.9453403  57.7070729  36.5185632  50.4937845
  55.5789484  36.6846609  50.2419346  55.5072178  35.6222976  50.0088294
  55.2114894  36.9096993  51.7048973  55.2825452  37.9719671  51.9386473
  54.1918634  36.5669002  51.8808290  55.8970627  36.3512962  52.3422959
  54.5481516  37.2937038  49.3256559  54.7738057  37.0241030  48.2939110
  53.5593267  36.9193104  49.5905230  54.5650243  38.3786492  49.4291428
  57.4527085  36.8182010  48.5210255  57.1939580  35.6733763  48.0789591
  58.1010722  37.7647847  47.8246738  58.1087818  38.7103943  48.1794445
  58.8035560  37.4879313  46.5641157  59.6834970  38.1296328  46.5191473
  59.1160811  36.4437356  46.5732068  57.9422896  37.7381661  45.3279648
  58.2899747  37.1952090  44.2399631  56.8645503  38.4971611  45.4351351
  56.5684652  38.8816297  46.3209210  56.0176714  38.7478205  44.2398966
  56.4952366  38.3017639  43.3675067  54.6138425  38.1492174  44.3897249
  54.3087292  38.4121936  45.4025667  53.8834467  38.5356790  43.6789018
  54.5519481  36.6457473  44.2972856  54.8418488  35.8514264  45.3916849
  55.0735193  36.3235684  46.3464155  54.8399946  34.4589863  45.2834805
  55.0495759  33.8405028  46.1562087  54.5726555  33.8689230  44.0711316
  54.5978815  32.7841515  43.9675248  54.2703276  34.6607338  42.9790265
  53.9865636  34.1965904  42.0344901  54.3271716  36.0369137  43.0826782
  54.1932994  36.6562511  42.1957739  55.9395671  40.2419896  43.9970869
  55.8353837  41.0724353  44.9698792  55.8708679  40.5805654  42.7226452
  56.0268145  39.8664499  42.0256379  55.5176703  41.9317571  42.2682032
  55.7658787  42.6612021  43.0391778  56.2972791  42.2796915  40.9957658
  55.9581941  41.5382564  40.2723056  55.9968936  43.2737256  40.6644582
  57.8046150  42.2204448  41.1092129  58.0892808  41.2165421  41.4242455
  58.4713739  42.5426944  39.7862659  58.1875312  43.5466909  39.4707927
  59.5539533  42.4913474  39.9023959  58.1526801  41.8220538  39.0331314
  58.2801261  43.1750740  42.2039221  57.8359613  42.8864207  43.1565481
  59.3663813  43.1281007  42.2810216  57.9776488  44.1925042  41.9560466
  54.0450258  41.9062389  41.9238938  53.5345809  40.8606898  41.3852082
  53.3600079  43.0103787  42.1434293  53.8112340  43.8050784  42.5734837
  51.9205704  43.0917764  41.8693144  51.4575338  42.1232272  42.0580173
  51.2556564  44.1296986  42.7590604  51.4493740  43.8261199  43.7878523
  51.5579813  45.1682106  42.6241807  49.7775204  44.0884007  42.5734735
  49.1506529  44.6341143  41.4831732  47.8454013  44.3847924  41.5827811
  47.1333889  44.7867665  40.8619801  47.6588320  43.5956215  42.6827293
  46.7892090  43.1819628  42.9872656  48.8328146  43.4552425  43.3038369
  48.8912602  42.8994181  44.2396491  51.7045584  43.3743000  40.3859203
  50.9510359  42.6262048  39.6850326  52.3363609  44.4463443  39.9110417
  52.7243491  45.0848436  40.5906615  52.4028484  44.8218059  38.4703502
  53.1343420  45.6222790  38.3596293  52.8012829  43.6685067  37.5578477
  52.0235626  42.9070877  37.6169367  52.8594370  44.0493621  36.5382069
  54.1500536  43.0528152  37.9510075  54.8047350  43.8766266  38.2353100
  53.9688398  42.4175663  38.8180267  54.8035439  42.2459889  36.8682195
  54.9966612  42.8787034  36.0019187  55.7440467  41.8326139  37.2324655
  53.9325715  41.1409469  36.4578169  53.1310232  40.9771882  37.0501029
  54.1053079  40.3692497  35.4102242  53.2084050  39.4169961  35.1346263
  52.4038818  39.2968215  35.7332918  53.3394141  38.8220902  34.3290065
  55.1549294  40.5230775  34.6230350  55.8342787  41.2420797  34.8270456
  55.2732365  39.9209783  33.8208014  51.1037531  45.4578518  37.9701482
  51.1226026  45.8251858  36.7424204  50.0805799  45.5856463  38.8138206
  50.1610162  45.2458392  39.7615338  48.7689204  46.1131987  38.3648463
  48.8748978  46.7549832  37.4902146  47.9035669  44.9030074  37.9835991
  48.4626768  44.2487101  37.3147265  47.8390417  44.4438477  38.9700619
  46.4993581  45.1154454  37.4295318  46.3739224  45.9654750  36.5385454
  45.5150981  44.2686902  37.8121959  48.1906263  47.0075858  39.4551607
  46.9753616  46.9382594  39.7108550  48.9978365  47.8235472  40.1092103
  49.9859904  47.8043475  39.9011655  48.5252919  48.7072303  41.2109901
  47.8396091  48.2207142  41.9047050  49.7033042  49.2861914  41.9840930
  50.4179653  49.7098743  41.2785062  49.2323927  50.3636987  42.9310583
  48.5180018  49.9406396  43.6372929  50.0856502  50.7674555  43.4760655
  48.7530683  51.1620095  42.3644481  50.5447105  48.1972541  42.7045796
  50.8369511  47.4585732  41.9582240  51.4358788  48.6803092  43.1052994
  49.8065328  47.5213452  43.8099089  48.9154197  47.0376354  43.4098563
  50.4494690  46.7722495  44.2720647  49.5143452  48.2593724  44.5569310
  47.6166497  49.7866902  40.5879895  48.0593092  50.5089823  39.7228093
  46.3620205  49.8487797  41.0069973  46.0598145  49.1770062  41.6980047
  45.3699425  50.8016449  40.4783008  45.8210805  51.7925902  40.4272989
  44.8890325  50.4127259  39.0841073  44.1761095  51.1715147  38.7614935
  45.7565358  50.4260748  38.4242893  44.2247593  49.0299944  39.0274869
  44.9536764  48.2883733  39.3542572  43.3766409  49.0313347  39.7121733
  43.7490649  48.6884161  37.6405493  43.0311450  49.4423929  37.3177348
  44.6037767  48.6881289  36.9641122  43.0932100  47.3294655  37.6224205
  43.8653743  46.5812300  37.8013240  42.3630685  47.2978692  38.4311196
  42.4174243  47.0431392  36.3362187  43.0938947  47.0719439  35.5867804
  41.9959053  46.1260915  36.3742373  41.7015934  47.7361102  36.1704593
  44.2512437  50.8170270  41.5036083  44.0863351  49.8656601  42.2588011
  43.4050731  51.8507743  41.5115813  43.5449140  53.0806079  40.7095172
  43.1579112  52.9042514  39.7059100  44.5979012  53.3557010  40.6491784
  42.7186507  54.1053064  41.4853618  42.2296322  54.7945529  40.7969584
  43.3576745  54.6661475  42.1674228  41.7218532  53.2888832  42.2390997
  40.8621595  53.0865287  41.6002895  41.3881233  53.7864185  43.1496943
  42.4275929  51.9813577  42.5888118  42.9823672  52.0291611  43.5258489
  41.4169159  50.8281925  42.6517977  40.9542800  50.4617324  43.7475262
  41.0313030  50.2635218  41.5117711  41.3651997  50.6157050  40.6260063
  39.9916885  49.1909147  41.5009192  39.2225104  49.4527099  42.2275054
  39.3547757  49.0051274  40.1887599  38.5793901  48.2443879  40.2790468
  38.9035970  49.9482452  39.8804312  40.3185284  48.5919714  39.2065991
  39.8824813  48.4766834  38.3591492  40.5159282  47.8542903  42.0273430
  39.7268799  46.9691214  42.2916738  41.8059029  47.7696597  42.3661759
  42.4428524  48.5072715  42.1009902  42.3608089  46.5658615  43.0170455
  41.6762948  45.7308170  42.8679137  43.7139385  46.1909446  42.4458513
  44.2969966  47.0892869  42.2430620  44.2286991  45.5849275  43.1914148
  43.5999682  45.3952345  41.1754210  42.5981628  44.6801427  40.9606983
  44.5901886  45.5192989  40.2958703  44.5578402  45.0042628  39.4276587
  45.3698239  46.1279636  40.5003131  42.4161935  46.7378389  44.5438980
  43.0570880  45.9097733  45.2077283  41.7207128  47.7236259  45.0898583
  41.1917242  48.3231035  44.4726897  41.6816711  48.0035854  46.5463576
  42.0259841  47.1245766  47.0912351  42.5738765  49.1850030  46.9134255
  42.3313560  50.0904534  46.3571497  42.4731551  49.3774835  47.9815578
  44.0217422  48.9043246  46.6638447  44.8141801  48.2688867  47.6174373
  44.3855219  48.0297342  48.5906578  46.1221139  47.9434828  47.3433471
  46.7265497  47.4266061  48.0887307  46.6672536  48.2726233  46.1232266
  47.6883848  47.9845181  45.8734539  45.9079060  48.9735099  45.2138777
  46.3795879  49.3280592  44.2974110  44.5753351  49.2290388  45.4454414
  43.9646591  49.6858879  44.6666837  40.2411871  48.3247793  46.9839890
  39.4828035  48.9526594  46.2514850  39.8584994  47.7942426  48.1105257
  40.4630942  47.1321524  48.5755000  38.5339591  48.0849419  48.7169768
  38.1966903  49.0585715  48.3614570  37.4895018  47.0508012  48.3580231
  37.8087989  46.0718737  48.7155850  36.5403114  47.3153873  48.8239975
  37.3658768  47.0190658  47.2755218  38.6778300  48.1698724  50.2168661
  39.5368818  47.4879725  50.7752070  37.7648554  48.9073565  50.8259775
  37.1628143  49.4987630  50.2711044  37.6178086  48.9379330  52.2767291
  38.6041198  48.9003298  52.7391958  36.8991705  50.2250049  52.7483648
  35.8597977  50.1441209  52.4301492  36.9455038  50.2346757  53.8373367
  37.4948676  51.5094288  52.2061046  37.3047075  51.5230511  51.1329064
  36.9626595  52.3345789  52.6793741  39.2724519  51.7015608  52.4984472
  39.3531747  51.8472984  54.2772429  38.9428935  50.9471982  54.7350509
  40.3914306  51.9701920  54.5855002  38.7745176  52.7135488  54.5979724
  36.8426970  47.6986507  52.6893988  36.0818347  47.1252619  51.8775030
  37.0106834  47.2923715  53.9411399  37.6831128  47.7327726  54.5526831
  36.2095963  46.1758060  54.4724682  36.3317509  45.3179567  53.8112028
  36.5830744  45.9247261  55.4652282  34.7204164  46.5199520  54.5724964
  34.3225288  47.7296548  54.4473456  33.8878487  45.5092872  54.8329760
  34.2331358  44.5676303  54.9519653  32.4221007  45.7215064  54.8048743
  32.2024671  46.7574978  54.5468393  31.7702053  44.8062236  53.7580239
  30.7652647  45.1911686  53.5847874  32.3580273  44.9026593  52.8451901
  31.6898870  43.3449675  54.1550737  32.6971838  42.9849917  54.3645291
  31.0803366  43.2614303  55.0548358  31.0710043  42.5045644  53.0420630
  30.0261427  42.7629678  52.8700429  31.6255085  42.5944574  52.1079624
  31.1401538  41.1449985  53.4878105  32.0791803  40.7733405  53.5019141
  30.1331199  40.3493459  53.8644851  30.4120695  39.1173234  54.3038612
  31.3715296  38.8046320  54.3458194  29.6619908  38.5052522  54.5916989
  28.8985312  40.7692034  53.7962245  28.7030044  41.7002210  53.4569967
  28.1449260  40.1609669  54.0829759  31.7881763  45.5800526  56.1818099
  30.5426117  45.7088735  56.2635171  32.5586278  45.4140299  57.2452703
  33.5500415  45.3158731  57.0792477  32.0677595  45.3121194  58.6348668
  30.9794974  45.3695107  58.6570257  32.4971085  43.9755808  59.2279747
  33.5530657  43.7307999  59.1133627  32.2519441  44.0371177  60.2882613
  31.7219255  42.8096138  58.6735007  30.4504145  42.5486794  59.1384382
  30.0339686  43.1819060  59.9218262  29.7058149  41.5027834  58.6264449
  28.7155622  41.2983954  59.0335393  30.2041206  40.7255616  57.6146170
  29.6098866  39.9133568  57.1959176  31.4561533  40.9751397  57.1306894
  31.8856987  40.3311189  56.3633380  32.1828549  42.0533558  57.6190170
  33.1390353  42.3159491  57.1663983  32.5979186  46.4767565  59.4568357
  33.6372339  47.0366781  59.1283050  32.0133962  46.7349719  60.6494619
  30.7335991  46.1644193  61.1391773  30.9013563  45.1746568  61.5638278
  30.0171237  46.0914987  60.3209814  30.3171947  47.1843198  62.1841143
  29.7416315  46.6983182  62.9719141  29.7133242  47.9659412  61.7231264
  31.6279804  47.7540113  62.7217299  32.0493096  47.0525653  63.4418370
  31.5457883  48.7393623  63.1804536  32.5182829  47.8275734  61.4893521
  32.3781112  48.7718552  60.9632514  34.0161592  47.6287565  61.7968086
  34.8048630  48.6073465  61.8233014  34.4146523  46.3751765  62.0341486
  33.7323132  45.6308121  62.0133068  35.8064043  46.0432834  62.4301453
  36.1963836  46.8108461  63.0986233  35.8399306  44.7292980  63.1407804
  36.8418474  44.5520436  63.5317316  35.1261233  44.7422842  63.9644373
  35.5019470  43.7103706  62.2486173  35.5232695  42.8657871  62.7044943
  36.7682706  46.0582006  61.2370536  37.9717826  45.9650523  61.4735116
  36.2863950  46.1051818  59.9893867  35.2865752  46.1439944  59.8517156
  37.1603874  46.0235618  58.7896048  38.2072032  46.0612586  59.0910262
  36.9286247  44.7450275  57.9935011  37.6085456  44.7339714  57.1416293
  37.1748454  43.5244544  58.8500135  36.4949264  43.5345745  59.7018982
  37.0029244  42.6247052  58.2592566  38.2045208  43.5325162  59.2075107
  35.5744424  44.7330737  57.5028266  35.4232642  43.9291868  57.0003216
  36.9921862  47.2296540  57.8686776  37.7933823  47.3479066  56.9513646
  35.9925307  48.0673792  58.0686837  35.3890933  47.9839749  58.8742930
  35.6727910  49.1021396  57.0543625  35.7937804  48.6802496  56.0566302
  34.2410022  49.5990652  57.2022098  33.9919251  50.2841399  56.3918194
  33.5456977  48.7596670  57.1943144  33.9218911  50.4991111  58.7345571
  32.6383821  50.7444677  58.4869626  36.6622485  50.2678547  57.1176945
  36.6373501  51.0810537  56.1848422  37.5920105  50.2943154  58.0765206
  37.5188615  49.6584521  58.8578185  38.6631108  51.3128015  58.0997645
  38.4270423  52.1013897  57.3852720  38.8073350  51.9327387  59.4751358
  39.2652201  51.1884810  60.1266886  39.4718854  52.7917304  59.3823664
  37.4891476  52.3774254  60.0669750  36.9691041  52.9809451  59.3230533
  36.8993876  51.4881513  60.2894086  37.6781095  53.1937201  61.3415928
  36.6970271  53.3841519  61.7766927  38.2770057  52.6083669  62.0392921
  38.3436115  54.4714152  61.1121120  39.3339427  54.5082980  61.3070049
  37.7580335  55.5480129  60.5848315  38.4614350  56.6525707  60.3677250
  39.4433528  56.6767171  60.6030005  38.0114921  57.4637894  59.9682564
  36.4973731  55.4859999  60.1889871  35.9822121  54.6228636  60.2875011
  36.0558051  56.3020724  59.7900608  39.9770086  50.7027189  57.5796387
  40.9787274  51.4179080  57.5621137  39.9393607  49.4539435  57.1339803
  39.0490889  48.9832334  57.2110994  41.0852794  48.6982921  56.5955869
  42.0005707  49.2455997  56.8209650  41.1981838  47.2937916  57.1864634
  41.1746004  47.4042424  58.2705961  40.3175012  46.7413982  56.8588052
  42.4611338  46.5288582  56.7788656  42.3071908  45.4941678  57.0851629
  42.5156981  46.5810523  55.6914831  43.7813104  47.0545891  57.3863760
  44.6075413  46.5208789  56.9167008  43.8601422  48.1176928  57.1590092
  43.8389765  46.8533573  58.8903671  43.0174162  47.4018894  59.3510751
  43.7328430  45.7906032  59.1080562  45.1269257  47.3428864  59.4362592
  45.2252712  48.3277383  59.2350261  45.1448704  47.2000763  60.4359508
  45.8883129  46.8344365  59.0098000  40.9339235  48.6342106  55.0744774
  39.8282813  48.3003947  54.5775907  41.9872468  48.9585739  54.3574946
  42.7829450  49.3474313  54.8430392  42.0587257  48.8282082  52.8986431
  41.0660426  48.8409584  52.4486243  42.8408629  50.0192277  52.3805631
  42.4066220  50.9511793  52.7425027  43.8835531  49.9595574  52.6925512
  42.8633911  50.1429443  50.5906467  43.6029050  51.2470862  50.5369051
  42.7231295  47.4971045  52.5204999  43.7642708  47.1703396  53.0815869
  42.0999370  46.7578839  51.6330208  41.2552186  47.1377111  51.2301792
  42.5429530  45.4232690  51.1960129  43.3930674  45.0960616  51.7946279
  41.4142109  44.4223084  51.3683304  40.5451516  44.8019366  50.8310060
  41.7391972  43.4850944  50.9165409  41.0505494  44.1855770  52.8003855
  40.1314926  44.9979617  53.4432444  39.6722512  45.8045699  52.8717726
  39.7935080  44.8113556  54.7610621  39.0952670  45.4975109  55.2403870
  40.3725240  43.8034322  55.4883371  39.9594657  43.6221077  56.7997479
  39.2836147  44.2480003  57.0700874  41.2984563  42.9731054  54.8731153
  41.7812588  42.1820296  55.4468759  41.6130181  43.1484306  53.5215617
  42.3055973  42.4651310  53.0300988  42.9618842  45.4508536  49.7272853
  42.2439235  45.9709513  48.8883391  44.1153040  44.8410081  49.4614050
  44.7114952  44.6322536  50.2494894  44.5907471  44.4836484  48.1099388
  44.4386517  45.3180995  47.4253533  46.0892014  44.1545748  48.1568386
  46.5937186  45.0165933  48.5932853  46.2083495  43.2932697  48.8141492
  46.7017094  43.8430851  46.7951187  46.2103288  42.9715440  46.3626121
  46.5741601  44.6981763  46.1313022  48.4661690  43.4968756  46.9861590
  49.1373205  45.1520132  46.8375928  48.7252326  45.7837289  47.6244968
  50.2224603  45.1145709  46.9333544  48.8730356  45.5658100  45.8644397
  43.7685309  43.2947837  47.6417816  43.7550867  42.2816241  48.3294899
  43.0208309  43.4500798  46.5533952  43.2164486  44.2212362  45.9311807
  41.9077691  42.5300813  46.2061877  41.5276266  42.0378188  47.1013237
  40.7825406  43.3245297  45.5757856  41.2743233  43.8340188  44.7471302
  40.0430261  42.6258415  45.1845654  40.0948675  44.3450605  46.4587814
  40.8238437  45.0631527  46.8343319  39.0510088  45.0696890  45.6356979
  38.3213713  44.3522624  45.2601623  38.5460996  45.8089127  46.2575626
  39.5329633  45.5703282  44.7959476  39.4903618  43.6838558  47.6940361
  40.2788309  43.1996016  48.2701556  39.0032092  44.4399074  48.3098034
  38.7566229  42.9390762  47.3857674  42.3024997  41.4403418  45.2154518
  41.5383245  40.4469659  45.1378345  43.3480109  41.6163028  44.3966520
  43.9973145  42.3654150  44.5898750  43.5854018  40.7805544  43.2255756
  43.1818218  39.7856833  43.4138678  42.9296771  41.3418521  41.9750929
  41.9098799  41.6245236  42.2362629  43.4952124  42.2334103  41.7041796
  42.9032788  40.3910105  40.8083464  41.9015178  39.5709372  40.6943257
  43.8593364  40.4559466  39.9911395  45.0813030  40.6778414  42.9932830
  45.7961896  41.6663950  43.2859500  45.5211019  39.5461040  42.4801149
  44.8525989  38.8367727  42.2154412  46.9635875  39.2742908  42.2524992
  47.5297135  40.2048635  42.2929353  47.4972262  38.3287845  43.3349079
  47.0123974  37.3642157  43.1844183  48.5791411  38.1995147  43.3057613
  47.1560760  38.7670297  44.7229524  47.8238080  39.8126270  45.3208137
  48.6497078  40.2890891  44.7926344  47.4585829  40.2573841  46.5716285
  47.9363178  41.1406707  46.9955093  46.4974612  39.5922057  47.2822125
  46.2160145  39.9320262  48.2789119  45.8886360  38.4955303  46.7361492
  45.1388989  37.9535262  47.3125396  46.2175669  38.0752367  45.4667530
  45.7374652  37.1930680  45.0432196  47.1643965  38.6089090  40.9110086
  48.2124804  38.0021505  40.7016689  46.1978056  38.7429292  40.0067312
  45.4298431  39.3733440  40.1881427  46.2047416  37.9951669  38.7305837
  46.1425851  36.9309691  38.9580013  45.3293037  38.2947892  38.1544463
  47.4468701  38.2505888  37.9069300  47.9469418  37.3132206  37.1962732
  47.9194045  39.4983996  37.9062559  47.5163540  40.2127028  38.4956799
  49.0201602  39.8831988  36.9857867  49.0898832  39.1898030  36.1476696
  48.7135734  41.2789101  36.4411147  48.3515183  41.8184597  37.3162728
  49.6166679  41.7603832  36.0660095  47.6384050  41.2935422  35.3524642
  46.7382315  40.8161367  35.7395981  47.3165565  42.7152235  34.9352978
  48.2162030  43.1931611  34.5475986  46.5499293  42.7023722  34.1605602
  46.9518273  43.2736576  35.7974023  48.0301813  40.4490585  34.1716473
  48.1769889  39.4182815  34.4942085  47.2410715  40.4853027  33.4205858
  48.9568870  40.8305525  33.7429542  50.3542534  39.8323944  37.7239582
  51.3468274  40.2801727  37.1751547  50.3791276  39.2735061  38.9240241
  49.5222698  38.9606655  39.3576424  51.6373464  39.1904751  39.7097933
  52.0373562  40.2027304  39.7683651  51.3628490  38.7005390  41.1054461
  50.9702862  37.6845379  41.0637779  52.2875765  38.7088205  41.6824303
  50.6315170  39.3527746  41.5827734  52.6871819  38.3363440  39.0265836
  52.4308895  37.5189055  38.1060693  53.9402455  38.5578309  39.4393804
  54.1503802  39.3761229  39.9928611  55.0643345  37.6973801  39.0032688
  54.6873520  36.7098464  38.7372600  55.7690780  38.2971784  37.7830686
  55.0214832  38.3746520  36.9936390  56.0995553  39.2957258  38.0690544
  56.9622447  37.4927478  37.2759357  57.7256328  37.4755609  38.0537814
  56.6322657  36.4747391  37.0688751  57.5392326  38.1012701  36.0170522
  56.8014205  38.0247009  35.2183849  57.7637997  39.1513600  36.2040820
  58.7467577  37.4392116  35.5948312  59.6292290  37.8362216  35.8841870
  58.7603786  36.3680268  34.8479418  57.6256835  35.8333564  34.4416222
  56.7478347  36.2547312  34.7098103  57.6396050  35.0048970  33.8640749
  59.9156751  35.8294489  34.5276703  60.7733276  36.2466317  34.8600718
  59.9404708  35.0008871  33.9506355  55.9878102  37.4626312  40.1792516
  56.2956160  38.4266575  40.9346223  56.4996714  36.2434018  40.2941427
  56.1886158  35.4910709  39.6963619  57.5278628  35.9452348  41.3246032
  57.2382153  36.3954845  42.2740655  57.6710802  34.4381718  41.5228704
  56.6957389  34.0253228  41.7804831  58.0179540  33.9943181  40.5897184
  58.6618408  34.1251457  42.6311520  59.6851006  34.4560243  42.4535022
  58.2491585  34.6640811  43.4839967  58.6808793  32.6595421  42.9535874
  57.8281134  31.8925481  42.5195603  59.7489823  32.2406776  43.5865404
  59.8337462  31.2660693  43.8376485  60.4825413  32.8943739  43.8203646
  58.8419090  36.5559529  40.8525152  59.2087172  36.2568309  39.7264639
  59.5038476  37.3870340  41.6620111  59.1250995  37.6095542  42.5714801
  60.7224053  38.1034953  41.2133617  60.8991947  37.8629709  40.1650331
  60.6104303  39.6153338  41.3534391  61.4215920  40.0826265  40.7950903
  59.6538561  39.9504118  40.9524546  60.6956753  40.1399001  42.7517636
  59.5990522  40.1106850  43.5732532  58.6604863  39.7163112  43.1838135
  59.6681777  40.5684572  44.8700262  58.7829729  40.5075734  45.5031190
  60.8281983  41.0943123  45.3659613  60.8933891  41.4646842  46.3890325
  61.9272509  41.1501338  44.5440255  62.8597997  41.5754543  44.9149101
  61.8529652  40.6665330  43.2433469  62.7297611  40.7044181  42.5969001
  61.9655467  37.5746909  41.9183548  63.0507871  38.0094166  41.5843595
  61.8024259  36.6390034  42.8629677  60.8745498  36.3123535  43.0919769
  62.9585613  36.0790012  43.6252553  63.8999869  36.4446936  43.2152724
  62.9099951  36.4186523  45.1177018  63.7589441  35.9345301  45.6004145
  62.9666061  37.9128982  45.3754196  62.1176580  38.3976814  44.8933698
  62.9290290  38.0986696  46.4488143  63.8938557  38.3172641  44.9694678
  61.7101166  35.8497137  45.6345359  61.6430298  36.0420027  46.5726854
  63.0410085  34.5603346  43.4999590  62.0239890  33.9368091  43.2589852
  64.2030943  34.0300244  43.8867310  65.0238280  34.6151247  43.8222857
  64.3695502  32.6313921  44.3683015  63.7817710  31.9618504  43.7403456
  65.8279960  32.1925364  44.3163619  66.3037219  32.3856635  43.3548600
  66.3375329  32.7614669  45.0940446  65.9573708  30.7172432  44.6326294
  66.7013170  30.3242755  45.5356672  65.1615450  29.9032182  43.9543178
  65.2015586  28.9079057  44.1212065  64.5186497  30.2818637  43.2735726
  63.8527056  32.4695771  45.8140468  63.5438494  33.5024715  46.4824502
  63.7929771  31.2123241  46.2890955  63.9528277  30.4896817  45.6018290
  63.4577245  30.7997916  47.6866117  62.4183000  31.0470702  47.9023644
  63.6470355  29.3151622  47.8666277  63.3855598  29.0486515  48.8906890
  62.9878389  28.7899584  47.1754542  64.9947173  28.9437278  47.6101527
  65.0938945  27.9964191  47.7300280  64.3058129  31.5801179  48.6974484
  63.8075664  31.8334999  49.8116329  65.5367337  31.9412176  48.3096624
  65.7788809  31.7206240  47.3542554  66.5681416  32.5782648  49.1685976
  66.4859569  32.2089147  50.1908135  67.9604632  32.2431292  48.6392057
  67.9973507  31.2100026  48.2936801  68.2259088  32.9098008  47.8187255
  69.2821979  32.4092951  49.8699340  70.2731743  32.0494949  49.0591270
  66.3504482  34.0993586  49.2199510  66.8304873  34.7296403  50.1830769
  65.6513691  34.6606851  48.2237131  65.2497965  34.0361090  47.5390646
  65.4316187  36.1108860  48.0617007  64.3969036  36.2718433  47.7591176
  65.6087247  36.5964853  49.0213497  66.3574921  36.7271796  47.0142965
  66.3278573  37.9757552  46.9113458  67.1637437  35.9142224  46.2945959
  67.1943659  34.9479745  46.5870451  67.9798767  36.3236431  45.0998463
  68.7339965  37.0529310  45.3957210  68.6910387  35.0963475  44.4988162
  67.8510764  34.4370941  44.2798472  69.1898268  35.3695625  43.5689431
  69.6970316  34.3618399  45.4298376  69.7694286  34.7054894  46.6382120
  70.4985492  33.4885797  44.8604272  67.0269954  36.9176093  44.0203013
  66.1770328  36.1617194  43.6092490  67.2086200  38.1696679  43.5473408
  67.8839524  38.7481444  44.0262880  66.3856411  38.7908097  42.4580063
  65.3338974  38.5841231  42.6560343  66.5672701  40.3131375  42.3008218
  67.6265374  40.5512687  42.3974944  66.0698568  40.7787420  40.9619292
  65.0104725  40.5413559  40.8646986  66.2095195  41.8563802  40.8765431
  66.6281591  40.2767947  40.1717084  65.8431644  41.1260420  43.3660453
  66.2210900  40.8532562  44.3513687  66.0153777  42.1883035  43.1927166
  64.7740841  40.9191420  43.3174588  66.6554107  38.0385898  41.1413667
  67.8097314  37.8058358  40.8065065  65.6207430  37.6036190  40.4361766
  64.6935901  37.7795334  40.7960946  65.7560605  36.7524746  39.2480422
  66.5635494  36.0347982  39.3929613  64.4600890  35.9854638  39.0041197
  64.7210363  35.1234434  38.3901763  64.1134813  35.6445035  39.9796756
  63.3793245  36.7598294  38.3371714  63.2258829  37.7095670  38.8495727
  63.6389954  36.9474859  37.2953181  62.0980919  35.9355918  38.4007661
  61.9612578  35.5536764  39.4124558  61.2483493  36.5630434  38.1318023
  62.1548847  34.8238643  37.4929249  63.0700043  34.6038879  37.1265019
  61.1338108  34.1103077  37.0922578  59.9031468  34.3445082  37.5504249
  59.7491723  35.0852029  38.2195760  59.1309316  33.7800706  37.2260893
  61.3716909  33.1309186  36.2426484  62.3155789  32.9578490  35.9276523
  60.6089650  32.5581201  35.9106096  66.2364712  37.6271764  38.0954945
  65.9050111  38.7946365  38.0049841  67.1274858  37.0918630  37.2368761
  67.8566649  35.8487576  37.4340279  67.1755288  35.0090147  37.2962392
  68.2591402  35.8270636  38.4467678  68.9522231  35.8944362  36.3737187
  69.1353359  34.8923392  35.9859425  69.8712392  36.2894660  36.8066879
  68.4202583  36.8209766  35.2900872  67.7884742  36.2302472  34.6267723
  69.1753984  37.3428470  34.7022826  67.5722365  37.8244737  36.0525876
  68.1552129  38.6922659  36.3610895  66.3618799  38.2857746  35.2503861
  65.4551815  37.4810268  34.9519168  66.3176844  39.5574587  34.8279640
  67.2960969  40.6330378  35.1063948  68.2921078  40.3014936  34.8128971
  67.2892592  40.8619153  36.1720718  66.7910204  41.8001110  34.2559198
  67.3136088  41.8085749  33.2994007  66.9745206  42.7392242  34.7779308
  65.2869281  41.5615335  34.0704366  64.9736536  41.9492289  33.1010809
  64.6563728  41.9856976  34.8518356  65.1763437  40.0445013  34.0808095
  64.2621619  39.7286442  34.5834070  65.1921501  39.4889356  32.6571940
  66.2548073  39.3148551  32.0408268  64.0058350  39.3919457  32.0730987
  63.1596715  39.5351456  32.6056402  63.8838424  39.0786694  30.6397715
  64.5553587  38.2596076  30.3822779  62.4526267  38.6609489  30.3034677
  61.7795223  39.4284453  30.6855398  62.3637549  38.6079053  29.2183925
  62.0843801  37.3227404  30.9052553  62.6529496  36.5422181  30.3996719
  62.3422831  37.3313010  31.9642713  60.6071989  37.0501428  30.7494273
  60.3151178  37.2074952  29.7111461  60.3947998  36.0195740  31.0338809
  59.8384800  37.9201915  31.5771088  60.3303810  38.6035844  32.1348784
  58.5000385  37.9046877  31.6193796  57.8372335  37.0760777  30.8292524
  58.3437969  36.4654905  30.2042109  56.8277186  37.0578973  30.8547251
  57.8853274  38.6736948  32.4667893  58.4194394  39.2715413  33.0811215
  56.8761495  38.6701588  32.5073620  64.2442696  40.3175191  29.8215384
  64.0767987  41.4112715  30.3054736  64.6959008  40.1136188  28.5891907
  64.8595594  39.1649482  28.2836757  65.0429964  41.2163134  27.6678991
  65.6996025  41.9283241  28.1679075  65.7588492  40.6648397  26.4652280
  65.1105176  39.9569767  25.9488017  66.0165827  41.4804027  25.7895576
  66.6688759  40.1569844  26.7846551  63.7817171  41.9822785  27.2832304
  63.8545991  43.1693739  27.1047317  62.6677760  41.2728529  27.1477001
  62.7410404  40.2789268  27.3115370  61.3388886  41.8300177  26.7637744
  61.2771889  42.9097325  26.8998189  60.9727567  41.4952540  25.3017195
  61.0703111  40.4205471  25.1481371  59.5383000  41.9241121  25.0001742
  59.4400773  42.9988527  25.1530989  59.2957557  41.6811805  23.9656419
  58.8538398  41.3988140  25.6662656  61.9499374  42.1031883  24.3086355
  62.9514647  41.7188954  24.5019335  61.6495460  41.8393553  23.2946055
  61.9505000  43.1878628  24.4162540  60.3069391  41.2283652  27.7054880
  60.3111364  39.9971360  27.8840299  59.3837208  42.0536384  28.1999908
  59.4643587  43.0431086  28.0141263  58.2685574  41.5899923  29.0446339
  58.0924750  40.5226831  28.9106744  58.5379860  41.8516488  30.4908836
  58.7073005  42.9177064  30.6423887  57.6811216  41.5324565  31.0841794
  59.4223578  41.2959286  30.8025900  57.0118344  42.3113385  28.5813434
  56.9817546  43.5393866  28.7176634  56.1064142  41.5686231  27.9636371
  56.2795684  40.5763114  27.8899184  54.8633675  42.1070687  27.3791098
  55.0867651  42.9874827  26.7765620  54.3882927  41.3507874  26.7542564
  53.9196857  42.4948050  28.4787908  53.2982909  41.5712384  29.0382451
  53.7527292  43.7922110  28.6931764  54.2897441  44.4103014  28.1018402
  52.8823531  44.3953141  29.7373201  53.1036716  43.9458114  30.7053411
  53.1178677  45.8893949  29.8319599  54.1709088  45.9741275  30.1003327
  52.9168292  46.5026955  28.9535831  52.3330105  46.4936479  30.9687922
  52.5381855  46.0472039  32.2647011  53.2889230  45.2783421  32.4473062
  51.7983553  46.5687208  33.3299980  52.0173606  46.2636998  34.3532768
  50.7902051  47.4706345  33.0821673  50.1866642  47.8523533  33.9056532
  50.5418373  47.8935096  31.7884691  49.7710746  48.6418898  31.6042078
  51.2707149  47.3680918  30.7245225  51.0127072  47.6388720  29.7007012
  51.4009191  44.1418142  29.4577416  50.9732942  44.3950088  28.3342152
  50.6389977  43.6920717  30.4639699  51.0704599  43.4989568  31.3565204
  49.1842769  43.4033429  30.3044928  48.8814932  43.7125015  29.3040718
  48.8304704  41.9142057  30.4881021  49.0958699  41.6691402  31.5165014
  47.7493303  41.8472867  30.3666190  49.5084129  40.9338770  29.5423361
  50.5822389  41.0865645  29.6504338  49.2474841  39.9337994  29.8885485
  49.1234216  41.0796013  28.0897466  49.5926525  41.9835966  27.7015278
  49.5020470  40.2129119  27.5479056  47.6827230  41.1718617  27.8760421
  47.2729377  42.0912781  27.9587996  46.8815325  40.1390070  27.5848052
  47.3740427  38.9135171  27.4742648  48.3622469  38.7555132  27.6106002
  46.7588858  38.1432878  27.2542001  45.5862986  40.3432387  27.4036965
  45.2089716  41.2764845  27.4860171  44.9813139  39.5648838  27.1840242
  48.3600131  44.2458560  31.2967663  47.1743699  44.1651053  31.1961054
  48.9656398  45.1083343  32.1097538  49.9690923  45.1958526  32.0354380
  48.2567329  45.9461391  33.1154292  47.4988424  45.3163861  33.5813824
  48.9925205  46.2419191  33.8632461  47.5771278  47.2158252  32.5476915
  47.1659393  47.2151919  31.3714753  47.4074979  48.2611047  33.3814148
  47.8021993  48.2137721  34.3098919  46.5366654  49.4087852  33.0474477
  45.9493893  49.1478533  32.1670384  45.5775255  49.7123216  34.2035949
  46.1776197  49.7510462  35.1127085  44.8060509  51.0042093  34.0538812
  44.2053199  50.9660443  33.1451649  44.1523514  51.1395782  34.9155374
  45.5035863  51.8395668  33.9928671  44.6280786  48.6528873  34.2230791
  44.0009084  48.7983264  34.9351923  47.4144519  50.5745472  32.6153460
  48.3559316  50.9684610  33.3636327  47.0906487  51.1492548  31.4705720
  46.2982597  50.8256761  30.9343670  47.9377363  52.2311260  30.8959048
  48.9880357  51.9635238  30.7803223  47.3866357  52.6486204  29.5313197
  46.2987773  52.6232086  29.5947037  47.8362321  54.0342237  29.0990518
  48.9240364  54.0602831  29.0349911  47.4096459  54.2672936  28.1234479
  47.4979873  54.7704593  29.8281946  47.7514567  51.5968426  28.4898461
  47.3213733  50.6370069  28.7759329  47.3582926  51.8953778  27.5180445
  48.8359261  51.5050447  28.4298451  47.9915185  53.3903122  31.9076008
  49.0734635  53.9001078  32.1548366  46.8726218  53.7516715  32.5288468
  46.0304460  53.1951449  32.4954181  46.8312977  55.0404304  33.2456026
  47.0688341  55.8490210  32.5543307  45.4549176  55.2943432  33.8348088
  44.7293117  55.3153251  33.0216944  45.2140245  54.4774401  34.5150586
  45.4078079  56.6039589  34.5848890  46.0380018  56.5182782  35.4701096
  45.7980799  57.3881848  33.9362136  44.0163193  56.9469373  34.9970470
  43.5196683  56.0652433  35.4020807  44.0344115  57.7323677  35.7526072
  43.2722645  57.4140405  33.8681134  43.7361052  57.4393385  32.9712794
  41.9948704  57.7397529  33.9257036  41.3716868  57.6901317  35.0951581
  41.8775782  57.4059384  35.9218431  40.3940180  57.9367576  35.1538015
  41.3885578  58.1821092  32.8375828  41.9056828  58.2669747  31.9741711
  40.4109673  58.4331949  32.8746161  47.8953399  55.0826755  34.3527785
  48.5119975  56.1437005  34.5727411  48.0809686  53.9931516  35.1186119
  47.6172661  53.1296597  34.8747656  48.9258417  54.0164115  36.3298238
  49.1773564  55.0460985  36.5839582  48.1856193  53.3858616  37.5155483
  48.0954143  52.3025327  37.4357932  48.8706539  53.6341891  38.3262030
  46.8416434  53.9782346  37.7997616  46.7092016  55.1901184  38.4588479
  47.6001775  55.6905459  38.8381020  45.4616925  55.7662464  38.6380314
  45.3795161  56.7040907  39.1873918  44.3298623  55.1576616  38.1406433
  43.0743776  55.7044441  38.2881056  43.0816566  56.5372297  38.7656146
  44.4547404  53.9607753  37.4561233  43.5720036  53.4500957  37.0713085
  45.7079202  53.4143629  37.2621470  45.8211930  52.5081108  36.6671878
  50.2262386  53.2553301  36.0756663  51.0399752  53.1219499  37.0061196
  50.4577840  52.8197925  34.8439753  49.7694399  52.9559523  34.1175165
  51.6801470  52.0080095  34.5235601  51.7979621  51.2493072  35.2972457
  51.5081385  51.3197700  33.1979966  51.3980508  52.0666819  32.4118012
  52.3827310  50.7026345  32.9922487  50.6187508  50.6903133  33.2275435
  52.9360808  52.8793876  34.5872121  52.9447795  54.0224528  34.1074630
  54.0501133  52.3431214  35.0676453  54.0151637  51.4488694  35.5358239
  55.3418680  53.0539403  35.0127958  55.1825406  54.1000494  35.2742718
  56.3473793  52.4710306  35.9601824  57.0668973  53.2331469  36.2594678
  55.8459576  52.0781726  36.8446816  57.0178010  51.4280439  35.3004625
  57.6674935  51.0408113  35.8916904  55.8932982  53.0563297  33.5699375
  55.3886685  52.3387578  32.6758098  56.8789715  53.9050777  33.3496651
  57.1093372  54.5862856  34.0588807  57.6121942  53.9559583  32.0610602
  56.9576008  54.2208261  31.2307279  58.7616643  54.9740279  32.1522452
  59.3765581  54.7423381  33.0219152  59.6106681  54.9129561  30.9054065
  58.9965252  55.1450043  30.0353014  60.4211232  55.6378822  30.9812043
  60.0282127  53.9118249  30.7982064  58.2310802  56.3894477  32.3789881
  57.8836425  56.7634009  31.4158958  57.3870489  56.3131543  33.0644733
  59.2716084  57.3547653  32.9560609  60.1157913  57.4319377  32.2708605
  58.8211302  58.3383784  33.0890037  59.6191995  56.9816896  33.9194377
  58.0939368  52.5433096  31.7179350  57.9875823  52.1456292  30.5520053
  58.5677606  51.7577921  32.6936677  58.6704201  52.1036347  33.6370410
  59.1442779  50.4332794  32.3644990  59.8570251  50.5398006  31.5467314
  59.8660145  49.8363839  33.5639794  59.2745199  49.5719368  34.4405073
  60.3091613  48.9352988  33.1399906  60.9804620  50.7671322  33.9949635
  61.7692655  51.2189378  33.1505532  60.9439002  51.2179142  35.2407628
  61.6671316  51.8410555  35.5705066  60.1929738  50.9362188  35.8546505
  58.0858254  49.5431872  31.7312313  58.4267734  48.8555077  30.7622255
  56.8415886  49.5579921  32.2223583  56.6743057  50.0668486  33.0786181
  55.7163917  48.8149673  31.6177327  55.9601722  47.7535378  31.5725940
  54.4639262  48.9881392  32.4463404  54.2019064  50.0451399  32.4931915
  53.6456516  48.4313966  31.9896516  54.6398573  48.6129236  33.4544876
  55.5039655  49.2844507  30.1769907  55.3158568  48.4378289  29.2905103
  55.4763750  50.5980049  29.9391416  55.5042436  51.2102587  30.7419292
  55.3251306  51.2104336  28.5878111  54.3824492  50.8985687  28.1381543
  55.3297295  52.7394805  28.7056088  56.0460076  53.0922026  29.4476547
  55.5589142  53.1872326  27.7386070  54.0023785  53.2650512  29.1131390
  52.9702624  53.3339602  28.2098490  51.9008796  53.8070002  28.8169962
  50.9660106  53.9426935  28.2732074  52.2128919  54.0430909  30.0867267
  51.5839262  54.3780921  30.8024614  53.5445046  53.7563255  30.2778240
  54.0089457  53.9439890  31.2459036  56.4180112  50.7103776  27.6451270
  56.1141003  50.5118250  26.4503250  57.6075247  50.4552424  28.1799108
  57.7244651  50.5884023  29.1742410  58.8036459  50.0744037  27.3711469
  58.6938226  50.4271725  26.3456753  60.0509329  50.7101077  27.9739641
  60.0926356  50.4494486  29.0315164  60.9245111  50.3026130  27.4651330
  60.0382653  52.2241230  27.8253094  59.7584937  52.4313273  26.7924032
  59.2603110  52.5941459  28.4931209  61.3442809  52.9159603  28.1416409
  62.0773548  52.6654500  27.3748644  61.1850295  53.9942053  28.1528737
  61.8650741  52.5096990  29.4328075  61.5578141  51.6115726  29.7778576
  62.7353666  53.2075105  30.1624231  63.1646057  54.3899245  29.7445323
  62.8302029  54.7642553  28.8680899  63.8240977  54.9111046  30.3044799
  63.1351813  52.7275135  31.3308858  62.7788469  51.8407768  31.6577251
  63.7944404  53.2505722  31.8893532  58.9305817  48.5541419  27.2562533
  59.8830329  48.1222116  26.6103377  58.0031783  47.7992517  27.8211841
  57.3043315  48.2734462  28.3751264  57.9998343  46.3129406  27.8044510
  57.2387602  45.9459356  28.4930531  57.6970878  45.7712502  26.4083403
  58.3907397  46.2576566  25.7225159  57.8403946  44.6916136  26.3642045
  56.2821313  46.0898584  25.9723678  55.3000781  45.7484459  26.6457170
  56.1612455  46.7002986  24.8112014  55.2439160  46.9405928  24.4635449
  56.9864582  46.9251728  24.2740271  59.3261185  45.8132864  28.3919345
  59.9201435  44.8665032  27.8577830  59.7606975  46.4698913  29.4422926
  59.3023765  47.3391369  29.6756446  60.8994446  46.0461104  30.2563816
  61.5659383  45.4263902  29.6565215  61.6820167  47.2479392  30.7685078
  60.9803156  47.9207652  31.2614784  62.4117944  46.8893898  31.4944326
  62.4019381  47.9947303  29.6509953  63.2060415  47.3492765  29.2975719
  61.6804190  48.1479829  28.8484831  62.9766866  49.3309075  30.0748840
  63.3174425  49.8387179  29.1726019  62.1677600  49.9027747  30.5295324
  64.0859571  49.2599075  31.0180845  63.8472539  49.3391548  31.9962665
  65.3846318  49.1533288  30.6804505  65.7486931  49.0238972  29.4113481
  65.0452724  49.0047071  28.6868268  66.7276082  48.9451410  29.1755045
  66.3082426  49.1200227  31.6255615  66.0351639  49.1746947  32.5964060
  67.2827410  49.0400589  31.3724659  60.3600490  45.1928916  31.4006071
  59.1524734  45.3657337  31.8443502  61.2322095  44.3735176  31.9436174
  62.1401776  44.2341183  31.5237828  60.8917877  43.5947282  33.1364507
  59.9893794  43.0147149  32.9432071  62.0097555  42.6407968  33.5138044
  62.3431153  42.1263498  32.6125194  62.8346536  43.2219785  33.9259586
  61.5519663  41.6249753  34.5324921  62.4420997  41.2078896  35.0034515
  60.9390171  42.1174225  35.2874015  60.7595710  40.5170443  33.8868230
  61.3979135  39.6649689  33.2103466  59.5037676  40.5198829  34.0406800
  60.5885013  44.5510411  34.2642605  61.4069810  45.3773068  34.5743670
  59.4133168  44.4005968  34.8810634  58.7574420  43.6933746  34.5814564
  59.0145483  45.3031900  35.9590000  59.3475756  46.3178391  35.7406444
  57.4871120  45.3077518  36.0970276  57.1282377  44.2785297  36.0938291
  57.2182772  45.7827978  37.0405101  56.8460878  46.0740436  34.9403657
  57.0036083  47.1431064  35.0831696  57.3040135  45.7620346  34.0017196
  55.0929656  45.7424587  34.8768363  54.5876568  46.8151622  36.2241437
  54.8681879  47.8433172  35.9954545  53.5069519  46.7538956  36.3522997
  55.0805147  46.5006671  37.1440813  59.7105456  44.8707954  37.2509084
  60.0031606  43.7093362  37.4339663  59.9434858  45.8318623  38.1214372
  59.6803513  46.7742059  37.8707422  60.5651542  45.6073540  39.4369353
  60.7076805  44.5353782  39.5735124  61.5338421  46.1068908  39.4512922
  59.7188085  46.1406976  40.5737135  58.6054490  46.6322147  40.3286695
  60.2671017  46.0797891  41.7962860  61.1830555  45.6672989  41.9010707
  59.5678813  46.5450102  43.0068847  58.6369156  45.9928330  43.1353464
  60.4351702  46.3206621  44.2259589  61.3916310  46.8092363  44.0400093
  59.9407820  46.8005360  45.0705898  60.6719328  44.8389469  44.5467650
  59.7913212  44.4911039  45.0867920  60.7404442  44.3189618  43.5912422
  61.9320278  44.5481308  45.3799346  61.9753803  45.2358619  46.2244732
  61.8948450  43.5229704  45.7483951  63.1357453  44.7130202  44.5830477
  62.9434523  45.1766185  43.7065779  64.4574414  44.3181344  44.8575575
  64.7451599  43.6793909  45.9386189  64.0148074  43.4575130  46.6000231
  65.6997290  43.4035022  46.1196794  65.4387781  44.5980349  44.0332620
  65.2493516  45.1072892  43.1818645  66.3791950  44.3029800  44.2538465
  59.2215857  48.0363554  42.8185769  58.1411510  48.4934229  43.2625164
  60.1092928  48.8039119  42.2481893  60.9864354  48.3876459  41.9699036
  59.9476518  50.2683757  42.0966113  59.6613951  50.7030514  43.0543239
  61.2456106  50.9212701  41.6336537  61.0355842  51.9870927  41.5441528
  62.0781156  50.7720134  42.3212276  61.7092023  50.4674162  40.3020226
  61.8211151  49.1468649  39.9541996  62.2100799  49.0499961  38.6982686
  62.3385469  48.0772492  38.2235490  62.3825429  50.2874793  38.2229372
  62.7251845  50.5343845  37.3054763  62.0174694  51.1783862  39.1864137
  62.0165230  52.2464640  38.9689046  58.7676664  50.5917884  41.1668347
  58.1797273  51.6540050  41.3402493  58.4284501  49.7248165  40.2141322
  58.9957597  48.9011866  40.0730897  57.3287603  49.9931904  39.2567630
  57.4114915  51.0164751  38.8905074  57.3809153  49.0542297  38.0786940
  57.3070024  47.9949528  38.3248010  56.4914942  49.3618673  37.5287948
  58.6131045  49.2898800  37.2209773  58.8098981  50.4584362  36.8290491
  59.4516549  48.3836989  37.0820280  55.9952738  49.9675294  40.0112889
  55.0919817  50.7466955  39.6780193  55.8674661  49.1227868  41.0444400
  56.5835142  48.4346480  41.2283950  54.6668825  49.1307644  41.9040337
  53.7852495  49.0954068  41.2640554  54.6121156  47.9492820  42.8789665
  55.5811475  47.9286632  43.3776160  53.8304186  48.1446588  43.6130495
  54.3578111  46.6118404  42.2149340  53.8379569  46.5807166  41.0897385
  54.6634266  45.5625188  42.8600364  54.6160594  50.4358237  42.6804474
  53.5050669  50.9653870  42.8904199  55.7597786  50.9894237  43.0835682
  56.6393271  50.5207416  42.9197669  55.7731437  52.2655632  43.8386625
  54.9798572  52.2798115  44.5860531  57.1254145  52.3973218  44.5555429
  57.8536091  52.3143235  43.7487325  57.2095937  53.3795119  45.0206415
  57.3955404  51.3195534  45.5949198  57.1764101  50.3463359  45.1556814
  58.8749490  51.3554168  46.0595422  59.0947160  52.3282357  46.4993431
  59.0420664  50.5753550  46.8022911  59.5291866  51.1878992  45.2039655
  56.4485046  51.4390228  46.7847984  55.4188850  51.3364402  46.4420744
  56.6705336  50.6532616  47.5068675  56.5784288  52.4128551  47.2568888
  55.5088584  53.4489606  42.9059553  54.8805126  54.4258174  43.3633822
  55.9394351  53.4180923  41.6368565  56.6227712  52.7253767  41.3661237
  55.5151791  54.4224248  40.6259243  55.7999934  55.4216708  40.9552985
  56.1847765  54.1421397  39.2819832  56.3549079  53.0687966  39.1977863
  55.6044645  54.4857730  38.4256806  57.5201840  54.7944942  39.1812497
  58.7540984  54.2116446  39.2152891  58.7798800  53.1258156  39.3069980
  59.7369930  55.1682765  39.1219748  60.7222143  54.9842650  38.9971615
  59.1513661  56.3981718  39.0890584  59.7316959  57.6675672  38.9453204
  60.8157584  57.7598573  38.8790643  58.8692316  58.7284746  38.8973663
  59.2875713  59.7343315  38.8607086  57.4837339  58.5720574  38.8936576
  56.8207692  59.4313217  38.7924545  56.9114681  57.3243402  39.0180559
  55.8252056  57.2500797  39.0692400  57.7540003  56.2127823  39.0883087
  53.9842059  54.4169330  40.5306765  53.3759720  55.4942240  40.4637624
  53.3709309  53.2507430  40.4253738  53.9062966  52.3943705  40.4149366
  51.9024805  53.1634008  40.2475402  51.6008420  53.7766332  39.3983880
  51.4700629  51.7322612  39.9898984  51.8431492  51.1055062  40.7998885
  50.3807712  51.6958265  39.9752025  51.9709515  51.2605386  38.7640295
  51.6824103  50.3551496  38.6275943  51.2318515  53.7472677  41.4921933
  50.2326067  54.4713484  41.3634809  51.7627483  53.4678418  42.6896171
  52.5287081  52.8148287  42.7731561  51.2225744  54.0871551  43.9343441
  50.1661250  53.8461164  44.0523025  51.9820045  53.5421329  45.1332293
  51.6373823  52.5138168  45.2423200  53.0482276  53.5453665  44.9068273
  51.7374786  54.2974978  46.4274666  52.0305063  55.3389104  46.2944431
  50.2581879  54.2291999  46.8062835  49.9645179  53.1880500  46.9399385
  50.0951208  54.7743794  47.7359550  49.6585510  54.6763978  46.0134720
  52.6058270  53.7235662  47.5287093  53.6555224  53.8167066  47.2502065
  52.4264666  54.2691516  48.4551367  52.3610057  52.6714094  47.6740627
  51.3693376  55.6159040  43.8424677  50.3984350  56.3221522  44.1158296
  52.5122112  56.1337033  43.3701894  53.2765255  55.5219579  43.1218135
  52.7174668  57.5898025  43.2584974  52.5872710  58.0462106  44.2397415
  54.1146445  57.9255154  42.7462199  54.8583359  57.4507165  43.3862109
  54.2422607  57.5769193  41.7213810  54.4264540  59.3955665  42.7422713
  54.6474219  60.0857434  43.9232518  54.6104985  59.5591373  44.8768883
  54.9161557  61.4494494  43.8921700  55.0656023  61.9805108  44.8322446
  54.9940716  62.1242717  42.7062286  55.2232398  63.1898452  42.6946131
  54.7826018  61.4554437  41.5276991  54.8482271  61.9835145  40.5764186
  54.4831487  60.0967633  41.5500022  54.2882667  59.5662636  40.6179662
  51.6365874  58.1756044  42.3331855  50.9852880  59.1411691  42.7184347
  51.3691834  57.5488449  41.1779714  51.9416206  56.7634995  40.9029305
  50.3361139  58.0227281  40.2401125  50.5066567  59.0735810  40.0061841
  50.3765127  57.2283992  38.9534873  50.3890300  56.1941267  39.2973231
  49.4782192  57.4030259  38.3613097  51.5956265  57.4907093  38.1059827
  52.2497807  58.7096397  38.1116443  51.8736716  59.4988900  38.7625862
  53.3660332  58.9406471  37.3095346  53.8988855  59.8892262  37.3756253
  53.7659020  57.9889099  36.3999835  54.8190064  58.2098174  35.5437784
  55.2202753  59.0744233  35.6579693  53.1280268  56.7731780  36.3800823
  53.4825424  55.9945205  35.7047219  52.0383063  56.5301692  37.2116543
  51.5198979  55.5724837  37.1648422  48.9487587  57.9766579  40.9119667
  48.1595278  58.9149154  40.7533967  48.6656916  56.9045703  41.6604446
  49.2996116  56.1199662  41.7118373  47.3684203  56.8149321  42.3920710
  46.5585451  56.9278727  41.6713451  47.1818039  55.4868519  43.1344639
  48.0760192  55.3137218  43.7332161  46.3195486  55.5937482  43.7926349
  46.9772648  54.3887043  42.2634367  46.1797860  54.6182751  41.5567362
  47.8950461  54.1717651  41.7168866  46.4944103  52.8941874  43.2681420
  45.1952449  53.4669794  44.2199926  44.3908194  53.8097291  43.5692075
  44.8285116  52.6622132  44.8571415  45.5367977  54.2947656  44.8414530
  47.2495033  57.9733599  43.3819406  46.1371293  58.5668058  43.4267976
  48.2702091  58.2531753  44.1699609  49.1211798  57.7162075  44.0827044
  48.2150091  59.3287900  45.2033979  47.3914952  59.1251315  45.8878299
  49.5018375  59.4081927  46.0032310  50.2708062  59.6355777  45.2649341
  49.3805695  60.2584188  46.6744312  49.9111104  58.1987266  46.7961776
  49.8448065  57.3038484  46.1773903  51.3496936  58.3948482  47.2511772
  51.4167099  59.2893431  47.8704401  51.6696853  57.5282399  47.8297064
  51.9947400  58.5076622  46.3798056  49.0114131  58.0276543  47.9742829
  47.9844473  57.8994049  47.6322407  49.3174786  57.1484354  48.5412038
  49.0741794  58.9099826  48.6111943  47.9719216  60.6782447  44.5209938
  47.1788620  61.4732379  44.9943587  48.6644601  60.9345417  43.4106748
  49.3699937  60.2878587  43.0879943  48.5058526  62.2102458  42.6924103
  48.5726280  63.0835737  43.3412082  49.5788999  62.3301353  41.5935395
  49.5825946  61.4110688  41.0075340  49.2985164  63.5063768  40.6843619
  49.2951215  64.4259224  41.2696185  50.0717094  63.5666423  39.9184369
  48.3264153  63.3752393  40.2090473  50.9415268  62.4234651  42.2582186
  51.1179545  61.5277733  42.8537953  51.7140380  62.5090090  41.4940142
  50.9717903  63.3006811  42.9044981  47.0803749  62.2829616  42.1827880
  46.4341621  63.3489859  42.3040618  46.5653716  61.2092618  41.5968927
  47.1214506  60.3868699  41.4110244  45.1672541  61.2363628  41.1092866
  45.0269957  62.0908769  40.4472953  44.8398308  59.9763627  40.3461910
  45.6933239  59.7231384  39.7172823  44.6672883  59.1742665  41.0638056
  43.6184105  60.1507117  39.4865511  42.8116126  60.4437816  40.1583309
  43.7929754  60.9451384  38.7609392  43.2352968  58.8873851  38.7642418
  43.1246655  57.8409204  39.4805582  43.0896383  58.9294798  37.5161289
  44.1731901  61.4609852  42.2688799  43.2011982  62.2042353  42.1025934
  44.4216477  60.8730231  43.4277734  45.1629370  60.1899926  43.4914824
  43.5856561  61.1215750  44.6337726  42.5542388  60.8293363  44.4366075
  44.1043872  60.3100056  45.8133547  45.1862711  60.4285656  45.8731057
  43.6462326  60.6963157  46.7238266  43.8328808  58.8229231  45.7898881
  43.1031441  58.2383670  44.7930829  42.7266684  58.8632170  43.9831888
  42.8388201  56.8771038  44.7988549  42.2392846  56.4293899  44.0062578
  43.3280462  56.1058152  45.7925126  43.1156532  55.0367157  45.7964407
  44.0822223  56.6540637  46.7856465  44.4868475  56.0190954  47.5738050
  44.3350710  58.0151263  46.7950823  44.9311050  58.4531870  47.5956735
  43.5263725  62.6155620  44.9756592  42.4606467  63.1200235  45.2329373
  44.6629096  63.3183266  44.9804643  45.5378648  62.8635509  44.7619882
  44.7010257  64.7245109  45.4714247  43.9095179  64.9317394  46.1916129
  46.0468754  65.0866943  46.1057508  46.0263944  66.1249752  46.4368890
  46.2973843  64.1974788  47.2752389  46.3184656  63.1589892  46.9447909
  47.2550561  64.4535178  47.7284597  45.5021037  64.3286583  48.0090116
  47.1934387  65.0450473  45.1743088  47.0266978  65.7504469  44.3602381
  48.1051559  65.3149591  45.7072431  47.2953432  64.0389732  44.7674534
  44.2775439  65.6939599  44.3859839  43.5762621  66.6542052  44.7444289
  44.6338431  65.4535872  43.1177809  45.1430561  64.5975385  42.9505024
  44.4029620  66.3709203  41.9724827  44.2410641  67.4062543  42.2724355
  45.6075747  66.3195937  41.0040329  45.7551522  65.2834314  40.6995862
  45.3901570  67.1742435  39.7846231  45.2429545  68.2106974  40.0882606
  46.2615709  67.1072621  39.1332768  44.5082407  66.8246851  39.2478417
  46.8852928  66.7206911  41.7298892  47.0643785  66.0343186  42.5574901
  47.7255234  66.6803025  41.0367219  46.7815760  67.7348755  42.1156012
  43.0900094  66.0139327  41.2600747  42.4476768  66.9211275  40.7146947
  42.6983826  64.7383370  41.2479836  43.2726331  64.0455192  41.7066112
  41.4642281  64.2953892  40.5946239  41.0185006  63.5059909  41.1998317
  40.7798239  65.1420692  40.5414898  41.7048458  63.7672019  39.1947642
  40.7694590  63.2557613  38.5962919  42.8998282  63.9548391  38.6578970
  43.5956463  64.4561874  39.1913634  43.2539554  63.5016874  37.2898373
  42.8827055  62.4864279  37.1501204  42.6595011  64.3898312  36.2075348
  42.9828356  63.9847028  35.2486683  41.5754605  64.3096330  36.2883078
  43.0607805  65.8262239  36.3018218  42.9990586  66.1088484  37.3527331
  44.0830253  65.9624876  35.9489058  42.1489419  66.7316454  35.5033463
  41.3354052  66.3051138  34.6788253  42.3039198  68.0153893  35.7079054
  41.7274445  68.6766207  35.2073551  42.9992351  68.3385699  36.3653188
  44.7616374  63.4697621  37.1517323  45.4703036  63.9642637  38.0247949
  45.1965563  62.6822930  36.1989900  44.5223783  62.0691959  35.7634498
  46.5991865  62.5934966  35.7687382  47.2586151  63.0680840  36.4953879
  46.9775507  61.1126625  35.6579956  46.1667889  60.6383868  35.1049792
  47.9055659  61.0174303  35.0942415  47.1342241  60.4323168  37.0119351
  46.3082962  60.7270295  37.6593054  47.1283835  58.9157977  36.8387884
  47.9543671  58.6202622  36.1918658  47.2409005  58.4380296  37.8120193
  46.1857058  58.6046042  36.3886576  48.3950660  60.8497648  37.7244180
  48.3797715  61.9270038  37.8900130  48.4579920  60.3360774  38.6837234
  49.2605733  60.5885420  37.1155184  46.7595710  63.3408414  34.4458865
  45.8227973  63.5094610  33.6738506  47.9945466  63.7493635  34.1132066
  49.1792150  63.5869423  34.9550695  49.6543825  62.6222442  34.7770983
  48.9220319  63.6754782  36.0105870  50.0228152  64.7527360  34.4642286
  51.0803826  64.5500803  34.6332872  49.7408101  65.6674661  34.9856147
  49.7097024  64.8537888  32.9916409  50.2353682  64.0818958  32.4295415
  49.9403356  65.8314157  32.5683754  48.2104580  64.6042951  32.9346735
  47.6203744  65.5090836  33.0804727  47.8177995  63.9479909  31.6082799
  47.5036549  64.6384391  30.6851719  47.8511445  62.6064865  31.5891180
  48.1759534  62.1634081  32.4366321  47.5507654  61.7533685  30.4256319
  47.5398920  62.3538315  29.5160028  48.6083521  60.6760252  30.2824863
  48.3467083  59.8761919  29.5897320  49.5136230  61.1744983  29.9359185
  48.9517524  60.0205464  31.5832122  48.3756252  58.9189316  32.1398883
  47.5782042  58.4439309  31.5684045  48.9512258  58.6389219  33.3486797
  48.6628360  57.8988658  33.9725769  49.9853905  59.4982420  33.5656552
  50.8920441  59.5794366  34.6121864  50.7914204  58.8923356  35.4523446
  51.8746295  60.5398080  34.5160578  52.6269388  60.6223718  35.3004773
  51.9296206  61.4108646  33.4363308  52.7125639  62.1665982  33.3733542
  51.0108131  61.3511416  32.4228640  51.0790263  62.0998497  31.6336342
  50.0259050  60.3715817  32.4535984  46.1356641  61.1537306  30.5106538
  45.8211792  60.2702479  29.6516197  45.2579621  61.7862891  31.2923557
  45.5966370  62.5509662  31.8586309  43.8217536  61.3777647  31.4346587
  43.7787166  60.3892040  31.8918180  43.0241645  62.3562024  32.3064915
  43.4390932  62.3015121  33.3129419  43.1871623  63.3545979  31.9006120
  41.5269923  62.0664989  32.3575420  41.1518787  62.1983432  31.3426491
  41.4241853  61.0213507  32.6494292  40.7199058  62.9469121  33.3186945
  39.9724607  62.3359691  33.8248303  41.3921278  63.3836612  34.0572520
  40.0494616  64.0104169  32.6198905  40.3195147  64.9548002  32.8550731
  39.0659699  63.8300713  31.7286332  38.6283893  62.6067121  31.4502404
  39.0398155  61.8089802  31.9133303  37.8863678  62.4801825  30.7768208
  38.5654153  64.8650313  31.0819612  38.9260099  65.7912522  31.2613670
  37.8238619  64.7264904  30.4103931  43.1434106  61.2283698  30.0656124
  42.3919747  60.2500193  29.8999612  43.2973384  62.1702006  29.1145382
  43.9835721  62.9010221  29.2373498  42.4702974  62.1833027  27.8871453
  41.5175594  61.6879328  28.0742235  42.1959393  63.6206612  27.4553884
  43.1533208  64.0563045  27.1694952  41.5440734  63.5729928  26.5830934
  41.5458283  64.4841341  28.5277961  40.6329936  63.9916894  28.8629553
  42.2372993  64.5755276  29.3654221  41.2120373  65.8545564  28.0011907
  42.1379160  66.3121877  27.6527352  40.5294347  65.7312232  27.1603922
  40.5744052  66.7401073  29.0393809  40.0935690  66.1095296  29.7872236
  41.3533585  67.3365574  29.5143317  39.5743897  67.6324047  28.4349842
  38.8522770  67.0799160  27.9952011  39.1641234  68.2131537  29.1522792
  40.0198206  68.2170960  27.7422891  43.1682068  61.4416190  26.7396397
  42.5972334  61.3945562  25.6788318  44.3670543  60.9293617  26.9686947
  44.7677122  61.0212024  27.8912660  45.1790144  60.2548285  25.9057009
  44.8966688  60.5736928  24.9023536  46.6908230  60.4921548  26.1146126
  47.0041327  59.9910470  27.0304883  47.4853349  59.9446973  24.9409692
  47.1728861  60.4456905  24.0247366  48.5480277  60.1215009  25.1068767
  47.3058972  58.8735870  24.8481036  47.0226006  61.9649747  26.3665655
  46.5056093  62.2564502  27.2808209  48.0995028  62.0270041  26.5231974
  46.6283441  62.8815555  25.2595414  45.5514326  62.8204172  25.1026221
  46.8995106  63.9046051  25.5201896  47.1453248  62.5909694  24.3449975
  44.8459050  58.7523683  25.9431900  45.1184011  58.1478845  26.9627165
  44.3195606  58.2212469  24.8294519  44.2078470  58.8449414  24.0429249
  43.8605005  56.8066525  24.6827128  43.5278189  56.4212427  25.6464978
  42.6922278  56.7311040  23.6958859  43.0931959  57.0202161  22.7244241
  42.3849562  55.6857652  23.6650472  41.4898319  57.6034657  24.0281555
  41.6870975  58.5880636  23.6041813  40.6292611  57.1589557  23.5282247
  41.1999963  57.7398079  25.4994009  42.1498280  57.9178629  26.0035985
  40.5539852  58.6086830  25.6251983  40.5324756  56.5260409  26.0986696
  39.4991321  56.4863417  25.7541036  41.0607529  55.6329027  25.7650134
  40.5570847  56.5899781  27.5777289  40.0672505  57.4172849  27.8871244
  40.1062639  55.7699221  27.9576877  41.5145252  56.6263395  27.8972355
  45.0122282  55.9086194  24.2000214  45.1581450  54.8140661  24.7343474
  45.8600285  56.4129896  23.3194816  45.7355364  57.3789311  23.0519781
  46.9573036  55.6465215  22.6892688  46.5675760  54.6996437  22.3155925
  47.5731504  56.4097663  21.5290157  46.7576098  56.6376958  20.8426915
  48.0172549  57.3389426  21.8860907  48.6245707  55.5923093  20.8090841
  48.2514718  54.8573490  19.9214577  49.7825388  55.6751081  21.1770312
  48.0491806  55.3391922  23.7151247  48.6963463  56.2804230  24.2238252
  48.3204053  54.0609515  23.9383014  47.7833739  53.3644206  23.4417721
  49.2919987  53.6045986  24.9502709  49.0030688  53.9445563  25.9447796
  49.3167021  52.0751311  24.9445321  48.3253803  51.7543126  25.2646194
  49.4771558  51.7780048  23.9081583  50.3593700  51.4296806  25.8185905
  51.3437830  51.6240600  25.3928576  50.3021806  51.8674984  26.8151581
  50.1364898  49.9388156  25.9105413  49.6968365  49.7258070  26.8849289
  49.4342528  49.6565860  25.1261248  51.4063616  49.1524311  25.7519032
  51.9813421  49.5754477  24.9281588  51.9837234  49.2272239  26.6734012
  51.1120162  47.7286183  25.4682149  50.5773932  47.6590625  24.6141423
  51.9783787  47.2197322  25.3654972  50.5795978  47.3363369  26.2315923
  50.6703332  54.2370900  24.7011672  51.3540288  54.5599697  25.7223797
  51.1203715  54.3138026  23.4289715  50.4736995  54.0841432  22.6879106
  52.5207326  54.7395873  23.0516641  53.2368016  54.2458221  23.7085815
  52.8486482  54.3682589  21.6036864  52.5613563  53.3261354  21.4638967
  52.2380517  55.0023023  20.9608326  54.3135782  54.5421861  21.2417286
  54.6226026  55.5797777  21.3682527  54.8521512  53.9141125  21.9513496
  54.6289741  54.0874763  19.8186466  54.1819850  52.9751134  19.4446645
  55.2566950  54.8674084  19.0569792  52.7115595  56.3152031  23.1682365
  53.7116559  56.7504425  23.6093078  51.5836226  57.0063931  22.9907742
  50.8098855  56.5471242  22.5319689  51.4355576  58.4647809  23.3576523
  52.2545356  59.0551012  22.9466824  50.1215166  58.9739179  22.7657893
  49.9833842  58.4818081  21.8030606  49.3205330  58.6774735  23.4430234
  50.0897985  60.4771413  22.5736190  50.1340526  60.9914195  23.5336504
  50.9671029  60.7378237  21.9816024  48.8543745  60.9383422  21.8351562
  48.0507211  60.1390590  21.3411010  48.6615828  62.2465265  21.7962962
  47.8544446  62.6209638  21.3183568  49.3224167  62.8648235  22.2447476
  51.5196833  58.6523951  24.9021240  52.2808343  59.5186205  25.4070090
  50.7839812  57.8716755  25.6721242  50.0958193  57.2382390  25.2909539
  50.8872504  57.9930471  27.1449478  50.6726224  59.0067519  27.4832326
  49.9554900  57.0153368  27.8936208  50.1720566  55.9964691  27.5725182
  50.1755491  57.1311846  29.3928187  49.9587182  58.1497314  29.7147625
  49.5140559  56.4378925  29.9123119  51.2119389  56.8891417  29.6282187
  48.4849436  57.2382024  27.5351669  48.3448227  57.0893560  26.4645069
  47.8651389  56.5293298  28.0842037  48.1956817  58.2549318  27.8010422
  52.3472669  57.8070235  27.5407218  52.8586874  58.5552908  28.3949413
  52.9608963  56.7070866  27.0912145  52.4585832  56.0704403  26.4891661
  54.3521939  56.3838722  27.4419401  54.3979241  56.1752004  28.5108012
  54.6495553  55.4949128  26.8856787  55.3121796  57.5131205  27.1178711
  56.1975419  57.7883324  27.9523128  55.1415140  58.1313132  25.9596845
  54.4245411  57.7674408  25.3484185  55.9714551  59.2788092  25.4755236
  57.0211920  58.9870166  25.5072827  55.6353347  59.6880709  24.0912982
  54.5526767  59.7461043  23.9791241  56.0746977  60.6631063  23.8806654
  56.1487726  58.7392848  23.1916652  55.9332201  59.0006127  22.2934199
  55.8105298  60.4558176  26.4190135  56.8399108  61.0541037  26.7821479
  54.5893596  60.6896668  26.9168889  53.7806560  60.2018602  26.5589190
  54.3782891  61.7503048  27.9365390  54.8385541  62.6944544  27.6452715
  52.8813070  61.9747339  28.2176886  52.4004010  61.0189530  28.4258056
  52.7313928  62.8852502  29.4152528  53.2116839  63.8414628  29.2076991
  51.6729156  63.0474948  29.6187312  53.2013418  62.4241868  30.2839689
  52.1453996  62.5152966  26.9975009  52.5226240  63.5233308  26.8252526
  52.4198420  61.8767956  26.1578001  50.6563716  62.5560005  27.1263882
  50.3811307  63.1947280  27.9656555  50.2225541  62.9547960  26.2094020
  50.2783487  61.5481923  27.2982054  55.1600679  61.3901410  29.2020042
  55.8995693  62.2242850  29.7266902  54.9815431  60.1862103  29.7243621
  54.3737556  59.5160456  29.2753933  55.6086668  59.8127444  31.0040710
  55.3109235  60.5033896  31.7930307  55.1505572  58.4076250  31.3871794
  55.2448683  57.7823233  30.4993718  55.8282027  58.0449292  32.1600625
  53.7158932  58.3477700  31.9005853  53.6890756  58.8534601  32.8658102
  53.0883216  58.8869295  31.1909636  53.2120912  56.9690506  32.0537431
  53.3301141  56.4924982  31.0805692  53.8679572  56.4844117  32.7769751
  51.7785624  56.8372082  32.5076130  51.7127557  57.1695058  33.5436382
  51.1579964  57.4778071  31.8810110  51.3000504  55.4307171  32.4064695
  51.8746806  54.8370250  32.9873563  50.3403887  55.3784604  32.7169831
  51.3605445  55.1227506  31.4464715  57.1383387  59.9082126  30.8747045
  57.7737967  60.3043110  31.8620622  57.7009346  59.4331935  29.7680805
  57.1027783  59.0130184  29.0711148  59.1778222  59.4171832  29.5372479
  59.6563366  58.7962754  30.2946096  59.5176455  58.8521182  28.1549463
  58.7451164  59.1975738  27.4679540  60.4787483  59.2750237  27.8624870
  59.5967365  57.3279827  28.1066099  60.4622334  57.0168469  28.6915975
  58.6855360  56.9827100  28.5950765  59.6849609  56.7188882  26.6980711
  59.8676937  57.4819718  25.7227132  59.6085109  55.4756198  26.5734875
  59.7438859  60.8251879  29.7167713  60.8438313  60.9465587  30.2624501
  59.0275720  61.8618078  29.2740360  58.0889888  61.6908333  28.9424810
  59.5417723  63.2540506  29.2443042  60.6316356  63.2388406  29.2361815
  59.0542763  63.9956000  27.9995179  57.9668332  64.0251564  28.0680255
  59.4501012  65.0085314  28.0729526  59.4614830  63.3880729  26.6663838
  60.5475918  63.3198440  26.6046332  59.0289857  62.3928837  26.5632016
  58.9445858  64.2849054  25.5473066  59.4550636  64.0062046  24.6254404
  57.8746427  64.1082639  25.4372205  59.1636628  65.7245724  25.7928204
  58.6527328  66.1320760  26.5628793  59.9881154  66.5136371  25.0802982
  60.6695523  66.0292733  24.0523092  60.5709928  65.0567366  23.7982257
  61.2843900  66.6348405  23.5275591  60.1234559  67.7922149  25.3920800
  59.6050843  68.1770609  26.1687938  60.7445229  68.3775624  24.8519478
  59.0640022  64.0267502  30.4770548  59.5021200  65.1971850  30.6594803
  58.0679866  63.5252229  31.1907559  57.7480216  62.5782879  31.0457185
  57.3324600  64.3737496  32.1507101  57.0831128  65.3277824  31.6862250
  56.0416442  63.6903163  32.5818974  55.4673680  63.2730976  31.7547126
  56.4269727  62.8802238  33.2010679  55.1539166  64.5759987  33.4114511
  54.2492289  65.4162299  32.8144503  54.1916250  65.4353723  31.7261421
  53.4166005  66.2321634  33.5680095  52.7546006  66.9398758  33.0690095
  53.3966618  66.1208068  34.9391401  52.5442963  66.9239759  35.6690240
  52.0213346  67.5125832  35.1197952  54.2612250  65.2347860  35.5568128
  54.2755753  65.1544426  36.6437533  55.1110913  64.4475189  34.7911257
  55.7578158  63.7148443  35.2738631  58.2451740  64.7080145  33.3317317
  58.9113335  63.7946636  33.8481915  58.2066475  65.9479603  33.7953483
  57.7344381  66.6598320  33.2565012  58.9047270  66.3550241  35.0401925
  59.8183520  65.7721989  35.1572536  59.2707594  67.8242483  34.9908106
  59.9466944  67.8879287  34.1380763  58.3891961  68.4367166  34.8015259
  59.9725119  68.3235243  36.2252420  60.2350662  67.4869728  37.1357698
  60.1629895  69.5733328  36.2916195  58.0040731  66.0109828  36.2173991
  57.1081785  66.7900642  36.5334593  58.2309893  64.8725983  36.8718413
  58.9687239  64.2591906  36.5562816  57.3390426  64.3983786  37.9472453
  56.3010101  64.4416687  37.6175277  57.6780340  62.9472637  38.3095594
  58.7524353  62.7869633  38.3993635  57.1894587  62.6615329  39.2410915
  57.1903508  61.9990209  37.2626942  57.9526436  61.6642361  36.1925457
  57.3077852  60.7729568  35.4454474  57.7882588  60.3252320  34.5755126
  56.1003535  60.5944828  35.9589041  55.3592064  60.0216637  35.5811752
  56.0156640  61.3292508  37.1126239  55.1080417  61.2949268  37.7152390
  57.3440871  65.3536766  39.1513970  56.4366703  65.2599635  39.9630409
  58.3187975  66.2492874  39.2834833  59.1239095  66.2282911  38.6740136
  58.2954368  67.2436948  40.3835361  58.2455244  66.7297105  41.3434465
  59.5541853  68.1041977  40.3563872  59.6325227  68.5478570  39.3638506
  59.4335275  68.8936677  41.0981950  60.8189960  67.3125983  40.6593466
  60.7614331  66.9918578  41.6994970  60.8193864  66.4376058  40.0093542
  62.0899914  68.0988244  40.4450989  62.1779403  68.8673644  41.2130248
  62.9479366  67.4289299  40.5022891  62.0869733  68.7438364  39.1364096
  61.3994528  68.4082989  38.4769936  62.9494813  69.6719958  38.7360035
  63.8917511  70.1258834  39.5528797  63.9579818  69.7634896  40.4932968
  64.5383056  70.8316247  39.2303955  62.8210449  70.1992647  37.5362170
  62.0709273  69.8953111  36.9320349  63.4732476  70.9051864  37.2257258
  57.0152875  68.0945203  40.2924328  56.5973186  68.6766014  41.3136475
  56.4549651  68.2662415  39.0880211  56.8629056  67.8707741  38.2529825
  55.2195681  69.0767014  38.9515102  55.3989461  70.0904486  39.3096153
  54.7918514  69.1449416  37.4891345  54.7426706  68.0989944  37.1863561
  53.7992813  69.5899372  37.4192524  55.7517243  69.8959210  36.5697021
  56.7721916  69.5662610  36.7648217  55.3972550  69.6137349  35.1193765
  54.3770165  69.9435703  34.9233639  56.0842291  70.1512145  34.4657076
  55.4758727  68.5437004  34.9271639  55.7348350  71.3630345  36.8712211
  56.0385530  71.5254723  37.9053724  56.4257147  71.8794291  36.2047955
  54.7279293  71.7533376  36.7232234  54.1265946  68.4304009  39.8054251
  53.1916600  69.1349882  40.1554195  54.1900399  67.1191621  40.0090096
  54.9641048  66.5645802  39.6723171  53.0944201  66.4303658  40.7349709
  52.1318679  66.8322642  40.4186324  53.1177920  64.9452413  40.4436294
  54.1416215  64.5939218  40.5718751  52.4710318  64.4506268  41.1683071
  52.6530671  64.6266363  39.0654035  51.6109606  64.9359397  38.9851141
  53.2580915  65.2053368  38.3674398  52.7816963  62.9217354  38.6648273
  51.7695793  62.8694204  37.1928276  52.1902980  63.5339541  36.4381822
  51.7432778  61.8509523  36.8053594  50.7569811  63.1914028  37.4358779
  53.2377066  66.6475145  42.2425413  52.3514031  66.1789958  42.9624630
  54.3435672  67.2386233  42.7039271  55.0900432  67.4444809  42.0554708
  54.5659763  67.5142663  44.1387512  54.2466727  66.6682335  44.7473338
  56.0526777  67.7436074  44.3668166  56.2867432  68.5641817  43.6886054
  56.2102901  68.0670946  45.3957065  56.9664253  66.5517700  44.0606911
  56.8103160  66.2312722  43.0306368  58.4137457  66.9567099  44.2492577
  58.5707452  67.2769141  45.2792671  59.0606999  66.1071008  44.0308194
  58.6527967  67.7779344  43.5735762  56.6199509  65.3425541  44.9110825
  55.5903315  65.0430754  44.7153892  57.2904492  64.5195632  44.6636574
  56.7299902  65.5957168  45.9655487  53.7165794  68.6814800  44.6335633
  53.5728290  68.8236767  45.8328789  53.2088502  69.5285616  43.7376761
  53.3187378  69.3075931  42.7582901  52.5255385  70.7850708  44.0987272
  53.2326128  71.5067271  44.5078204  51.8998701  71.3766420  42.8336452
  52.7046976  71.4439249  42.1016446  51.1606733  70.6509423  42.4944578
  51.2393199  72.7389995  42.9874620  50.5230383  72.6887240  43.8075314
  52.0083404  73.4749903  43.2220406  50.5163286  73.1491595  41.7041529
  51.0444159  72.6785511  40.8748456  49.5046585  72.7479333  41.7644897
  50.4527697  74.6509831  41.4770225  51.4235302  75.0726529  41.7376354
  50.2542978  74.8237841  40.4192665  49.3975862  75.3012881  42.2900835
  49.5815453  75.1416506  43.2702746  49.3943794  76.2942692  42.1054807
  48.4979273  74.9110030  42.0484420  51.4534681  70.5280726  45.1648984
  51.3386611  71.3332730  46.1074448  50.6241170  69.5127572  44.9817880
  50.6988412  68.9355521  44.1563488  49.4600232  69.3085230  45.8805177
  49.3502013  70.1831424  46.5216723  48.1606472  69.1060370  45.1047068
  48.3550474  68.2922301  44.4061182  47.2767007  68.8716694  45.6978431
  47.8194465  70.2957416  44.2861935  47.3999204  71.4918066  44.8548949
  47.2209194  72.3816092  43.8968573  46.8819616  73.3927413  44.1222870
  47.5290312  71.7862552  42.7119562  47.4657116  72.2081027  41.7964590
  47.9414545  70.5160908  42.9573529  48.2873600  69.8872982  42.1369443
  49.7401361  68.2102583  46.8883641  48.8055874  67.7868404  47.5427547
  50.9662868  67.7312927  46.9966250  51.6926848  68.0262188  46.3598646
  51.3090661  66.7323611  48.0428754  50.3991563  66.3071256  48.4663586
  52.1382010  65.6030840  47.4340490  52.9486543  66.0923430  46.8937802
  52.5504306  65.0258304  48.2616631  51.3838722  64.6664956  46.4842062
  50.8564032  65.2546552  45.7332431  52.3849193  63.7342847  45.7921509
  52.9124830  63.1454246  46.5424968  51.8521547  63.0662384  45.1154111
  53.1029081  64.3274194  45.2257730  50.3577155  63.8468741  47.2571745
  49.6446048  64.5165532  47.7379056  49.8286656  63.1855822  46.5709527
  50.8648508  63.2514010  48.0163350  52.0924837  67.4091930  49.1507101
  52.7686465  68.4211281  48.9279387  52.0431635  66.8217847  50.3775303
  51.0889894  65.7866802  50.7933663  51.3916093  64.8305390  50.3663821
  50.0962317  66.0492869  50.4278956  51.1703375  65.8000286  52.3169391
  51.0004350  64.8020158  52.7209224  50.4382089  66.4904535  52.7357500
  52.5694090  66.2714640  52.5906374  53.2387196  65.4205936  52.4635867
  52.7279168  66.7140941  53.5740261  52.8382487  67.3140838  51.4979164
  52.4823238  68.3050932  51.7795478  54.3141820  67.3956967  51.1058920
  54.7989218  66.5895764  50.2849223  55.0848198  68.3294799  51.6881329
  54.6325737  69.3260577  52.6711956  54.4019043  68.8198842  53.6085750
  53.7351401  69.8154071  52.2927129  55.8012023  70.2811884  52.7981667
  55.9051121  70.5891111  53.8385922  55.6206509  71.1581663  52.1765458
  57.0319986  69.5166505  52.3175211  57.5087628  68.9505529  53.1177263
  57.7627114  70.1833186  51.8595778  56.4683575  68.5566019  51.2647374
  56.4149273  69.0016435  50.2711673  57.3646032  67.3116131  51.2193006
  58.2053513  67.2256926  50.3351234  57.2032684  66.3672941  52.1497606
  56.5172706  66.4642179  52.8846837  58.1445111  65.2285986  52.2150351
  59.1614527  65.6014223  52.0928409  58.0546350  64.4870276  53.5399426
  57.0034523  64.3133578  53.7700575  58.5665580  63.5301645  53.4377272
  58.6935071  65.2852685  54.6636667  59.4372343  65.9778570  54.2695960
  57.8528914  65.8479628  55.0696712  59.3156543  64.4474066  55.7596377
  59.3349169  63.1859019  55.6514717  59.8690799  65.0648115  56.6794667
  57.9691328  64.3158706  51.0104824  58.8091718  63.4546157  50.8489849
  56.9122160  64.4720970  50.2056892  56.1089677  65.0174846  50.4839767
  56.8077944  63.6396562  48.9799206  57.0406643  62.6052387  49.2326083
  55.4209266  63.6893025  48.3739289  55.0258959  64.6988333  48.4874969
  55.3496838  63.3872359  47.3290460  54.5057475  62.7789602  49.1488244
  53.8613649  63.2339310  50.2843448  53.9689631  64.2805047  50.5693116
  53.0844098  62.3778378  51.0596378  52.5907533  62.7415815  51.9608007
  52.9424786  61.0662723  50.6812951  52.3074548  60.3953138  51.2597926
  53.6018260  60.6003492  49.5725720  53.5276927  59.5469187  49.3025932
  54.3577247  61.4602731  48.7989979  54.8468351  61.0940599  47.8963580
  57.9577770  63.9460671  48.0145516  58.1694795  63.1203084  47.1424154
  58.6778621  65.0593206  48.1401112  58.3668102  65.8134747  48.7355922
  59.9099388  65.2604072  47.3341955  59.6421078  65.1733991  46.2812019
  60.5813125  66.6073252  47.5552907  61.4777478  66.6597491  46.9374276
  59.8908883  67.3976588  47.2606938  60.9351138  66.7734209  48.9129040
  61.3565599  67.6277696  49.0315262  60.8783521  64.1129246  47.6285651
  61.5746020  63.6711866  46.7039135  60.9644094  63.6929944  48.8932009
  60.4660192  64.2081902  49.6047344  61.8377199  62.5797066  49.3170123
  62.8413204  62.6250861  48.8941341  61.9299841  62.5044208  50.8367377
  60.9170709  62.5197892  51.2390696  62.6387368  61.2536625  51.3045447
  63.6519412  61.2378131  50.9029648  62.6799732  61.2446123  52.3937271
  62.0960286  60.3754943  50.9547054  62.5633659  63.7794445  51.3914522
  63.6329206  63.7363983  51.1857811  62.1258818  64.6258765  50.8620564
  62.3445670  63.9450059  52.8649353  62.7822172  63.0991229  53.3950713
  62.8169580  64.8678684  53.2014926  61.2751775  63.9885989  53.0713467
  61.3308538  61.3000262  48.6871306  62.1534756  60.5168299  48.1906593
  60.0318052  61.0389714  48.7416845  59.4330105  61.6531490  49.2749106
  59.4330509  59.8587701  48.1130197  59.8061457  58.9422249  48.5700146
  57.9194384  59.9259240  48.3181305  57.6641072  60.1389136  49.3561770
  57.5565074  60.7333805  47.6822099  57.1497129  58.6932018  47.9298371
  56.9739023  58.3490047  46.6031144  57.3930065  58.9958202  45.8323477
  56.2802398  57.2063317  46.2454571  56.1506312  56.9510414  45.1937304
  55.7550890  56.3940015  47.2182353  55.1918721  55.5007630  46.9480285
  55.9421559  56.7112142  48.5323826  55.5192095  56.0623634  49.2993305
  56.6607405  57.8441297  48.8988533  56.8371500  58.0604347  49.9525096
  59.8090650  59.7921988  46.6344043  60.3165005  58.7699233  46.1810810
  59.6040278  60.8902227  45.9178868  59.2810890  61.7303234  46.3761889
  59.7925228  60.9199738  44.4599501  59.2740051  60.0795709  43.9984726
  59.2239741  62.2200876  43.8863279  58.1489088  62.1543606  44.0537008
  59.6263331  63.0678445  44.4408687  59.4944809  62.4108120  42.4040877
  60.5702913  62.4313614  42.2299885  58.8808750  61.2671800  41.6295047
  57.8049345  61.2462667  41.8027487  59.0744655  61.4031115  40.5654812
  59.3200769  60.3262267  41.9608791  58.9522214  63.7542384  41.9274134
  59.4363766  64.5590141  42.4806125  59.1559275  63.8718881  40.8630998
  57.8762628  63.7933090  42.0973709  61.2757997  60.7906891  44.1432800
  61.6341415  60.0078400  43.2463103  62.1446986  61.4922417  44.8620300
  61.8212451  62.1428003  45.5636358  63.6095561  61.3801936  44.6257192
  63.8213963  61.6421631  43.5890925  64.4171699  62.3070303  45.5396927
  63.9702122  62.2049609  46.5285860  65.4446987  61.9443298  45.5667670
  64.4073850  63.7720536  45.1277027  64.0429736  64.0675710  43.9674769
  64.7961266  64.6134299  45.9645557  64.0219511  59.9213683  44.8450001
  64.8173109  59.4030320  44.0386403  63.4967304  59.2807496  45.8793018
  62.9132286  59.7739297  46.5399064  63.8868820  57.8781745  46.1917609
  64.9734869  57.8009318  46.1540446  63.4126413  57.4282843  47.5744541
  63.8104103  58.0122464  48.4044345  62.3232995  57.4443103  47.6087683
  63.8251833  56.0184242  47.8097471  65.1715254  55.6942052  47.9476817
  65.2619191  54.3701702  48.0840424  66.2417840  53.9045811  48.1898271
  64.0426500  53.8409087  48.0619713  63.8036237  52.8645320  48.1602310
  63.1333053  54.8648524  47.8787326  62.0678753  54.6430658  47.8173269
  63.4456460  56.9400756  45.0658593  64.2864234  56.2071159  44.5396280
  62.1784418  56.9671861  44.6640825  61.4899688  57.5608317  45.1041840
  61.7181396  55.9898717  43.6509091  62.1472589  55.0014718  43.8152914
  60.1829113  55.8768850  43.5749679  59.9186677  55.1227933  42.8336033
  59.6178335  55.4838542  44.9131457  59.8812892  56.2377554  45.6549844
  58.5327723  55.4084967  44.8419823  60.0295511  54.5202201  45.2131409
  59.5107071  57.1263869  43.0474648  59.5826563  57.9010824  43.8108593
  60.0428548  57.4485015  42.1523891  58.0589570  56.8859727  42.7102354
  57.5260248  56.5642530  43.6049865  57.6149504  57.8081629  42.3353721
  57.9862233  56.1116700  41.9465175  62.3774569  56.3333670  42.3104623
  62.6586783  55.3790253  41.5700324  62.7214891  57.5980535  42.0471450
  62.4511377  58.3392683  42.6777084  63.4124960  57.9633507  40.7897491
  62.8669468  57.5366453  39.9480854  63.4955549  59.4430818  40.6038513
  63.9561873  59.9008626  41.4792677  64.0900356  59.6722649  39.7194488
  62.1853560  59.9556980  40.4376116  62.2269248  60.9072053  40.3171722
  64.7987381  57.3192524  40.7441402  65.3040691  57.1079021  39.6288857
  65.4007842  57.0749067  41.8972116  64.9092617  57.3011535  42.7500407
  66.7885843  56.5381998  42.0019479  67.4085624  56.9646650  41.2133708
  67.3979636  56.8927450  43.3413229  68.4824476  56.8162885  43.2629124
  67.1235326  57.9180123  43.5895458  66.9306637  56.0116348  44.3691428
  67.3305804  56.2565672  45.2068030  66.8064726  55.0228047  41.7964178
  67.9006382  54.4554997  41.6401243  65.6466619  54.3636557  41.8340039
  64.7723367  54.8664560  41.8873576  65.6081246  52.8966495  41.8556735
  66.4713580  52.5034697  42.3926436  64.3496031  52.4351548  42.5590305
  63.5567537  52.9627168  42.0287781  64.2358600  51.3618163  42.4070203
  64.2606173  52.7503700  44.0529414  64.3826708  53.8242287  44.1944736
  62.9218527  52.3163999  44.6137205  62.7992688  51.2425010  44.4729613
  62.8800222  52.5499887  45.6775754  62.1216650  52.8440274  44.0946740
  65.3930109  52.1052775  44.8071074  66.3434182  52.4794632  44.4265679
  65.3071431  52.3444552  45.8670706  65.3493783  51.0242667  44.6744012
  65.6762385  52.3239550  40.4373059  65.3346872  53.0002717  39.4636096
  66.0286739  51.0403808  40.3587851  66.4434566  50.6152354  41.1756731
  65.9017879  50.2266004  39.1350521  65.0927454  50.6184818  38.5186283
  67.1956233  50.2568637  38.3202883  67.0196285  49.5997969  37.4685910
  67.3652742  51.2733895  37.9653320  68.4215094  49.7758614  39.0878533
  68.2899568  48.8615775  39.9252545  69.4925757  50.3488374  38.8701849
  65.5290405  48.8019811  39.5351024  65.3242440  48.5460421  40.7383388
  65.4629880  47.8915285  38.5773973  65.6939242  48.1705658  37.6345792
  65.0057076  46.4923077  38.8079982  63.9705140  46.4826256  39.1491429
  65.0955485  45.7116694  37.5042837  64.4438509  46.1991558  36.7791999
  66.1292466  45.7773869  37.1647995  64.7057459  44.2755589  37.6372328
  63.3870727  43.8828709  37.5574082  62.6214488  44.6217818  37.3209125
  63.0301696  42.5583879  37.7753743  61.9829862  42.2612711  37.7185394
  64.0084026  41.6039533  37.9087344  63.6353210  40.2897202  38.0895091
  62.6830877  40.1687939  38.1046166  65.3380586  41.9838107  38.0161408
  66.1136956  41.2517753  38.2411118  65.6731773  43.3107274  37.8336503
  66.7198839  43.6147344  37.8428731  65.8336784  45.8359593  39.9072108
  65.2844380  45.0604995  40.6725925  67.1144835  46.1747011  39.9639309
  67.4559394  46.9217055  39.3761454  68.0867822  45.4577297  40.8270834
  67.7088736  44.4603364  41.0517849  69.4307410  45.3226735  40.1360736
  69.7953297  46.3035760  39.8311071  70.1601161  44.8537505  40.7965455
  69.3725426  44.4846676  38.8996073  69.2424867  43.1086406  38.9779611
  69.1141464  42.6333728  39.9504574  69.2749117  42.3335065  37.8243170
  69.2091320  41.2481517  37.9003351  69.3881184  42.9238524  36.6050393
  69.3918186  42.3124802  35.7026478  69.4984654  44.2981140  36.5090945
  69.6178301  44.7724109  35.5349823  69.4569879  45.0720221  37.6546424
  69.4910571  46.1589029  37.5796137  68.2779316  46.1500661  42.1627384
  69.2421863  45.7544992  42.8597362  67.4829978  47.1686132  42.4913307
  66.7068238  47.4322118  41.9012722  67.7415784  47.9706780  43.7155824
  68.6152623  47.5537616  44.2165378  68.0002152  49.4522730  43.4336276
  67.0947704  49.8910362  43.0143940  68.3770648  50.1874888  44.6953447
  69.2827468  49.7495579  45.1149352  68.5550349  51.2379046  44.4650138
  67.5661658  50.1071308  45.4192826  69.0707915  49.5936997  42.4961849
  69.2257143  50.5256316  42.3255910  66.5420839  47.8370846  44.6445553
  65.4165485  48.2231109  44.2329598  66.7390120  47.2714475  45.8298932
  67.6585149  46.9467125  46.0928779  65.6316290  47.0966930  46.7938977
  64.7986738  46.5991525  46.2971702  66.0545445  46.2597507  47.9872489
  66.3555098  45.2886159  47.5942905  66.9196084  46.7579766  48.4248966
  64.9984452  46.0680681  49.0435813  64.7813418  47.0452876  49.4748688
  64.1055428  45.6820355  48.5518434  65.4206452  45.1171679  50.1388863
  65.7243171  44.1788124  49.6748051  66.2714581  45.5563262  50.6598055
  64.3103218  44.8540285  51.1236388  63.9981035  45.8032325  51.5591066
  63.4713287  44.4054854  50.5916626  64.7546756  43.9451269  52.1948538
  65.5318250  44.3607617  52.6881957  63.9931503  43.7862714  52.8390154
  65.0436244  43.0653620  51.7915904  65.2217450  48.4961811  47.2612330
  66.0670304  49.3299538  47.5979120  63.9084311  48.7976786  47.2952137
  62.8078430  47.9982327  46.7390553  62.5205214  47.2170598  47.4428417
  63.1151787  47.5431510  45.7974904  61.7240877  49.0384303  46.5507429
  60.7400957  48.5716541  46.5952262  61.8445877  49.5401456  45.5906060
  61.9294284  50.0104119  47.6999761  61.4876437  49.5964453  48.6063738
  61.5352824  51.0121822  47.5290817  63.4621986  50.0660371  47.8428098
  63.9268415  50.8663487  47.2668700  63.8295964  50.2196659  49.3109930
  63.8108647  49.2433106  50.0421465  63.9658660  51.4682411  49.7213850
  64.0901400  52.1889641  49.0248122  64.0803134  51.8452622  51.1517664
  64.4853492  51.0079665  51.7200807  65.0100903  53.0489662  51.3243691
  65.9405870  52.9219454  50.7710692  64.4519843  53.8875760  50.9080144
  65.3240711  53.3254814  52.7875989  64.6105652  52.7782391  53.6582407
  66.3436660  54.0240924  53.0353202  62.6569284  52.0352350  51.6526482
  62.1917537  53.1966224  51.7382557  61.9859488  50.9320769  52.0020114
  62.4248086  50.0248007  51.9360470  60.5726968  50.9966001  52.4196542
  59.9978163  51.5043702  51.6451988  59.9743135  49.6142269  52.6423103
  60.5532764  49.1075571  53.4144417  58.9558128  49.7717486  52.9971954
  59.9465354  48.7663755  51.3990126  58.9418329  48.8631418  50.4593706
  58.1340781  49.5703660  50.6476943  58.9366902  48.0972590  49.3054473
  58.1811800  48.2503559  48.5348192  59.9395452  47.1766242  49.1118252
  59.9803194  46.3287391  48.0201374  59.2406418  46.4529028  47.4209211
  60.9207044  47.0390714  50.0663051  61.6698861  46.2561780  49.9483853
  60.9641131  47.8717229  51.1562156  61.8109585  47.8292054  51.8411575
  60.4761094  51.8532899  53.6876524  59.4766825  52.5799515  53.7656386
  61.4444468  51.7987800  54.6025159  62.2420892  51.1884567  54.4958785
  61.3043407  52.5591626  55.8702704  60.2992547  52.3595203  56.2418134
  62.3120866  52.2431354  56.9862001  62.2349532  51.1840403  57.2321013
  63.3150814  52.4578680  56.6174302  62.0341037  53.0964421  58.2660838
  62.5821758  52.5234794  59.0140354  62.4980290  54.0756328  58.1475045
  60.5823350  53.2940949  58.7611020  60.0004315  54.4185964  58.8108793
  59.9753584  52.2205451  59.2589677  59.0263232  52.2920885  59.5970727
  60.4662309  51.3386581  59.2966630  61.3314705  54.0555805  55.5321836
  60.5465932  54.8133004  56.1516196  62.1798472  54.4857227  54.5966540
  62.8517527  53.8498196  54.1913523  62.2029996  55.9064216  54.1615888
  62.4206675  56.5597452  55.0065078  63.2937174  56.0916344  53.1074238
  64.2156866  55.8044612  53.6129964  63.1017576  55.4033498  52.2843104
  63.4340564  57.5141868  52.5603189  62.4776090  57.8056105  52.1262895
  63.8265062  58.5147043  53.6441158  64.7831458  58.2241817  54.0783231
  63.9136626  59.5093142  53.2067878  63.0633701  58.5261361  54.4223144
  64.4502099  57.5304203  51.4521987  64.1263889  56.8651301  50.6518061
  64.5488629  58.5440900  51.0638141  65.4130710  57.1938253  51.8365179
  60.8268605  56.2946239  53.6201702  60.3129031  57.3467813  53.9462004
  60.2700364  55.4897042  52.7287078  60.7374845  54.6423168  52.4396988
  58.9853977  55.8247742  52.1013032  59.0249589  56.8169912  51.6518150
  58.6902648  54.8008603  51.0016624  58.7297322  53.8548909  51.5417397
  57.6862284  54.9503235  50.6045834  59.6812705  54.7720346  49.8645034
  60.6715058  54.5456403  50.2598269  59.2831306  53.7020009  48.8403313
  58.2931282  53.9279879  48.4441951  60.0064844  53.6916996  48.0250068
  59.2664290  52.7247892  49.3229065  59.8223637  56.1436461  49.2400327
  60.1710761  56.8516139  49.9918842  60.5418410  56.0989347  48.4224420
  58.8559202  56.4694998  48.8554481  57.8842124  55.8363711  53.1733113
  57.0019335  56.7064462  53.1287336  57.9308644  54.9024168  54.1263119
  58.6163514  54.1616039  54.0888531  56.9329962  54.8797184  55.2174364
  55.9125060  54.8885458  54.8345250  57.1149179  53.6450409  56.0885677
  58.1482828  53.6132484  56.4338887  56.1836574  53.6716832  57.2841283
  55.1500224  53.7030134  56.9395753  56.3384967  52.7761891  57.8859707
  56.3917894  54.5550362  57.8878412  56.8846200  52.4844989  55.2586309
  56.9931543  51.6885704  55.7842910  57.0626655  56.1891643  56.0256817
  56.0222845  56.7627467  56.3986704  58.2902657  56.6494552  56.2767650
  59.0891156  56.0960956  56.0015714  58.5264364  57.8765280  57.0740038
  57.9796799  57.8001738  58.0138584  60.0084678  58.0817761  57.3864062
  60.0877572  58.7536244  58.2410595  60.4406313  57.1147686  57.6437604
  60.7167580  58.6399738  56.2732798  61.6409585  58.7539053  56.5066740
  57.9006562  59.0849963  56.4008846  57.4392238  59.9915101  57.1114237
  57.8810973  59.1093232  55.0644926  58.3508326  58.3884596  54.5355278
  57.2314982  60.2183890  54.3205370  57.6377565  61.1876198  54.6097516
  57.3760808  60.0602103  52.8092328  57.0585459  59.0575893  52.5228380
  56.5258144  61.0784853  52.0963841  56.8430828  62.0814308  52.3819398
  56.6373845  60.9556051  51.0190944  55.4806930  60.9364759  52.3714406
  58.8422982  60.1803696  52.4193939  59.4170836  59.4016682  52.9207400
  58.9422479  60.0670159  51.3399215  59.2191730  61.1586066  52.7179212
  55.7506577  60.2915744  54.7141221  55.2620304  61.3808462  55.0536397
  55.0744362  59.1512091  54.7616259  55.5165145  58.2863698  54.4846439
  53.6527177  59.1119629  55.1759172  53.0978778  59.8727983  54.6269350
  53.0247459  57.7575198  54.8970583  53.6437421  56.9148219  55.2049593
  52.0831797  57.7356712  55.4457620  52.6855219  57.5357511  53.4546275
  51.5436157  58.0786250  52.9071541  50.9111515  58.7103970  53.5308150
  51.1949620  57.8351215  51.5942905  50.2330207  58.1734623  51.2091994
  52.0691660  57.1608824  50.7689596  51.8312194  57.0235172  49.7141553
  53.2345582  56.6650136  51.2753972  53.9207367  56.1121981  50.6337944
  53.5470238  56.8677102  52.6204512  54.4878156  56.4931701  53.0238498
  53.5156412  59.4340651  56.6640104  52.6836091  60.2649207  57.0151991
  54.3335722  58.8270224  57.5064912  55.0535764  58.2029055  57.1715711
  54.2038577  59.0304736  58.9722066  53.2028968  58.7406982  59.2919044
  55.2190676  58.1934178  59.7350379  56.1626601  58.4433985  59.2500204
  55.2471668  58.5214315  60.7741324  55.0056348  56.6814811  59.6842450
  53.9008931  56.2487721  59.2814876  55.9169177  55.9591936  60.1177991
  54.4165610  60.5154072  59.3116157  53.6601885  61.0881835  60.1071462
  55.4602425  61.1114417  58.7576969  56.0769931  60.5676983  58.1711296
  55.8182382  62.5206373  59.0362875  55.8443739  62.6850214  60.1135033
  57.1845618  62.8577554  58.4599784  57.1674484  62.5817988  57.4056282
  57.3855277  63.9250707  58.5524484  58.2991835  62.0952697  59.1411238
  58.1556439  61.5882508  60.2580612  59.4410544  62.0403125  58.4931210
  60.2237150  61.5454016  58.8963645  59.5307256  62.4932381  57.5948347
  54.7270177  63.4402398  58.5034245  54.3629205  64.4008073  59.2153967
  54.2150588  63.1584351  57.3075628  54.5997985  62.3845125  56.7849554
  53.1569458  63.9952201  56.6603051  53.4746710  65.0378849  56.6605490
  52.9033565  63.5710825  55.2419474  52.6599982  62.5086998  55.2271483
  52.0631830  64.1413061  54.8456475  54.0444724  63.8025380  54.4472947
  53.8672871  63.5269106  53.5449451  51.8932737  63.9304460  57.5200598
  51.2406547  64.9466725  57.7343451  51.5252226  62.7315146  57.9540504
  52.0349320  61.9222316  57.6294633  50.3234961  62.5146321  58.7946267
  49.4111730  62.9504752  58.3874331  50.1257434  61.0043103  58.9905006
  51.1058382  60.5400575  59.0999714  49.2815608  60.7039120  60.2223357
  48.3010851  61.1674830  60.1133864  49.1632796  59.6255350  60.3282292
  49.7753818  61.1034558  61.1081149  49.5361949  60.4271846  57.7007005
  48.5185518  60.8089422  57.6184540  50.1363373  60.8135810  56.8769126
  49.5132952  58.8909755  57.6411332  48.9129152  58.5038382  58.4644001
  49.0800136  58.5700013  56.6938519  50.5307013  58.5084768  57.7228610
  50.4435878  63.3052056  60.0991326  49.4763977  64.0007274  60.4523516
  51.6146866  63.3003312  60.7343174  52.3711411  62.7089917  60.4209590
  51.8057220  64.0872254  61.9771026  50.9765273  63.9029626  62.6601711
  53.0999892  63.6930596  62.6674117  53.0737857  62.6128703  62.8109516
  53.9170860  63.9497562  61.9932014  53.3160567  64.3781674  64.0102665
  53.3690066  65.4539678  63.8430822  52.4649278  64.1522865  64.6526522
  54.5944512  63.9069328  64.6802176  54.3564703  62.9963675  65.2300676
  55.3095978  63.6773452  63.8903098  55.1972301  64.9247626  65.6263920
  55.7635358  65.6467144  65.0380179  54.3849195  65.4355547  66.1434434
  56.0934181  64.2872131  66.6222748  56.8464328  63.8142086  66.1433852
  56.4750810  64.9949503  67.2334552  55.5687632  63.6185087  67.1678670
  51.7550600  65.5870748  61.6755762  51.0380301  66.3182707  62.4051039
  52.4404494  66.0576029  60.6314686  53.0110675  65.4198387  60.0950440
  52.4447379  67.5001308  60.2523555  52.8310057  68.1224100  61.0596132
  53.2844509  67.7454411  59.0035990  52.9677116  67.0354035  58.2396467
  53.1335587  69.1580436  58.4738558  53.4505674  69.8686789  59.2371399
  53.7516227  69.2810768  57.5844971  52.0898531  69.3413482  58.2185551
  54.6192046  67.4429727  59.4229276  55.2227076  67.5725569  58.6876778
  51.0197911  68.0095889  60.0238186  50.7346675  69.1567796  60.4158018
  50.1508556  67.2007044  59.4175802  50.4812847  66.2937694  59.1202843
  48.7748036  67.6085656  59.0358787  48.7149618  68.6908955  58.9215108
  48.4122874  66.9541394  57.6987189  48.9107928  65.9850989  57.7222192
  47.3479497  66.8102035  57.5127950  48.9620662  67.6928481  56.5063722
  50.3034586  67.6114061  56.1857189  50.9463986  66.9569842  56.7743275
  50.8336117  68.3418348  55.1390954  51.9010287  68.2952682  54.9233336
  50.0117044  69.1275775  54.3703407  50.4027137  69.6373396  53.4897988
  48.6872490  69.2700295  54.7165463  48.0455487  69.9316629  54.1346854
  48.1687412  68.5775793  55.7984970  47.1309706  68.7286798  56.0956515
  47.7879768  67.3035341  60.1852022  46.5901695  67.5650431  60.0570591
  48.2762628  66.7713221  61.2901950  49.2622956  66.5527843  61.2991324
  47.4849951  66.4786186  62.4980134  48.1582647  66.1309404  63.2815484
  46.9917329  67.3944924  62.8235390  46.4317664  65.4137165  62.2427023
  45.3798392  65.4280018  62.9184525  46.7040196  64.4965100  61.3212820
  47.5880054  64.5250978  60.8335822  45.7291614  63.4370415  60.9515834
  44.6911517  63.7695195  60.9612469  46.0494848  62.8772529  59.5670652
  47.1058400  62.6093792  59.5456979  45.2042262  61.6457374  59.2316707
  44.1476917  61.9129574  59.2523893  45.4674160  61.2834437  58.2379027
  45.3948804  60.8627097  59.9655782  45.9057284  63.9400210  58.5162549
  46.5917989  64.7593134  58.7311251  46.1387242  63.5186801  57.5383569
  44.8821502  64.3147043  58.5153464  45.7787196  62.3366393  61.9975604
  46.9066022  61.9407209  62.3744336  44.6175306  61.9044012  62.4899591
  43.7751222  62.4390500  62.3331211  44.5480611  60.7277906  63.4019149
  45.5021618  60.2065598  63.4800781  44.0843467  61.1556402  64.7981430
  44.0108790  60.2747282  65.4358709  45.0897090  62.1507757  65.4108843
  45.1633728  63.0322151  64.7739080  44.7493029  62.4474805  66.4029482
  46.0683170  61.6772569  65.4896585  42.6822026  61.7398872  64.8032802
  42.7307116  62.7437363  64.3813387  42.0501889  61.1123542  64.1749010
  42.0960526  61.8071948  66.2036312  42.7273173  62.4349774  66.8325141
  41.0929967  62.2313595  66.1582173  42.0467969  60.8035948  66.6260774
  43.6786245  59.6614737  62.7070127  42.8570463  60.0373722  61.8381498
  43.9072888  58.3837054  63.0314335  44.5565571  58.1808981  63.7780386
  43.2809631  57.2361459  62.3052632  43.5429641  57.2695057  61.2477464
  43.7898872  55.9242215  62.8921299  44.8695468  55.8985134  62.7445711
  43.5698144  55.9378384  63.9595954  43.1644820  54.6938260  62.2629460
  43.2452112  54.9709851  61.2118672  43.7574457  53.7982645  62.4485877
  41.6919094  54.4137478  62.6072817  41.2385767  54.6740737  63.7570264
  41.0337497  53.7728783  61.7395600  41.7470300  57.3227393  62.4002141
  41.0823557  57.0808012  61.3583221  41.2020217  57.7973945  63.5136604
  41.8322454  58.0651422  64.2561081  39.7344751  57.8567128  63.7757846
  39.2555313  56.9660390  63.3690755  39.4508081  57.9234210  65.2543830
  38.3761548  57.8129859  65.3993782  39.9690962  57.0950499  65.7373725
  39.8864288  59.1623671  65.8329926  39.6879417  59.1641520  66.7722474
  39.0322297  59.0083379  63.0373132  37.7883996  59.0708239  63.0658633
  39.7705315  59.9252394  62.4255966  40.7750476  59.9199344  62.5305660
  39.1513066  61.0226049  61.6446341  38.5062477  61.6154651  62.2931053
  40.2192013  61.9352848  61.0539816  40.9917536  61.3134952  60.6016101
  39.7292180  62.5257556  60.2797977  40.8498495  62.8624419  62.0723968
  40.2557357  63.0327476  63.1613462  41.9173949  63.3762218  61.7817871
  38.2705171  60.3813194  60.5865605  38.6675402  59.3984068  59.9652888
  37.0800907  60.9336124  60.3074433  36.4203514  62.0010715  61.0749036
  36.8464894  62.9664453  60.8018465  36.5649857  61.8292674  62.1415166
  34.9698150  61.8672239  60.6599048  34.4474853  62.8208434  60.7365893
  34.4538761  61.1213060  61.2644830  35.0835399  61.4057100  59.1987762
  35.3355270  62.2666578  58.5796071  34.1967048  60.9163428  58.7961068
  36.2560627  60.4225234  59.2246106  35.9412481  59.4089090  59.4727554
  37.0350749  60.4064664  57.8985264  37.7395759  61.3375551  57.5520668
  36.8941733  59.3196684  57.1610186  36.5769051  58.4612955  57.5883782
  37.2545816  59.2971078  55.7340706  38.2302077  59.7647786  55.6016430
  37.3203511  57.8740528  55.1971953  36.3802276  57.3780491  55.4385399
  37.4692713  57.8637249  54.1174656  38.4087738  57.0373301  55.7868394
  39.7329195  57.2534553  55.4690642  39.9898525  58.0612529  54.7838281
  40.7379407  56.4539032  56.0124423  41.7819765  56.6288115  55.7526405
  40.4047860  55.4368886  56.8833098  41.1837347  54.8392209  57.3567357
  39.0838541  55.1796974  57.1522051  38.8275837  54.3242900  57.7772682
  38.0779521  55.9928091  56.6393779  37.0377920  55.8077825  56.9075792
  36.2361518  60.1431244  54.9636016  35.1174302  60.4258122  55.4330326
  36.6176398  60.5371405  53.7513754  37.5246305  60.2690452  53.3969855
  35.7908048  61.4566647  52.9388460  35.6328807  62.3934607  53.4732357
  36.4974488  61.7572324  51.6338731  36.7929965  60.7988753  51.2069041
  35.7742081  62.2397413  50.9764479  37.7234394  62.6472928  51.7789401
  37.9630802  63.2370900  52.8806286  38.4486107  62.7595709  50.7749867
  34.3748351  60.9073891  52.7142329  33.4316644  61.7062756  52.6158649
  34.2337479  59.6041351  52.5156238  35.0612500  59.0252031  52.5023135
  32.9270849  58.9706567  52.2108176  32.3461517  59.6120906  51.5481123
  33.1469482  57.6298933  51.5211773  32.2032959  57.0880481  51.4577484
  33.5499594  57.7752093  50.5188972  34.1056645  56.7366385  52.2425460
  33.8118697  55.8630492  53.2538306  32.7733859  55.8221589  53.5824324
  34.9398879  55.2025078  53.6478977  34.9790606  54.5218287  54.3930427
  36.0110701  55.6311516  52.9015780  37.3542908  55.2660047  52.9307507
  37.6535172  54.5093841  53.6560696  38.2242401  55.8767814  52.0477456
  39.2868304  55.6338793  52.0482358  37.7489466  56.8150791  51.1422913
  38.4235381  57.2661145  50.4145599  36.4406514  57.2022207  51.1289126
  36.1500356  57.9079515  50.3507178  35.5205794  56.6271561  52.0240161
  32.0530485  58.8257593  53.4645892  30.8748692  58.4918188  53.2825141
  32.5680362  59.1111201  54.6715945  33.5187246  59.4494070  54.7146393
  31.7949471  59.0108985  55.9430783  31.0406694  58.2285345  55.8589903
  32.7245568  58.6678848  57.0974718  33.4513876  59.4763141  57.1765807
  32.1168146  58.6366135  58.0017791  33.4359785  57.3788232  56.9363212
  32.9111689  56.4991142  56.5637788  34.1833973  57.6913070  56.2070625
  34.1142032  57.0443467  58.2373495  35.2923010  57.3709775  58.3887560
  33.3716180  56.6895193  59.1636139  31.1519262  60.3490311  56.2987190
  30.2872563  60.3543048  57.1743029  31.6245948  61.4294595  55.6836865
  31.9885224  61.2758380  54.7541401  31.6429620  62.8111966  56.2274799
  30.6480863  63.2401999  56.1079909  32.0318048  62.8769985  57.7166046
  32.7477344  62.0695425  57.8700936  32.5328578  63.8360308  57.8481450
  30.9006640  62.7519997  58.7301463  30.5322129  63.7564827  58.9383739
  30.1080004  62.1632522  58.2684508  31.3348711  62.0850959  60.0412449
  32.4171990  62.1925732  60.1127557  30.8610934  62.6360644  60.8536905
  30.9649480  60.6172170  60.1429437  29.9823726  60.5450802  60.6092508
  30.9188196  60.2068876  59.1341815  31.9512163  59.8484517  60.9453324
  31.9937979  60.2282404  61.8802373  31.6685780  58.8797436  60.9879964
  32.8616764  59.9148130  60.5131779  32.6903580  63.5571638  55.4140030
  32.3228444  64.1817575  54.4039241  33.8951992  63.4285377  55.7609398
  37.3919437  41.9321387  45.4420749  36.3137002  42.6600634  44.6843582
  36.6483118  43.3259250  43.4899255  35.6820167  44.0097124  42.7358775
  36.0800994  44.7188186  41.5006121  35.6248999  46.0310529  41.4600819
  35.9248929  46.8038845  40.3664657  35.4367018  48.1107145  40.3596897
  35.7078364  48.9506857  39.2777981  36.4671621  48.4838270  38.2026826
  36.9547003  47.1795074  38.2121553  37.6925587  46.7879195  37.1292643
  36.6817899  46.3396083  39.2954039  37.1743382  44.9622350  39.3440566
  37.8561832  44.4812438  38.4409614  36.8243477  44.1511869  40.5334525
  37.3056425  42.8551884  40.5770540  34.3643436  44.0335950  43.2048524
  34.0168107  43.3754494  44.3878613  34.9785327  42.6790730  45.1395420
  34.5631215  41.9766982  46.4151486  33.3169763  42.3348180  46.8339413
  35.3903004  42.2288620  47.4701815  34.5407213  40.6206785  46.2847538
  36.9351103  41.3247580  46.2376458  37.9463504  41.2774806  44.7535918
  38.0829428  42.6619884  45.8889391  37.6912052  43.3102976  43.1399339
  34.8386967  48.4797020  41.2060130  35.3232315  49.9810018  39.2724179
  36.6799559  49.1450474  37.3501913  38.4910622  47.2333388  36.9205829
  36.7497431  42.1583547  40.8645461  33.5940767  44.5753764  42.6367619
  32.9737687  43.4035042  44.7362608  25.9734600  22.5139431  60.3308478
  40.8659011  23.9860376  80.5522012  57.4059259  33.7115826  64.9370993
  75.9142515  26.4183618  41.3317235  28.1617285  84.2852974  41.2435287
  19.1871507  39.3152290  27.4503229  71.5455707  16.4264511  54.5666079
  79.4552467  45.4813474  73.0096369  32.6809174  12.1568828  58.5533972
  71.6617011  58.3622520  59.6574809  32.4515637  66.3334469   7.9515083
  50.9625228  34.3843024  89.9617171  50.3113208  34.9697105  89.5751185
  51.7569591  34.9149219  90.0212209  44.8880856  31.4732162  90.3604306
  45.6611732  30.9261149  90.2217181  45.2406254  32.3376411  90.5718767
  47.2247133  27.6324828  87.9922756  47.4772654  27.1106349  87.2306219
  46.2871693  27.4690973  88.0949439  52.4400494  32.0733456  90.4986156
  51.8046327  32.1468083  91.2107060  52.1097900  32.6627055  89.8205235
  46.6676563  39.2514280  93.5291966  46.5900593  40.2022105  93.6080447
  46.0638207  38.9060152  94.1866893  54.6054737  26.9532111  90.7082169
  55.5172593  27.1859498  90.5329867  54.0964384  27.5369155  90.1457248
  57.0913551  32.8712367  95.4540114  56.4064589  33.2511269  94.9037148
  57.1757401  33.4807694  96.1872062  48.9414932  34.6096433  92.2497506
  48.8060607  35.4547968  92.6782354  49.4824744  34.8115710  91.4863440
  52.2557678  28.1235606  89.2868835  51.7404302  28.8940210  89.5257222
  51.9834987  27.4500742  89.9101896  57.2291952  30.8767960  91.2222008
  56.4521395  30.5379120  90.7777170  57.9083433  30.8820583  90.5476973
  50.4890413  32.1552921  92.7621570  49.9611775  31.4205681  92.4494807
  49.9877916  32.9327597  92.5161538  48.6343013  29.9733131  85.7656543
  47.7270075  29.7422385  85.9647692  49.1314045  29.1770751  85.9530524
  51.5411092  38.6830639  88.6853229  50.8672791  38.9862335  89.2938187
  51.9276914  39.4859719  88.3358686  49.8131247  30.0745726  90.2880533
  48.9042466  29.7904759  90.3853003  49.8426331  30.4944805  89.4283840
  55.0450514  33.6852316  94.0571701  54.5912841  32.8443226  94.1136891
  54.4144481  34.3213714  94.3946481  53.4883454  35.5228812  94.9921519
  53.7806428  36.0833869  94.2733884  53.9982074  35.8157373  95.7474678
  49.5107335  31.6154470  87.6268612  49.0726765  30.8990329  87.1674249
  50.2517776  31.8430585  87.0653703  57.6280449  29.8911667  93.6844930
  57.4898348  30.0813263  92.7566119  57.2716668  30.6531050  94.1412981
  49.7402307  38.8510311  90.9000308  49.9154063  38.3798354  91.7145931
  49.0535096  39.4776077  91.1281569  53.6318562  30.4738852  87.2200669
  53.0147733  29.7485680  87.1233722  53.1635051  31.2348212  86.8767743
  45.4217108  24.6924276  86.3421973  44.5446575  24.5713077  85.9784220
  45.8974861  23.9010354  86.0900862  48.6081034  37.0450566  93.5884494
  47.8248556  37.5872246  93.6822718  49.3073779  37.5624546  93.9878735
  53.0007465  31.6116883  93.8057123  52.0663744  31.7318345  93.6361827
  53.1784134  30.7089350  93.5417133  54.4556248  33.7978023  91.3393309
  54.7316091  33.6834618  92.2487183  53.5860746  33.3995508  91.3005482
  51.0910312  38.0464374  94.9826122  51.2732706  37.2286030  95.4453875
  51.9143298  38.2632067  94.5451012  51.4252477  36.9732559  92.2441171
  51.9540243  36.4625014  91.6311333  51.6880697  36.6575090  93.1086704
  54.5192661  36.9449358  92.8596154  54.6929538  36.3795780  92.1070006
  55.0121552  37.7450252  92.6775644  55.5067833  36.2616122  89.9593052
  56.2018738  36.8822815  90.1780367  55.8490983  35.4111473  90.2345430
  57.4059256  33.7115828  91.4880383  57.9310580  34.0503100  90.7629703
  57.3181609  32.7762843  91.3043518  49.0899917  39.7787811  95.8475636
  48.6504907  39.2864190  96.5408493  49.8408034  39.2360778  95.6067711
  46.0987296  33.8729743  91.3956398  46.2475416  34.5565208  90.7423071
  46.9053739  33.8534833  91.9105854  49.5982702  36.3677874  88.8668146
  49.0256669  36.9868061  88.4138618  50.1715495  36.9177235  89.4008068
  52.8179961  36.6515024  89.9976728  53.7510634  36.5860586  90.2009604
  52.7303174  37.4871291  89.5391261  55.4467978  35.9680894  86.9580676
  55.3681609  35.6340758  87.8516434  56.2677645  36.4602662  86.9572148
  49.9829500  27.7038686  86.2084198  50.9288605  27.5744895  86.2772616
  49.6043745  26.9653348  86.6853626  48.1672417  25.6288663  86.1439084
  47.2603873  25.3321776  86.2201797  48.4448398  25.3318481  85.2773370
  46.9371202  22.4875598  86.2851063  47.7990366  22.8130496  86.5446880
  47.1221546  21.7007094  85.7724129  53.0171930  33.2848890  86.5790654
  53.7207780  33.4898892  87.1948310  52.2934579  33.8525651  86.8439738
  53.8469740  29.0358751  92.6992924  53.7904941  29.4927302  91.8600557
  54.3998082  28.2749435  92.5215767  54.9258627  33.7231419  88.6289114
  55.7604231  33.2912617  88.4466589  54.7642970  33.5513432  89.5566009
  54.5804519  30.2263532  89.9945453  54.5253323  30.0607804  89.0533897
  53.9550575  30.9339565  90.1507643  55.7274610  46.8024079  90.3604306
  56.5005486  46.2553066  90.2217181  56.0800009  47.6668329  90.5718767
  58.0640888  42.9616745  87.9922756  58.3166409  42.4398267  87.2306219
  57.1265447  42.7982891  88.0949439  57.7837177  44.8644851  90.1947131
  57.6673435  44.1889755  90.8628215  57.8939437  44.3777225  89.3779284
  59.7674205  39.3544898  88.8955168  59.9348607  40.2225135  89.2625639
  59.5771374  39.5172180  87.9716458  59.7463425  41.8102556  89.8801835
  59.6263051  42.2559606  90.7187315  59.0516014  42.1587873  89.3215373
  54.2355001  41.7475540  94.4336011  53.4386164  41.8594234  94.9519507
  54.0080593  42.0862192  93.5676902  51.1987001  45.7852443  93.5985002
  52.0362223  46.1949451  93.3818709  51.3765268  44.8451885  93.5685196
  63.0951433  43.4527523  89.2868835  62.5798056  44.2232128  89.5257222
  62.8228741  42.7792659  89.9101896  60.6798544  38.2977224  94.3454073
  59.8240140  37.9084074  94.1659712  61.0925496  38.3769185  93.4853859
  62.8837736  41.3254615  91.1128616  62.5787871  41.6400765  91.9638759
  63.8368178  41.4036035  91.1555949  56.0602895  38.1464505  95.1228181
  56.6346647  37.9239687  94.3901374  56.6473878  38.2153200  95.8756783
  56.3872482  40.1768966  89.1424067  55.5509795  40.5143653  89.4633341
  56.2477252  40.0417946  88.2051204  58.3625563  35.0205754  93.8503251
  57.7089975  34.7054771  93.2259866  58.3206037  34.3981494  94.5763074
  59.4736768  45.3025049  85.7656543  58.5663830  45.0714302  85.9647692
  59.9707800  44.5062668  85.9530524  60.6525001  45.4037644  90.2880533
  59.7436221  45.1196677  90.3853003  60.6820085  45.8236722  89.4283840
  51.2213172  43.1243158  94.2695735  51.0237572  42.5312519  93.5446802
  50.6659836  42.8195368  94.9871674  60.3501089  46.9446388  87.6268612
  59.9120519  46.2282246  87.1674249  61.0911530  47.1722502  87.0653703
  53.7159397  42.6507192  91.9536687  52.7856986  42.5891647  92.1706649
  53.8116869  42.1283145  91.1573329  53.6344947  39.1762005  94.5414929
  53.8951764  40.0907338  94.4324089  54.4562119  38.7086447  94.6911542
  64.4712317  45.8030769  87.2200669  63.8541487  45.0777597  87.1233722
  64.0028805  46.5640129  86.8767743  56.2610863  40.0216193  86.3421973
  55.3840329  39.9004994  85.9784220  56.7368616  39.2302272  86.0900862
  50.9889557  41.6158049  91.7834879  51.2842998  40.7068727  91.7301933
  50.0877592  41.5945788  91.4615881  52.7177398  39.2972146  91.9074204
  52.3890104  38.4169525  91.7249310  53.0716769  39.2419815  92.7950593
  55.8319221  39.5845116  92.2749682  56.1715294  40.1131037  91.5528290
  56.2791342  39.9225522  93.0508248  57.8187368  38.0819738  90.4742975
  58.5395731  38.4600991  89.9706692  57.1952673  38.8008615  90.5777953
  61.9618491  38.7864887  91.4101307  62.1782106  39.6689525  91.1090135
  61.4812558  38.3951100  90.6806949  57.9650992  37.6167528  93.3040511
  58.0866903  36.6884174  93.5031399  57.6753034  37.6306214  92.3918827
  54.6933683  45.2286839  92.4017467  54.4479725  44.3249169  92.5997677
  54.8629598  45.2303989  91.4596945  53.9629331  40.9615196  89.9003629
  53.2698576  41.0359551  89.2443665  53.7181083  40.1975540  90.4225146
  60.8223254  43.0330604  86.2084198  61.7682359  42.9036812  86.2772616
  60.4437499  42.2945266  86.6853626  59.0066172  40.9580581  86.1439084
  58.0997627  40.6613693  86.2201797  59.2842153  40.6610399  85.2773370
  60.6228237  35.5017470  92.2983325  59.8128966  35.1564555  92.6738571
  61.3112654  35.1925014  92.8870936  62.5518786  34.5795517  93.9207621
  63.1049824  34.9990970  94.5797645  62.7888872  33.6531265  93.9630577
  57.7764956  37.8167516  86.2851063  58.6384120  38.1422414  86.5446880
  57.9615300  37.0299012  85.7724129  65.9297593  36.6896042  93.4286286
  65.3496262  37.3480846  93.0464338  65.6633525  35.8673387  93.0173703
  64.7122471  38.8496133  92.4842634  63.8248326  39.1345783  92.2662829
  65.1276460  38.6889896  91.6369911  63.8565684  48.6140807  86.5790654
  64.5601534  48.8190810  87.1948310  63.1328333  49.1817569  86.8439738
  58.7294399  35.0563559  89.5730772  58.7173069  36.0005399  89.7299043
  59.6217821  34.8733704  89.2790233  50.9625230  11.3905147  76.6862478
  50.3113209  11.9759227  76.2996492  51.7569593  11.9211342  76.7457515
  44.8880857   8.4794284  77.0849612  45.6611733   7.9323271  76.9462488
  45.2406256   9.3438533  77.2964074  47.2247135   4.6386950  74.7168062
  47.4772655   4.1168472  73.9551525  46.2871694   4.4753096  74.8194746
  52.4400495   9.0795579  77.2231462  51.8046328   9.1530205  77.9352367
  52.1097901   9.6689178  76.5450542  46.6676564  16.2576402  80.2537273
  46.5900594  17.2084227  80.3325754  46.0638208  15.9122275  80.9112199
  54.6054738   3.9594234  77.4327476  55.5172594   4.1921620  77.2575173
  54.0964385   4.5431278  76.8702554  57.0913553   9.8774490  82.1785421
  56.4064591  10.2573391  81.6282454  57.1757402  10.4869817  82.9117369
  48.9414933  11.6158555  78.9742813  48.8060608  12.4610091  79.4027661
  49.4824746  11.8177833  78.2108747  52.2557680   5.1297728  76.0114141
  51.7404303   5.9002333  76.2502529  51.9834988   4.4562864  76.6347203
  57.2291954   7.8830083  77.9467315  56.4521396   7.5441242  77.5022477
  57.9083435   7.8882706  77.2722280  50.4890415   9.1615044  79.4866876
  49.9611776   8.4267803  79.1740114  49.9877917   9.9389720  79.2406845
  48.6343015   6.9795254  72.4901849  47.7270076   6.7484507  72.6892998
  49.1314047   6.1832873  72.6775831  51.5411094  15.6892761  75.4098536
  50.8672792  15.9924458  76.0183493  51.9276916  16.4921841  75.0603993
  49.8131248   7.0807849  77.0125840  48.9042467   6.7966882  77.1098309
  49.8426332   7.5006927  76.1529146  55.0450516  10.6914438  80.7817007
  54.5912843   9.8505348  80.8382198  54.4144482  11.3275837  81.1191787
  53.4883455  12.5290935  81.7166825  53.7806429  13.0895992  80.9979191
  53.9982075  12.8219496  82.4719984  49.5107336   8.6216592  74.3513918
  49.0726766   7.9052451  73.8919556  50.2517777   8.8492707  73.7899010
  57.6280451   6.8973789  80.4090237  57.4898349   7.0875385  79.4811426
  57.2716670   7.6593172  80.8658288  49.7402309  15.8572434  77.6245615
  49.9154064  15.3860477  78.4391238  49.0535097  16.4838200  77.8526876
  53.6318564   7.4800974  73.9445976  53.0147734   6.7547802  73.8479028
  53.1635052   8.2410334  73.6013050  45.4217109   1.6986398  73.0667280
  44.5446576   1.5775199  72.7029527  45.8974863   0.9072477  72.8146169
  48.6081036  14.0512689  80.3129801  47.8248557  14.5934369  80.4068025
  49.3073781  14.5686668  80.7124042  53.0007466   8.6179005  80.5302429
  52.0663745   8.7380468  80.3607134  53.1784135   7.7151472  80.2662439
  54.4556249  10.8040146  78.0638616  54.7316093  10.6896741  78.9732490
  53.5860748  10.4057631  78.0250789  51.0910313  15.0526497  81.7071429
  51.2732707  14.2348153  82.1699181  51.9143299  15.2694189  81.2696319
  51.4252478  13.9794682  78.9686478  51.9540245  13.4687137  78.3556640
  51.6880698  13.6637212  79.8332011  54.5192662  13.9511480  79.5841461
  54.6929539  13.3857903  78.8315313  55.0121553  14.7512375  79.4020951
  55.5067834  13.2678245  76.6838359  56.2018739  13.8884937  76.9025674
  55.8490984  12.4173596  76.9590737  57.4059257  10.7177950  78.2125690
  57.9310582  11.0565223  77.4875010  57.3181610   9.7824965  78.0288824
  49.0899918  16.7849933  82.5720943  48.6504908  16.2926312  83.2653800
  49.8408035  16.2422901  82.3313018  46.0987297  10.8791866  78.1201705
  46.2475418  11.5627330  77.4668378  46.9053741  10.8596956  78.6351161
  49.5982703  13.3739996  75.5913452  49.0256670  13.9930183  75.1383924
  50.1715496  13.9239358  76.1253374  52.8179963  13.6577146  76.7222035
  53.7510636  13.5922708  76.9254910  52.7303175  14.4933413  76.2636567
  55.4467979  12.9743017  73.6825982  55.3681611  12.6402880  74.5761740
  56.2677646  13.4664785  73.6817455  49.9829501   4.7100809  72.9329505
  50.9288606   4.5807017  73.0017923  49.6043746   3.9715471  73.4098933
  48.1672418   2.6350785  72.8684390  47.2603874   2.3383898  72.9447104
  48.4448399   2.3380604  72.0018676  53.0171931  10.2911012  73.3035961
  53.7207781  10.4961015  73.9193616  52.2934580  10.8587774  73.5685044
  53.8469741   6.0420873  79.4238231  53.7904943   6.4989425  78.5845863
  54.3998084   5.2811558  79.2461074  54.9258628  10.7293541  75.3534421
  55.7604232  10.2974740  75.1711895  54.7642971  10.5575555  76.2811315
  54.5804521   7.2325655  76.7190760  54.5253324   7.0669926  75.7779204
  53.9550576   7.9401688  76.8752950  63.5542903  21.2463192  85.4489597
  64.1921313  21.1269940  84.7452938  63.4363746  22.1944036  85.5077550
  60.3632610  21.1990621  85.3851122  60.0251121  21.0831685  84.4971657
  61.2322378  20.7981786  85.3652128  56.2219425  23.0526097  81.3748013
  55.6584291  22.9616034  80.6064301  56.1071821  22.2326001  81.8550506
  53.7683857  24.5477289  84.2132234  54.5605149  24.2068113  83.7978533
  54.0080508  24.6572264  85.1334387  61.8018984  26.7197065  76.6862478
  61.1506964  27.3051145  76.2996492  62.5963347  27.2503260  76.7457515
  55.7274611  23.8086202  77.0849612  56.5005487  23.2615189  76.9462488
  56.0800010  24.6730451  77.2964074  57.5659654  25.1362584  90.2916512
  57.2749520  26.0408215  90.1763178  58.2016638  25.1779112  91.0060581
  58.4915861  22.5139433  86.8817871  59.0879433  22.2895455  86.1674834
  58.5490832  21.7724178  87.4843319  58.0640889  19.9678868  74.7168062
  58.3166410  19.4460389  73.9551525  57.1265448  19.8045013  74.8194746
  63.1084172  18.9714646  82.5242805  63.8947261  18.5534069  82.1733222
  63.3722876  19.8760739  82.6924454  63.2794249  24.4087497  77.2231462
  62.6440082  24.4822123  77.9352367  62.9491656  24.9981095  76.5450542
  57.7837178  21.8706974  76.9192437  57.6673436  21.1951877  77.5873522
  57.8939438  21.3839348  76.1024590  60.1268719  21.3317121  80.6239126
  59.7626926  20.8047742  81.3352048  60.9835835  20.9415590  80.4505612
  59.7674206  16.3607021  75.6200475  59.9348608  17.2287257  75.9870946
  59.5771375  16.5234302  74.6961764  62.5249539  24.8224000  87.2866305
  62.2250262  25.7249038  87.1782113  62.1800599  24.5556183  88.1387458
  55.9762020  21.2737796  83.3203010  55.0512517  21.1414011  83.5280702
  56.2246434  22.0532016  83.8172952  59.7463427  18.8164678  76.6047142
  59.6263052  19.2621729  77.4432622  59.0516015  19.1649996  76.0460680
  53.3370832  20.9171070  84.1546799  53.4663213  21.1705549  85.0686211
  52.6568283  21.5098778  83.8351454  57.5070319  31.5868320  80.2537273
  57.4294348  32.5376145  80.3325754  56.9031962  31.2414192  80.9112199
  65.4448493  19.2886151  77.4327476  66.3566349  19.5213538  77.2575173
  64.9358140  19.8723196  76.8702554  64.0518075  24.2711970  84.8241057
  63.4226938  24.4357684  84.1217125  63.6643737  24.6853579  85.5952021
  67.9307307  25.2066408  82.1785421  67.2458345  25.5865309  81.6282454
  68.0151156  25.8161734  82.9117369  59.6046037  24.0086378  82.0891142
  60.0684383  24.2874081  81.2995765  59.3402835  23.1069823  81.9064233
  56.4970118  23.5557859  85.0270906  57.0671475  23.9845128  84.3888390
  57.0878230  23.2740444  85.7255091  58.5414923  20.1309530  78.8980708
  59.2438966  20.5830574  79.3654634  58.2095552  19.4893349  79.5260601
  52.2840257  18.3893083  84.1997841  51.4939311  18.6450612  83.7237952
  52.7751504  19.2041421  84.3049882  54.2355002  18.7537662  81.1581318
  53.4386166  18.8656356  81.6764813  54.0080595  19.0924314  80.2922208
  60.0660670  25.2782365  89.1063832  60.1305103  25.7402773  89.9422004
  59.3571594  24.6479730  89.2346142  59.7808688  26.9450473  78.9742813
  59.6454362  27.7902009  79.4027661  60.3218500  27.1469751  78.2108747
  53.2338085  24.4625911  79.5470738  53.7462606  25.2569161  79.6976303
  53.8860798  23.7652201  79.4804339  55.0432970  27.5791667  81.6293491
  55.2199598  28.5009632  81.4414475  55.8389803  27.2650086  82.0587871
  56.1664285  29.0969841  87.6303833  56.7171710  28.9686904  86.8580827
  55.3275761  29.3964730  87.2798726  51.1987002  22.7914565  80.3230308
  52.0362224  23.2011574  80.1064016  51.3765270  21.8514007  80.2930502
  63.0951434  20.4589646  76.0114141  62.5798057  21.2294251  76.2502529
  62.8228742  19.7854782  76.6347203  60.6798545  15.3039347  81.0699380
  59.8240141  14.9146197  80.8905018  61.0925497  15.3831307  80.2099165
  58.4540578  12.9224420  84.4757121  59.3193574  12.7267228  84.1163011
  58.5218086  12.6934771  85.4026478  68.0685708  23.2122001  77.9467315
  67.2915151  22.8733160  77.5022477  68.7477189  23.2174624  77.2722280
  62.8837737  18.3316738  77.8373922  62.5787873  18.6462887  78.6884066
  63.8368179  18.4098158  77.8801255  61.3284169  24.4906961  79.4866876
  60.8005531  23.7559721  79.1740114  60.8271672  25.2681638  79.2406845
  66.3077015  22.6855982  84.6033923  65.6500689  23.3755243  84.6914051
  67.1117414  23.0752414  84.9467909  56.0602897  15.1526628  81.8473488
  56.6346649  14.9301809  81.1146681  56.6473879  15.2215322  82.6002089
  65.1182474  21.0400355  82.6537865  65.6314356  21.6730346  83.1559574
  65.7683698  20.4401550  82.2881225  56.3872484  17.1831089  75.8669373
  55.5509796  17.5205775  76.1878648  56.2477253  17.0480068  74.9296510
  58.3625564  12.0267877  80.5748557  57.7089977  11.7116894  79.9505172
  58.3206038  11.4043617  81.3008380  59.4736769  22.3087172  72.4901849
  58.5663831  22.0776425  72.6892998  59.9707801  21.5124791  72.6775831
  62.3804848  31.0184679  75.4098536  61.7066547  31.3216376  76.0183493
  62.7670670  31.8213759  75.0603993  61.5963305  18.5149810  84.8996205
  60.6785866  18.7364757  84.7417893  62.0123448  18.5896121  84.0407912
  62.3798352  19.9141226  80.0298885  63.1270171  20.4262623  79.7206007
  62.6489942  19.5925278  80.8903279  60.6525003  22.4099766  77.0125840
  59.7436222  22.1258799  77.1098309  60.6820086  22.8298845  76.1529146
  65.8844270  26.0206356  80.7817007  65.4306597  25.1797266  80.8382198
  65.2538237  26.6567754  81.1191787  64.8277190  16.9498342  82.0117675
  64.0899946  16.4375728  82.3427917  65.0803963  16.5098724  81.2000951
  64.3277209  27.8582853  81.7166825  64.6200184  28.4187910  80.9979191
  64.8375830  28.1511414  82.4719984  51.2213173  20.1305281  80.9941042
  51.0237573  19.5374641  80.2692108  50.6659837  19.8257491  81.7116981
  59.2009897  20.0228387  83.1135635  59.2558506  19.0702223  83.0378112
  58.3901099  20.1787826  83.5976933  60.3501090  23.9508510  74.3513918
  59.9120520  23.2344369  73.8919556  61.0911531  24.1784625  73.7899010
  57.1402257  18.6405447  80.8726014  56.3270122  18.9399617  81.2791206
  57.6361251  18.2461136  81.5900496  59.2910834  28.6363204  82.8060279
  59.2487013  28.8624050  81.8768811  60.2073533  28.4026578  82.9546080
  68.4674205  22.2265707  80.4090237  68.3292104  22.4167303  79.4811426
  68.1110424  22.9885090  80.8658288  56.6316331  16.2123802  86.4887249
  57.2715711  16.0712561  85.7910212  55.7993862  15.9258316  86.1125851
  57.4076635  25.5126233  82.6022241  58.2017234  25.0176553  82.4004816
  56.6968328  24.9844096  82.2389947  62.2271480  27.8944328  86.9534609
  62.2808502  28.4635265  87.7212325  61.3586261  28.0646213  86.5888646
  53.7159399  19.6569314  78.6781994  52.7856987  19.5953770  78.8951956
  53.8116871  19.1345267  77.8818635  53.6344948  16.1824127  81.2660236
  53.8951765  17.0969461  81.1569396  54.4562120  15.7148570  81.4156848
  61.1859579  22.0604590  88.5121541  62.1151639  22.2115750  88.3390508
  60.7650609  22.1488611  87.6570187  59.9847911  26.0855255  86.2820078
  59.8458997  25.7174039  87.1546016  59.1962507  26.6002894  86.1104036
  60.5796063  31.1864351  77.6245615  60.7547819  30.7152394  78.4391238
  59.8928851  31.8130117  77.8526876  61.5353126  25.4636857  83.6708916
  61.2002959  25.4237627  84.5666566  61.0357072  24.7981573  83.1979326
  64.4712318  22.8092892  73.9445976  63.8541489  22.0839720  73.8479028
  64.0028807  23.5702252  73.6013050  58.1379671  20.5824447  88.6845177
  58.8479290  19.9417639  88.6431795  58.0948979  20.8337342  89.6071358
  55.1457149  34.3353714  84.3985475  55.3853747  34.9672238  85.0764494
  54.3026345  33.9841754  84.6850834  56.2610864  17.0278316  73.0667280
  55.3840330  16.9067117  72.7029527  56.7368617  16.2364394  72.8146169
  47.7813004  21.8155476  83.1608787  48.4684044  21.5017206  82.5729802
  47.6261133  22.7196840  82.8876039  59.6585010  30.1432836  86.8026979
  59.5855182  30.9487808  87.3146284  59.2162403  30.3424802  85.9775000
  59.4474790  29.3804606  80.3129801  58.6642312  29.9226287  80.4068025
  60.1467535  29.8978586  80.7124042  62.7571440  15.1899236  82.9564006
  63.2540140  14.4369198  82.6365076  61.9858422  15.2263553  82.3907215
  62.1183694  30.0419670  88.9585138  62.8311666  30.6767135  88.8861039
  61.6273723  30.1383536  88.1425139  63.8401221  23.9470923  80.5302429
  62.9057500  24.0672386  80.3607134  64.0177889  23.0443390  80.2662439
  59.3406409  17.3316619  82.6835691  58.9704196  16.7787659  83.3716596
  59.8365501  16.7274752  82.1310691  67.2273772  19.7888242  81.0652463
  67.6934224  20.6216234  80.9912766  67.6781273  19.3233224  81.7697722
  57.1695607  27.7914114  89.7790708  57.8705067  28.4250597  89.9320103
  56.6990722  28.1328845  89.0186348  65.2950003  26.1332064  78.0638616
  65.5709847  26.0188658  78.9732490  64.4254502  25.7349549  78.0250789
  61.9304067  30.3818415  81.7071429  62.1126462  29.5640070  82.1699181
  62.7537053  30.5986107  81.2696319  62.2646233  29.3086600  78.9686478
  62.7933999  28.7979054  78.3556640  62.5274452  28.9929130  79.8332011
  52.7663325  27.3250469  86.7121811  53.3516762  26.5794157  86.8449715
  52.5688164  27.6354426  87.5958475  55.6201981  30.3601716  81.7284254
  54.9512356  30.8447844  81.2448294  55.4814850  30.6070937  82.6427632
  59.7607249  32.3945460  88.3266912  60.3125557  32.5577081  89.0915997
  60.1013443  32.9849898  87.6546937  50.9889558  18.6220171  78.5080186
  51.2842999  17.7130850  78.4547239  50.0877594  18.6007911  78.1861188
  62.8975637  30.3427435  85.3130594  62.7726776  29.5417175  84.8041540
  63.5554728  30.8373629  84.8244564  54.5183805  16.6976168  84.4907734
  53.7970391  17.3112136  84.3515208  55.3077061  17.2333933  84.4124380
  64.9610545  28.1436455  86.9410144  64.0140880  28.0241807  86.8688471
  65.3093318  27.2558954  87.0236406  52.7177399  16.3034269  78.6319511
  52.3890106  15.4231648  78.4494617  53.0716770  16.2481938  79.5195900
  61.9656978  27.9389172  83.1414496  61.8181941  27.0105879  83.3222066
  62.7910472  27.9609262  82.6571572  55.8319223  16.5907239  78.9994989
  56.1715295  17.1193160  78.2773597  56.2791343  16.9287645  79.7753555
  65.5691100  28.7617730  84.2279369  66.4937648  28.5560592  84.0903820
  65.4006403  28.5134132  85.1368711  57.8187370  15.0881860  77.1988281
  58.5395732  15.4663113  76.6951998  57.1952674  15.8070737  77.3023259
  61.9618493  15.7927009  78.1346614  62.1782107  16.6751647  77.8335442
  61.4812560  15.4013223  77.4052256  56.7017714  18.7512723  84.7117358
  56.5562295  19.0653026  85.6041640  56.2242918  19.3697623  84.1588257
  58.5614097  15.7415271  84.7598248  58.5475666  14.8456364  84.4230546
  59.2786525  15.7485934  85.3936534  65.3586416  29.2803398  79.5841461
  65.5323294  28.7149820  78.8315313  65.8515308  30.0804293  79.4020951
  57.9650993  14.6229651  80.0285818  58.0866904  13.6946297  80.2276705
  57.6753035  14.6368337  79.1164133  66.3461589  28.5970162  76.6838359
  67.0412493  29.2176855  76.9025674  66.6884739  27.7465514  76.9590737
  68.2453012  26.0469868  78.2125690  68.7704336  26.3857141  77.4875010
  68.1575364  25.1116883  78.0288824  59.9073061  29.9603941  90.3415566
  60.2160187  29.7153088  91.2138266  60.7048543  30.1650580  89.8534437
  59.9293673  32.1141851  82.5720943  59.4898663  31.6218230  83.2653800
  60.6801790  31.5714819  82.3313018  52.4086012  28.3053392  82.5745571
  53.2344032  28.0057164  82.1944214  52.0580064  27.5361014  83.0235360
  57.3767545  27.6579860  84.6443245  56.7547554  26.9950565  84.3445472
  58.0472412  27.6840992  83.9616892  50.6094617  26.2239718  83.5334505
  49.7726525  25.7961893  83.3518506  50.5818262  26.4172162  84.4705296
  56.9381052  26.2083784  78.1201705  57.0869172  26.8919248  77.4668378
  57.7447495  26.1888874  78.6351161  54.6933685  22.2348961  79.1262774
  54.4479727  21.3311291  79.3242984  54.8629599  22.2366112  78.1842252
  53.9629332  17.9677319  76.6248935  53.2698577  18.0421674  75.9688971
  53.7181084  17.2037662  77.1470452  60.4376457  28.7031914  75.5913452
  59.8650424  29.3222101  75.1383924  61.0109251  29.2531276  76.1253374
  63.6573717  28.9869064  76.7222035  64.5904390  28.9214626  76.9254910
  63.5696930  29.8225331  76.2636567  66.2861734  28.3034934  73.6825982
  66.2075365  27.9694798  74.5761740  67.1071400  28.7956702  73.6817455
  60.8223256  20.0392727  72.9329505  61.7682360  19.9098935  73.0017923
  60.4437501  19.3007389  73.4098933  59.0066173  17.9642703  72.8684390
  58.0997628  17.6675816  72.9447104  59.2842154  17.6672521  72.0018676
  49.9244113  19.2849067  83.3183437  49.6046898  18.4314375  83.0257811
  49.3777541  19.4997645  84.0741404  53.7024021  22.0011508  87.0352943
  53.9210031  22.9328615  87.0540977  54.1149795  21.6419482  87.8207747
  60.6228239  12.5079593  79.0228631  59.8128967  12.1626678  79.3983878
  61.3112656  12.1987137  79.6116243  62.5518787  11.5857640  80.6452928
  63.1049826  12.0053093  81.3042951  62.7888873  10.6593388  80.6875884
  57.7764958  14.8229638  73.0096369  58.6384122  15.1484537  73.2692187
  57.9615302  14.0361134  72.4969435  49.7932373  22.9051978  85.2876558
  49.0995845  22.4905931  84.7746513  50.5405364  22.9472515  84.6909977
  65.9297594  13.6958165  80.1531592  65.3496263  14.3542969  79.7709645
  65.6633527  12.8735509  79.7419010  51.7069116  22.8370232  83.1642573
  51.6839804  22.9357919  82.2124456  52.0169752  23.6835383  83.4859739
  54.3656494  24.8946387  87.2789187  55.3199747  24.8630329  87.2119119
  54.1669017  24.4337011  88.0939413  54.9555876  23.4647503  89.8459985
  55.7748765  23.9591582  89.8694822  55.2292684  22.5479471  89.8177553
  64.7122472  15.8558255  79.2087941  63.8248327  16.1407906  78.9908135
  65.1276461  15.6952019  78.3615218  52.7206722  30.4366006  84.2959385
  52.5861190  29.6766407  83.7297383  52.3038785  31.1606906  83.8288174
  63.8565685  25.6202930  73.3035961  64.5601536  25.8252932  73.9193616
  63.1328334  26.1879692  73.5685044  64.6863496  21.3712791  79.4238231
  64.6298697  21.8281343  78.5845863  65.2391838  20.6103476  79.2461074
  55.8775848  31.3335323  84.5077828  55.7608233  32.2780756  84.4056518
  55.0568295  31.0308885  84.8963627  65.7652383  26.0585459  75.3534421
  66.5997987  25.6266658  75.1711895  65.6036726  25.8867473  76.2811315
  65.4198275  22.5617572  76.7190760  65.3647079  22.3961844  75.7779204
  64.7944330  23.2693605  76.8752950  58.7294401  12.0625681  76.2976078
  58.7173070  13.0067521  76.4544349  59.6217822  11.8795827  76.0035540
  56.9030362  31.9863585  87.7233756  57.8057609  32.0187195  88.0400251
  56.6767733  31.0564036  87.7380092  58.6583964  30.7394572  84.3843835
  57.7079596  30.7396433  84.2708207  58.9616451  29.9927306  83.8679870
  74.3936658  36.5755110  85.4489597  75.0315068  36.4561858  84.7452938
  74.2757501  37.5235954  85.5077550  71.2026364  36.5282538  85.3851122
  70.8644876  36.4123603  84.4971657  72.0716132  36.1273703  85.3652128
  67.0613180  38.3818015  81.3748013  66.4978045  38.2907952  80.6064301
  66.9465575  37.5617919  81.8550506  64.6077612  39.8769206  84.2132234
  65.3998904  39.5360031  83.7978533  64.8474262  39.9864181  85.1334387
  72.6412739  42.0488982  76.6862478  71.9900718  42.6343063  76.2996492
  73.4357101  42.5795177  76.7457515  66.5668366  39.1378120  77.0849612
  67.3399242  38.5907107  76.9462488  66.9193765  40.0022369  77.2964074
  69.3309615  37.8431350  86.8817871  69.9273188  37.6187373  86.1674834
  69.3884587  37.1016096  87.4843319  68.9034644  35.2970786  74.7168062
  69.1560164  34.7752307  73.9551525  67.9659203  35.1336931  74.8194746
  73.9477926  34.3006564  82.5242805  74.7341016  33.8825987  82.1733222
  74.2116631  35.2052656  82.6924454  74.1188004  39.7379414  77.2231462
  73.4833837  39.8114041  77.9352367  73.7885410  40.3273013  76.5450542
  68.6230932  37.1998892  76.9192437  68.5067190  36.5243795  77.5873522
  68.7333192  36.7131266  76.1024590  70.9662473  36.6609039  80.6239126
  70.6020681  36.1339660  81.3352048  71.8229589  36.2707508  80.4505612
  70.6067960  31.6898938  75.6200475  70.7742363  32.5579175  75.9870946
  70.4165129  31.8526220  74.6961764  73.3643293  40.1515917  87.2866305
  73.0644017  41.0540956  87.1782113  73.0194353  39.8848101  88.1387458
  66.8155775  36.6029714  83.3203010  65.8906271  36.4705928  83.5280702
  67.0640188  37.3823933  83.8172952  70.5857181  34.1456596  76.6047142
  70.4656806  34.5913647  77.4432622  69.8909770  34.4941914  76.0460680
  64.1764586  36.2462988  84.1546799  64.3056967  36.4997467  85.0686211
  63.4962037  36.8390696  83.8351454  68.3464073  46.9160238  80.2537273
  68.2688103  47.8668063  80.3325754  67.7425717  46.5706110  80.9112199
  76.2842247  34.6178069  77.4327476  77.1960103  34.8505456  77.2575173
  75.7751894  35.2015113  76.8702554  74.8911830  39.6003888  84.8241057
  74.2620692  39.7649602  84.1217125  74.5037492  40.0145497  85.5952021
  78.7701062  40.5358325  82.1785421  78.0852100  40.9157227  81.6282454
  78.8544911  41.1453652  82.9117369  70.4439792  39.3378296  82.0891142
  70.9078137  39.6165999  81.2995765  70.1796590  38.4361740  81.9064233
  67.3363873  38.8849777  85.0270906  67.9065230  39.3137046  84.3888390
  67.9271984  38.6032362  85.7255091  69.3808678  35.4601448  78.8980708
  70.0832721  35.9122492  79.3654634  69.0489306  34.8185267  79.5260601
  63.1234012  33.7185001  84.1997841  62.3333066  33.9742529  83.7237952
  63.6145259  34.5333339  84.3049882  65.0748757  34.0829580  81.1581318
  64.2779920  34.1948274  81.6764813  64.8474349  34.4216232  80.2922208
  61.4071715  33.9715491  86.6312832  61.6579753  34.8562501  86.8970408
  61.9431263  33.7920093  85.8587924  70.6202442  42.2742391  78.9742813
  70.4848117  43.1193926  79.4027661  71.1612255  42.4761668  78.2108747
  64.0731840  39.7917829  79.5470738  64.5856360  40.5861079  79.6976303
  64.7254552  39.0944119  79.4804339  65.8826724  42.9083585  81.6293491
  66.0593353  43.8301550  81.4414475  66.6783558  42.5942004  82.0587871
  65.1679081  34.9548217  91.5055654  65.0532596  34.0533474  91.8062753
  64.3123599  35.2011914  91.1540471  67.0058040  44.4261759  87.6303833
  67.5565465  44.2978822  86.8580827  66.1669516  44.7256648  87.2798726
  62.0380756  38.1206483  80.3230308  62.8755978  38.5303491  80.1064016
  62.2159024  37.1805925  80.2930502  73.9345188  35.7881564  76.0114141
  73.4191812  36.5586168  76.2502529  73.6622497  35.1146700  76.6347203
  71.5192300  30.6331264  81.0699380  70.6633896  30.2438115  80.8905018
  71.9319251  30.7123225  80.2099165  69.2934332  28.2516337  84.4757121
  70.1587329  28.0559146  84.1163011  69.3611841  28.0226689  85.4026478
  78.9079463  38.5413918  77.9467315  78.1308905  38.2025078  77.5022477
  79.5870944  38.5466541  77.2722280  73.7231492  33.6608656  77.8373922
  73.4181627  33.9754805  78.6884066  74.6761934  33.7390076  77.8801255
  72.1677924  39.8198879  79.4866876  71.6399285  39.0851639  79.1740114
  71.6665426  40.5973555  79.2406845  77.1470770  38.0147899  84.6033923
  76.4894444  38.7047161  84.6914051  77.9511169  38.4044331  84.9467909
  66.8996651  30.4818545  81.8473488  67.4740403  30.2593727  81.1146681
  67.4867634  30.5507240  82.6002089  75.9576228  36.3692272  82.6537865
  76.4708110  37.0022264  83.1559574  76.6077452  35.7693468  82.2881225
  67.2266238  32.5123006  75.8669373  66.3903550  32.8497693  76.1878648
  67.0871008  32.3771986  74.9296510  69.2019319  27.3559794  80.5748557
  68.5483731  27.0408811  79.9505172  69.1599793  26.7335535  81.3008380
  70.3130524  37.6379089  72.4901849  69.4057585  37.4068343  72.6892998
  70.8101556  36.8416709  72.6775831  73.2198603  46.3476596  75.4098536
  72.5460301  46.6508293  76.0183493  73.6064425  47.1505677  75.0603993
  72.4357059  33.8441728  84.8996205  71.5179621  34.0656675  84.7417893
  72.8517203  33.9188038  84.0407912  73.2192107  35.2433143  80.0298885
  73.9663926  35.7554541  79.7206007  73.4883696  34.9217196  80.8903279
  71.4918757  37.7391684  77.0125840  70.5829976  37.4550717  77.1098309
  71.5213841  38.1590763  76.1529146  76.7238025  41.3498274  80.7817007
  76.2700352  40.5089184  80.8382198  76.0931991  41.9859672  81.1191787
  75.6670944  32.2790260  82.0117675  74.9293701  31.7667646  82.3427917
  75.9197718  31.8390641  81.2000951  75.1670964  43.1874770  81.7166825
  75.4593938  43.7479827  80.9979191  75.6769584  43.4803331  82.4719984
  62.0606928  35.4597198  80.9941042  61.8631327  34.8666559  80.2692108
  61.5053591  35.1549408  81.7116981  70.0403651  35.3520305  83.1135635
  70.0952261  34.3994141  83.0378112  69.2294853  35.5079744  83.5976933
  71.1894845  39.2800428  74.3513918  70.7514275  38.5636287  73.8919556
  71.9305286  39.5076543  73.7899010  67.9796011  33.9697364  80.8726014
  67.1663877  34.2691535  81.2791206  68.4755005  33.5753053  81.5900496
  70.1304589  43.9655121  82.8060279  70.0880768  44.1915968  81.8768811
  71.0467288  43.7318496  82.9546080  79.3067960  37.5557625  80.4090237
  79.1685858  37.7459221  79.4811426  78.9504179  38.3177008  80.8658288
  67.4710086  31.5415720  86.4887249  68.1109465  31.4004479  85.7910212
  66.6387616  31.2550233  86.1125851  68.2470390  40.8418150  82.6022241
  69.0410988  40.3468471  82.4004816  67.5362082  40.3136014  82.2389947
  64.5553153  34.9861232  78.6781994  63.6250741  34.9245688  78.8951956
  64.6510625  34.4637185  77.8818635  64.4738702  31.5116045  81.2660236
  64.7345520  32.4261378  81.1569396  65.2955875  31.0440488  81.4156848
  65.9463628  32.9253802  88.4359060  66.6186681  32.7171164  87.7871709
  65.1193414  32.7275888  87.9964292  72.0253334  37.3896508  88.5121541
  72.9545394  37.5407668  88.3390508  71.6044364  37.4780529  87.6570187
  70.8241666  41.4147172  86.2820078  70.6852751  41.0465957  87.1546016
  70.0356262  41.9294812  86.1104036  71.4189818  46.5156269  77.6245615
  71.5941573  46.0444312  78.4391238  70.7322606  47.1422035  77.8526876
  72.3746881  40.7928775  83.6708916  72.0396713  40.7529545  84.5666566
  71.8750827  40.1273491  83.1979326  66.3491125  36.1996405  89.1961497
  66.2110923  35.4676644  89.7973036  67.2596048  36.1105305  88.9145685
  75.3106073  38.1384809  73.9445976  74.6935243  37.4131638  73.8479028
  74.8422561  38.8994170  73.6013050  68.9773426  35.9116364  88.6845177
  69.6873044  35.2709557  88.6431795  68.9342734  36.1629259  89.6071358
  65.9850903  49.6645632  84.3985475  66.2247501  50.2964156  85.0764494
  65.1420099  49.3133672  84.6850834  67.1004618  32.3570234  73.0667280
  66.2234085  32.2359035  72.7029527  67.5762372  31.5656312  72.8146169
  58.6206759  37.1447393  83.1608787  59.3077798  36.8309124  82.5729802
  58.4654887  38.0488758  82.8876039  63.4241481  32.0337590  87.5893811
  63.3399669  31.4263260  86.8544221  62.6024187  32.5246608  87.5903307
  70.2868544  44.7096524  80.3129801  69.5036066  45.2518204  80.4068025
  70.9861290  45.2270504  80.7124042  73.5965195  30.5191154  82.9564006
  74.0933894  29.7661116  82.6365076  72.8252176  30.5555470  82.3907215
  74.6794975  39.2762841  80.5302429  73.7451254  39.3964303  80.3607134
  74.8571644  38.3735308  80.2662439  70.1800163  32.6608537  82.6835691
  69.8097951  32.1079577  83.3716596  70.6759256  32.0566670  82.1310691
  78.0667527  35.1180160  81.0652463  78.5327979  35.9508152  80.9912766
  78.5175027  34.6525142  81.7697722  76.1343758  41.4623981  78.0638616
  76.4103602  41.3480576  78.9732490  75.2648256  41.0641466  78.0250789
  72.7697822  45.7110332  81.7071429  72.9520216  44.8931988  82.1699181
  73.5930808  45.9278024  81.2696319  73.1039987  44.6378517  78.9686478
  73.6327754  44.1270972  78.3556640  73.3668207  44.3221048  79.8332011
  63.6057080  42.6542387  86.7121811  64.1910517  41.9086075  86.8449715
  63.4081918  42.9646343  87.5958475  66.4595735  45.6893634  81.7284254
  65.7906110  46.1739762  81.2448294  66.3208605  45.9362854  82.6427632
  58.1974735  35.2247987  85.4326254  58.2358834  34.6911578  86.2263372
  57.6915028  34.6983192  84.8137231  65.5765497  30.0712527  88.9288797
  65.6406823  30.9327358  88.5166194  65.5132617  29.4586529  88.1961155
  61.8283312  33.9512089  78.5080186  62.1236753  33.0422767  78.4547239
  60.9271348  33.9299828  78.1861188  65.3577559  32.0268086  84.4907734
  64.6364145  32.6404053  84.3515208  66.1470815  32.5625850  84.4124380
  63.5571154  31.6326187  78.6319511  63.2283860  30.7523566  78.4494617
  63.9110525  31.5773855  79.5195900  72.8050733  43.2681089  83.1414496
  72.6575695  42.3397797  83.3222066  73.6304226  43.2901180  82.6571572
  66.6712977  31.9199156  78.9994989  67.0109050  32.4485078  78.2773597
  67.1185098  32.2579563  79.7753555  76.4084855  44.0909648  84.2279369
  77.3331402  43.8852509  84.0903820  76.2400158  43.8426049  85.1368711
  68.6581124  30.4173778  77.1988281  69.3789487  30.7955031  76.6951998
  68.0346428  31.1362655  77.3023259  72.8012247  31.1218927  78.1346614
  73.0175861  32.0043565  77.8335442  72.3206314  30.7305140  77.4052256
  67.5411468  34.0804640  84.7117358  67.3956049  34.3944943  85.6041640
  67.0636672  34.6989541  84.1588257  69.4007851  31.0707188  84.7598248
  69.3869420  30.1748282  84.4230546  70.1180279  31.0777852  85.3936534
  76.1980171  44.6095316  79.5841461  76.3717048  44.0441738  78.8315313
  76.6909062  45.4096210  79.4020951  62.0157131  36.6209985  87.6505019
  61.4710599  37.3969793  87.7825294  62.8936480  36.9680789  87.4924141
  68.8044747  29.9521569  80.0285818  68.9260658  29.0238215  80.2276705
  68.5146790  29.9660254  79.1164133  77.1855343  43.9262080  76.6838359
  77.8806248  44.5468773  76.9025674  77.5278493  43.0757431  76.9590737
  62.8023152  35.7479881  90.5435176  62.0604888  35.8962516  91.1299807
  62.4815897  36.0088147  89.6801926  79.0846766  41.3761785  78.2125690
  79.6098090  41.7149058  77.4875010  78.9969119  40.4408801  78.0288824
  70.7687427  47.4433769  82.5720943  70.3292417  46.9510147  83.2653800
  71.5195544  46.9006736  82.3313018  63.2479766  43.6345310  82.5745571
  64.0737786  43.3349081  82.1944214  62.8973818  42.8652932  83.0235360
  68.2161299  42.9871778  84.6443245  67.5941309  42.3242483  84.3445472
  68.8866166  43.0132910  83.9616892  61.4488371  41.5531636  83.5334505
  60.6120279  41.1253810  83.3518506  61.4212017  41.7464079  84.4705296
  67.7774806  41.5375701  78.1201705  67.9262927  42.2211166  77.4668378
  68.5841250  41.5180791  78.6351161  65.5327439  37.5640879  79.1262774
  65.2873481  36.6603209  79.3242984  65.7023354  37.5658029  78.1842252
  64.8023087  33.2969236  76.6248935  64.1092332  33.3713591  75.9688971
  64.5574839  32.5329580  77.1470452  71.2770212  44.0323832  75.5913452
  70.7044179  44.6514019  75.1383924  71.8503005  44.5823193  76.1253374
  74.4967472  44.3160982  76.7222035  75.4298145  44.2506543  76.9254910
  74.4090684  45.1517249  76.2636567  77.1255488  43.6326852  73.6825982
  77.0469120  43.2986716  74.5761740  77.9465155  44.1248620  73.6817455
  71.6617010  35.3684644  72.9329505  72.6076115  35.2390853  73.0017923
  71.2831255  34.6299306  73.4098933  69.8459927  33.2934621  72.8684390
  68.9391383  32.9967733  72.9447104  70.1235908  32.9964439  72.0018676
  60.7637868  34.6140984  83.3183437  60.4440652  33.7606292  83.0257811
  60.2171296  34.8289562  84.0741404  64.5417775  37.3303425  87.0352943
  64.7603785  38.2620533  87.0540977  64.9543549  36.9711400  87.8207747
  71.4621993  27.8371510  79.0228631  70.6522721  27.4918595  79.3983878
  72.1506410  27.5279054  79.6116243  73.3912541  26.9149557  80.6452928
  73.9443580  27.3345011  81.3042951  73.6282628  25.9885305  80.6875884
  68.6158712  30.1521556  73.0096369  69.4777876  30.4776454  73.2692187
  68.8009056  29.3653052  72.4969435  60.6326128  38.2343896  85.2876558
  59.9389599  37.8197848  84.7746513  61.3799119  38.2764432  84.6909977
  76.7691348  29.0250082  80.1531592  76.1890018  29.6834886  79.7709645
  76.5027281  28.2027427  79.7419010  62.5462870  38.1662149  83.1642573
  62.5233558  38.2649837  82.2124456  62.8563507  39.0127300  83.4859739
  65.2050248  40.2238304  87.2789187  66.1593502  40.1922247  87.2119119
  65.0062772  39.7628928  88.0939413  65.7949630  38.7939421  89.8459985
  66.6142519  39.2883499  89.8694822  66.0686438  37.8771389  89.8177553
  75.5516227  31.1850173  79.2087941  74.6642082  31.4699823  78.9908135
  75.9670216  31.0243936  78.3615218  63.5600477  45.7657924  84.2959385
  63.4254945  45.0058325  83.7297383  63.1432539  46.4898824  83.8288174
  74.6959440  40.9494848  73.3035961  75.3995290  41.1544850  73.9193616
  73.9722089  41.5171609  73.5685044  75.5257250  36.7004709  79.4238231
  75.4692452  37.1573260  78.5845863  76.0785593  35.9395393  79.2461074
  66.7169603  46.6627241  84.5077828  66.6001987  47.6072673  84.4056518
  65.8962049  46.3600803  84.8963627  76.6046137  41.3877377  75.3534421
  77.4391741  40.9558575  75.1711895  76.4430480  41.2159390  76.2811315
  76.2592030  37.8909490  76.7190760  76.2040833  37.7253761  75.7779204
  75.6338085  38.5985523  76.8752950  61.0484545  33.1277554  90.5452182
  61.6943408  32.6176508  91.0339407  60.8401696  33.8646236  91.1195607
  69.5688155  27.3917599  76.2976078  69.5566825  28.3359439  76.4544349
  70.4611577  27.2087744  76.0035540  69.4977719  46.0686489  84.3843835
  68.5473350  46.0688351  84.2708207  69.8010205  45.3219224  83.8679870
  77.4062120  54.4670037  77.0849612  78.1792996  53.9199024  76.9462488
  77.7587519  55.3314287  77.2964074  79.7428398  50.6262703  74.7168062
  79.9953919  50.1044225  73.9551525  78.8052957  50.4628849  74.8194746
  79.4624687  52.5290809  76.9192437  79.3460945  51.8535713  77.5873522
  79.5726947  52.0423183  76.1024590  81.4461715  47.0190856  75.6200475
  81.6136117  47.8871092  75.9870946  81.2558884  47.1818138  74.6961764
  81.4250936  49.4748514  76.6047142  81.3050561  49.9205564  77.4432622
  80.7303524  49.8233831  76.0460680  75.9142511  49.4121498  81.1581318
  75.1173675  49.5240192  81.6764813  75.6868104  49.7508150  80.2922208
  72.8774511  53.4498401  80.3230308  73.7149733  53.8595409  80.1064016
  73.0552779  52.5097843  80.2930502  84.7738943  51.1173481  76.0114141
  84.2585566  51.8878086  76.2502529  84.5016251  50.4438617  76.6347203
  82.3586054  45.9623182  81.0699380  81.5027650  45.5730032  80.8905018
  82.7713006  46.0415143  80.2099165  84.5625246  48.9900573  77.8373922
  84.2575382  49.3046723  78.6884066  85.5155688  49.0681993  77.8801255
  77.7390406  45.8110463  81.8473488  78.3134158  45.5885644  81.1146681
  78.3261388  45.8799157  82.6002089  78.0659993  47.8414924  75.8669373
  77.2297305  48.1789611  76.1878648  77.9264762  47.7063904  74.9296510
  80.0413073  42.6851712  80.5748557  79.3877486  42.3700729  79.9505172
  79.9993547  42.0627452  81.3008380  81.1524278  52.9671007  72.4901849
  80.2451340  52.7360260  72.6892998  81.6495310  52.1708626  72.6775831
  82.3312512  53.0683602  77.0125840  81.4223731  52.7842635  77.1098309
  82.3607595  53.4882680  76.1529146  72.9000682  50.7889116  80.9941042
  72.7025082  50.1958477  80.2692108  72.3447346  50.4841326  81.7116981
  82.0288599  54.6092345  74.3513918  81.5908029  53.8928204  73.8919556
  82.7699040  54.8368460  73.7899010  75.3946908  50.3153150  78.6781994
  74.4644496  50.2537605  78.8951956  75.4904380  49.7929103  77.8818635
  75.3132457  46.8407963  81.2660236  75.5739274  47.7553296  81.1569396
  76.1349629  46.3732405  81.4156848  86.1499827  53.4676727  73.9445976
  85.5328998  52.7423555  73.8479028  85.6816315  54.2286087  73.6013050
  77.9398373  47.6862151  73.0667280  77.0627839  47.5650952  72.7029527
  78.4156126  46.8948230  72.8146169  72.6677067  49.2804007  78.5080186
  72.9630508  48.3714685  78.4547239  71.7665103  49.2591746  78.1861188
  74.3964908  46.9618104  78.6319511  74.0677615  46.0815483  78.4494617
  74.7504279  46.9065773  79.5195900  77.5106732  47.2491074  78.9994989
  77.8502804  47.7776995  78.2773597  77.9578852  47.5871480  79.7753555
  79.4974879  45.7465696  77.1988281  80.2183241  46.1246949  76.6951998
  78.8740183  46.4654573  77.3023259  83.6406002  46.4510845  78.1346614
  83.8569616  47.3335483  77.8335442  83.1600069  46.0597058  77.4052256
  79.6438502  45.2813486  80.0285818  79.7654413  44.3530132  80.2276705
  79.3540544  45.2952172  79.1164133  76.3721194  52.8932797  79.1262774
  76.1267236  51.9895127  79.3242984  76.5417108  52.8949947  78.1842252
  75.6416841  48.6261154  76.6248935  74.9486086  48.7005509  75.9688971
  75.3968593  47.8621498  77.1470452  82.5010765  50.6976562  72.9329505
  83.4469869  50.5682770  73.0017923  82.1225010  49.9591224  73.4098933
  80.6853682  48.6226538  72.8684390  79.7785137  48.3259651  72.9447104
  80.9629663  48.3256357  72.0018676  82.3015748  43.1663428  79.0228631
  81.4916476  42.8210513  79.3983878  82.9900165  42.8570972  79.6116243
  84.2306296  42.2441475  80.6452928  84.7837335  42.6636928  81.3042951
  84.4676382  41.3177223  80.6875884  87.6085103  44.3542000  80.1531592
  87.0283772  45.0126804  79.7709645  87.3421036  43.5319345  79.7419010
  86.3909981  46.5142091  79.2087941  85.5035836  46.7991741  78.9908135
  86.8063970  46.3535854  78.3615218  85.5353194  56.2786765  73.3035961
  86.2389045  56.4836768  73.9193616  84.8115843  56.8463527  73.5685044
  80.4081910  42.7209517  76.2976078  80.3960579  43.6651357  76.4544349
  81.3005331  42.5379662  76.0035540  57.5070320   8.5930443  66.9782580
  57.4294350   9.5438268  67.0571060  56.9031964   8.2476315  67.6357506
  59.7808689   3.9512596  65.6988119  59.6454364   4.7964131  66.1272967
  60.3218501   4.1531873  64.9354053  55.0432971   4.5853790  68.3538798
  55.2199599   5.5071755  68.1659782  55.8389805   4.2712209  68.7833177
  56.1664287   6.1031964  74.3549140  56.7171712   5.9749027  73.5826134
  55.3275762   6.4026853  74.0044033  62.3804849   8.0246801  62.1343842
  61.7066548   8.3278498  62.7428800  62.7670671   8.8275882  61.7849299
  64.3277211   4.8644975  68.4412132  64.6200185   5.4250032  67.7224498
  64.8375831   5.1573536  69.1965291  59.2910836   5.6425326  69.5305585
  59.2487015   5.8686173  68.6014117  60.2073535   5.4088701  69.6791386
  62.2271481   4.9006451  73.6779915  62.2808503   5.4697387  74.4457631
  61.3586262   5.0708336  73.3133953  60.5796064   8.1926474  64.3490921
  60.7547820   7.7214517  65.1636544  59.8928853   8.8192240  64.5772182
  55.1457150  11.3415837  71.1230782  55.3853748  11.9734361  71.8009800
  54.3026346  10.9903877  71.4096141  59.6585012   7.1494959  73.5272286
  59.5855183   7.9549931  74.0391590  59.2162405   7.3486925  72.7020307
  59.4474791   6.3866729  67.0375107  58.6642313   6.9288409  67.1313332
  60.1467536   6.9040709  67.4369348  62.1183695   7.0481793  75.6830444
  62.8311667   7.6829258  75.6106346  61.6273724   7.1445659  74.8670446
  57.1695609   4.7976237  76.5036015  57.8705068   5.4312719  76.6565409
  56.6990724   5.1390968  75.7431654  61.9304069   7.3880537  68.4316736
  62.1126463   6.5702193  68.8944488  62.7537055   7.6048229  67.9941626
  62.2646234   6.3148722  65.6931784  62.7934000   5.8041177  65.0801946
  62.5274454   5.9991252  66.5577317  52.7663327   4.3312592  73.4367118
  53.3516764   3.5856279  73.5695022  52.5688165   4.6416548  74.3203782
  55.6201982   7.3663839  68.4529560  54.9512357   7.8509967  67.9693600
  55.4814852   7.6133059  69.3672939  59.7607251   9.4007582  75.0512219
  60.3125559   9.5639204  75.8161304  60.1013444   9.9912020  74.3792243
  62.8975638   7.3489558  72.0375901  62.7726777   6.5479298  71.5286846
  63.5554729   7.8435751  71.5489871  61.9656980   4.9451294  69.8659803
  61.8181942   4.0168002  70.0467373  62.7910473   4.9671385  69.3816878
  65.5691101   5.7679853  70.9524676  66.4937649   5.5622714  70.8149127
  65.4006405   5.5196254  71.8614017  65.3586418   6.2865520  66.3086767
  65.5323295   5.7211943  65.5560620  65.8515309   7.0866415  66.1266257
  59.9073062   6.9666064  77.0660873  60.2160188   6.7215211  77.9383573
  60.7048544   7.1712703  76.5779743  59.9293674   9.1203974  69.2966249
  59.4898664   8.6280352  69.9899106  60.6801791   8.5776941  69.0558325
  52.4086013   5.3115515  69.2990878  53.2344033   5.0119286  68.9189521
  52.0580065   4.5423137  69.7480666  57.3767546   4.6641983  71.3688551
  56.7547555   4.0012688  71.0690779  58.0472413   4.6903115  70.6862199
  50.6094618   3.2301841  70.2579811  49.7726526   2.8024015  70.0763812
  50.5818263   3.4234284  71.1950602  56.9381053   3.2145906  64.8447012
  57.0869173   3.8981371  64.1913684  57.7447496   3.1950996  65.3596467
  60.4376459   5.7094037  62.3158759  59.8650426   6.3284224  61.8629231
  61.0109252   6.2593398  62.8498681  63.6573718   5.9931187  63.4467341
  64.5904391   5.9276748  63.6500217  63.5696931   6.8287454  62.9881874
  49.7932375  -0.0885899  72.0121865  49.0995846  -0.5031947  71.4991819
  50.5405366  -0.0465363  71.4155284  54.3656495   1.9008509  74.0034494
  55.3199748   1.8692452  73.9364426  54.1669019   1.4399133  74.8184720
  52.7206724   7.4428129  71.0204692  52.5861192   6.6828530  70.4542690
  52.3038786   8.1669029  70.5533481  55.8775850   8.3397446  71.2323135
  55.7608234   9.2842878  71.1301825  55.0568296   8.0371007  71.6208934
  56.9030364   8.9925708  74.4479063  57.8057610   9.0249318  74.7645558
  56.6767734   8.0626159  74.4625399  58.6583966   7.7456694  71.1089142
  57.7079597   7.7458556  70.9953514  58.9616452   6.9989429  70.5925176
  74.3936659  13.5817233  72.1734904  75.0315069  13.4623980  71.4698244
  74.2757502  14.5298077  72.2322856  71.2026366  13.5344661  72.1096429
  70.8644877  13.4185726  71.2216964  72.0716134  13.1335826  72.0897435
  67.0613181  15.3880137  68.0993320  66.4978046  15.2970074  67.3309607
  66.9465576  14.5680042  68.5795812  64.6077613  16.8831329  70.9377540
  65.3998905  16.5422154  70.5223839  64.8474263  16.9926304  71.8579693
  72.6412740  19.0551105  63.4107785  71.9900720  19.6405185  63.0241798
  73.4357103  19.5857300  63.4702822  66.5668367  16.1440242  63.8094919
  67.3399243  15.5969229  63.6707795  66.9193766  17.0084491  64.0209380
  68.4053410  17.4716624  77.0161818  68.1143276  18.3762255  76.9008485
  69.0410394  17.5133152  77.7305888  69.3309617  14.8493473  73.6063178
  69.9273189  14.6249495  72.8920141  69.3884588  14.1078218  74.2088626
  68.9034645  12.3032908  61.4413369  69.1560166  11.7814430  60.6796832
  67.9659204  12.1399054  61.5440052  73.9477928  11.3068687  69.2488112
  74.7341017  10.8888110  68.8978529  74.2116632  12.2114779  69.4169760
  74.1188005  16.7441537  63.9476769  73.4833838  16.8176163  64.6597674
  73.7885411  17.3335136  63.2695848  68.6230934  14.2061014  63.6437744
  68.5067192  13.5305918  64.3118828  68.7333194  13.7193388  62.8269897
  70.9662475  13.6671161  67.3484433  70.6020682  13.1401782  68.0597355
  71.8229590  13.2769630  67.1750918  70.6067962   8.6961061  62.3445782
  70.7742364   9.5641297  62.7116253  70.4165131   8.8588343  61.4207071
  73.3643295  17.1578040  74.0111612  73.0644018  18.0603079  73.9027419
  73.0194354  16.8910223  74.8632765  66.8155776  13.6091837  70.0448316
  65.8906273  13.4768051  70.2526008  67.0640189  14.3886056  70.5418259
  70.5857182  11.1518718  63.3292448  70.4656808  11.5975769  64.1677929
  69.8909771  11.5004036  62.7705987  64.1764587  13.2525110  70.8792105
  64.3056968  13.5059589  71.7931517  63.4962039  13.8452818  70.5596761
  68.3464075  23.9222360  66.9782580  68.2688104  24.8730185  67.0571060
  67.7425718  23.5768233  67.6357506  76.2842249  11.6240192  64.1572782
  77.1960105  11.8567578  63.9820480  75.7751896  12.2077236  63.5947861
  74.8911831  16.6066010  71.5486364  74.2620693  16.7711724  70.8462432
  74.5037493  17.0207620  72.3197328  78.7701063  17.5420448  68.9030728
  78.0852101  17.9219349  68.3527761  78.8544912  18.1515775  69.6362675
  70.4439793  16.3440418  68.8136449  70.9078138  16.6228121  68.0241072
  70.1796591  15.4423863  68.6309540  67.3363874  15.8911900  71.7516212
  67.9065231  16.3199168  71.1133697  67.9271986  15.6094484  72.4500398
  69.3808679  12.4663571  65.6226014  70.0832722  12.9184614  66.0899941
  69.0489307  11.8247389  66.2505907  63.1234013  10.7247123  70.9243148
  62.3333067  10.9804652  70.4483258  63.6145260  11.5395461  71.0295188
  65.0748758  11.0891702  67.8826624  64.2779921  11.2010397  68.4010120
  64.8474350  11.4278355  67.0167515  70.9054426  17.6136406  75.8309139
  70.9698858  18.0756813  76.6667311  70.1965350  16.9833771  75.9591449
  61.4071716  10.9777614  73.3558139  61.6579754  11.8624624  73.6215714
  61.9431264  10.7982215  72.5833230  70.6202443  19.2804513  65.6988119
  70.4848118  20.1256049  66.1272967  71.1612256  19.4823791  64.9354053
  64.0731841  16.7979951  66.2716044  64.5856361  17.5923201  66.4221609
  64.7254554  16.1006242  66.2049646  65.8826726  19.9145708  68.3538798
  66.0593354  20.8363672  68.1659782  66.6783559  19.6004127  68.7833177
  65.1679082  11.9610339  78.2300961  65.0532597  11.0595597  78.5308060
  64.3123600  12.2074036  77.8785777  67.0058041  21.4323881  74.3549140
  67.5565466  21.3040945  73.5826134  66.1669517  21.7318770  74.0044033
  62.0380758  15.1268606  67.0475615  62.8755980  15.5365614  66.8309323
  62.2159025  14.1868048  67.0175809  73.9345190  12.7943686  62.7359448
  73.4191813  13.5648291  62.9747835  73.6622498  12.1208822  63.3592509
  71.5192301   7.6393387  67.7944686  70.6633897   7.2500237  67.6150325
  71.9319253   7.7185348  66.9344472  78.9079464  15.5476041  64.6712621
  78.1308907  15.2087200  64.2267784  79.5870945  15.5528664  63.9967586
  73.7231493  10.6670778  64.5619229  73.4181628  10.9816927  65.4129372
  74.6761935  10.7452198  64.6046562  72.1677925  16.8261002  66.2112183
  71.6399286  16.0913761  65.8985421  71.6665427  17.6035678  65.9652151
  77.1470771  15.0210022  71.3279229  76.4894445  15.7109283  71.4159358
  77.9511170  15.4106454  71.6713216  66.8996652   7.4880668  68.5718795
  67.4740404   7.2655849  67.8391988  67.4867635   7.5569362  69.3247396
  75.9576230  13.3754395  69.3783171  76.4708111  14.0084387  69.8804881
  76.6077453  12.7755590  69.0126531  67.2266239   9.5185129  62.5914680
  66.3903552   9.8559815  62.9123955  67.0871009   9.3834109  61.6541817
  70.3130525  14.6441212  59.2147156  69.4057587  14.4130465  59.4138305
  70.8101557  13.8478831  59.4021138  73.2198604  23.3538719  62.1343842
  72.5460303  23.6570416  62.7428800  73.6064426  24.1567799  61.7849299
  72.4357060  10.8503850  71.6241512  71.5179622  11.0718797  71.4663200
  72.8517204  10.9250161  70.7653219  73.2192108  12.2495266  66.7544192
  73.9663927  12.7616663  66.4451314  73.4883698  11.9279319  67.6148586
  71.4918758  14.7453807  63.7371146  70.5829978  14.4612840  63.8343616
  71.5213842  15.1652885  62.8774453  76.7238026  18.3560396  67.5062314
  76.2700353  17.5151306  67.5627504  76.0931993  18.9921795  67.8437094
  75.1670965  20.1936893  68.4412132  75.4593939  20.7541950  67.7224498
  75.6769586  20.4865454  69.1965291  62.0606929  12.4659321  67.7186348
  61.8631329  11.8728682  66.9937415  61.5053593  12.1611531  68.4362287
  70.0403652  12.3582427  69.8380942  70.0952262  11.4056264  69.7623418
  69.2294854  12.5141866  70.3222240  71.1894846  16.2862550  61.0759225
  70.7514276  15.5698409  60.6164862  71.9305287  16.5138665  60.5144316
  67.9796012  10.9759487  67.5971320  67.1663878  11.2753658  68.0036513
  68.4755007  10.5815176  68.3145803  70.1304590  20.9717244  69.5305585
  70.0880769  21.1978090  68.6014117  71.0467289  20.7380619  69.6791386
  79.3067961  14.5619747  67.1335543  79.1685860  14.7521343  66.2056733
  78.9504180  15.3239130  67.5903595  67.4710087   8.5477843  73.2132555
  68.1109466   8.4066602  72.5155519  66.6387618   8.2612356  72.8371157
  68.2470391  17.8480273  69.3267548  69.0410990  17.3530593  69.1250123
  67.5362083  17.3198136  68.9635253  73.0665235  20.2298369  73.6779915
  73.1202258  20.7989305  74.4457631  72.1980017  20.4000254  73.3133953
  64.5553154  11.9923355  65.4027301  63.6250743  11.9307810  65.6197263
  64.6510626  11.4699308  64.6063942  64.4738704   8.5178168  67.9905542
  64.7345521   9.4323501  67.8814703  65.2955876   8.0502610  68.1402155
  65.9463629   9.9315925  75.1604367  66.6186682   9.7233287  74.5117016
  65.1193415   9.7338011  74.7209599  72.0253335  14.3958631  75.2366847
  72.9545395  14.5469790  75.0635815  71.6044365  14.4842651  74.3815494
  70.8241667  18.4209295  73.0065385  70.6852753  18.0528079  73.8791323
  70.0356263  18.9356934  72.8349343  71.4189819  23.5218391  64.3490921
  71.5941575  23.0506435  65.1636544  70.7322607  24.1484158  64.5772182
  72.3746882  17.7990898  70.3954223  72.0396715  17.7591668  71.2911873
  71.8750828  17.1335614  69.9224633  66.3491126  13.2058528  75.9206804
  66.2110924  12.4738767  76.5218343  67.2596050  13.1167428  75.6390992
  75.3106074  15.1446932  60.6691282  74.6935244  14.4193760  60.5724335
  74.8422562  15.9056292  60.3258357  68.9773427  12.9178487  75.4090484
  69.6873045  12.2771679  75.3677102  68.9342735  13.1691382  76.3316664
  65.9850904  26.6707754  71.1230782  66.2247502  27.3026278  71.8009800
  65.1420101  26.3195794  71.4096141  67.1004620   9.3632356  59.7912587
  66.2234086   9.2421157  59.4274833  67.5762373   8.5718435  59.5391475
  58.6206760  14.1509516  69.8854094  59.3077800  13.8371246  69.2975109
  58.4654889  15.0550881  69.6121345  63.4241482   9.0399713  74.3139118
  63.3399671   8.4325382  73.5789527  62.6024188   9.5308731  74.3148614
  70.4978766  22.4786877  73.5272286  70.4248938  23.2841848  74.0391590
  70.0556159  22.6778843  72.7020307  70.2868546  21.7158647  67.0375107
  69.5036068  22.2580327  67.1313332  70.9861291  22.2332626  67.4369348
  72.9577450  22.3773711  75.6830444  73.6705422  23.0121176  75.6106346
  72.4667478  22.4737577  74.8670446  74.6794977  16.2824963  67.2547736
  73.7451255  16.4026426  67.0852440  74.8571645  15.3797430  66.9907746
  70.1800165   9.6670659  69.4080997  69.8097952   9.1141700  70.0961903
  70.6759257   9.0628793  68.8555997  78.0667528  12.1242283  67.7897770
  78.5327980  12.9570274  67.7158073  78.5175028  11.6587264  68.4943029
  68.0089363  20.1268154  76.5036015  68.7098823  20.7604637  76.6565409
  67.5384478  20.4682886  75.7431654  76.1343759  18.4686104  64.7883922
  76.4103603  18.3542699  65.6977796  75.2648258  18.0703589  64.7496095
  72.7697823  22.7172455  68.4316736  72.9520218  21.8994111  68.8944488
  73.5930809  22.9340147  67.9941626  73.1039989  21.6440640  65.6931784
  73.6327755  21.1333095  65.0801946  73.3668208  21.3283170  66.5577317
  63.6057081  19.6604509  73.4367118  64.1910518  18.9148197  73.5695022
  63.4081920  19.9708466  74.3203782  66.4595736  22.6955757  68.4529560
  65.7906112  23.1801884  67.9693600  66.3208606  22.9424977  69.3672939
  58.1974736  12.2310109  72.1571561  58.2358835  11.6973700  72.9508679
  57.6915029  11.7045315  71.5382538  70.6001005  24.7299500  75.0512219
  71.1519313  24.8931122  75.8161304  70.9407198  25.3203938  74.3792243
  65.5765498   7.0774650  75.6534103  65.6406825   7.9389481  75.2411501
  65.5132619   6.4648652  74.9206462  61.8283314  10.9574212  65.2325492
  62.1236755  10.0484890  65.1792546  60.9271349  10.9361951  64.9106495
  73.7369392  22.6781476  72.0375901  73.6120532  21.8771216  71.5286846
  74.3948483  23.1727669  71.5489871  65.3577561   9.0330208  71.2153041
  64.6364146   9.6466176  71.0760514  66.1470816   9.5687973  71.1369687
  75.8004301  20.4790496  73.6655451  74.8534636  20.3595847  73.5933778
  76.1487074  19.5912994  73.7481712  63.5571155   8.6388309  65.3564817
  63.2283861   7.7585688  65.1739923  63.9110526   8.5835978  66.2441207
  72.8050734  20.2743212  69.8659803  72.6575696  19.3459919  70.0467373
  73.6304228  20.2963303  69.3816878  66.6712978   8.9261279  65.7240295
  67.0109051   9.4547200  65.0018904  67.1185099   9.2641685  66.4998862
  76.4084856  21.0971771  70.9524676  77.3331403  20.8914632  70.8149127
  76.2400159  20.8488172  71.8614017  68.6581125   7.4235901  63.9233588
  69.3789488   7.8017153  63.4197305  68.0346430   8.1424777  64.0268566
  72.8012248   8.1281050  64.8591920  73.0175863   9.0105687  64.5580748
  72.3206315   7.7367263  64.1297562  67.5411470  11.0866763  71.4362665
  67.3956050  11.4007066  72.3286946  67.0636673  11.7051663  70.8833564
  69.4007853   8.0769311  71.4843554  69.3869421   7.1810404  71.1475852
  70.1180281   8.0839975  72.1181840  76.1980172  21.6157438  66.3086767
  76.3717050  21.0503861  65.5560620  76.6909063  22.4158333  66.1266257
  62.0157132  13.6272107  74.3750326  61.4710600  14.4031915  74.5070600
  62.8936482  13.9742912  74.2169447  77.1855345  20.9324203  63.4083666
  77.8806249  21.5530895  63.6270980  77.5278495  20.0819554  63.6836043
  62.8023154  12.7542004  77.2680483  62.0604890  12.9024639  77.8545113
  62.4815898  13.0150269  76.4047232  79.0846768  18.3823908  64.9370996
  79.6098092  18.7211181  64.2120316  78.9969120  17.4470923  64.7534131
  70.7466816  22.2957982  77.0660873  71.0553943  22.0507128  77.9383573
  71.5442298  22.5004620  76.5779743  70.7687428  24.4495891  69.2966249
  70.3292419  23.9572270  69.9899106  71.5195545  23.9068859  69.0558325
  63.2479767  20.6407432  69.2990878  64.0737787  20.3411204  68.9189521
  62.8973819  19.8715055  69.7480666  68.2161301  19.9933900  71.3688551
  67.5941310  19.3304605  71.0690779  68.8866167  20.0195032  70.6862199
  61.4488372  18.5593759  70.2579811  60.6120281  18.1315933  70.0763812
  61.4212018  18.7526202  71.1950602  67.7774807  18.5437824  64.8447012
  67.9262928  19.2273288  64.1913684  68.5841251  18.5242914  65.3596467
  65.5327440  14.5703001  65.8508081  65.2873482  13.6665331  66.0488291
  65.7023355  14.5720152  64.9087559  64.8023088  10.3031359  63.3494242
  64.1092333  10.3775714  62.6934278  64.5574840   9.5391703  63.8715759
  71.2770213  21.0385954  62.3158759  70.7044180  21.6576141  61.8629231
  71.8503007  21.5885316  62.8498681  74.4967473  21.3223104  63.4467341
  75.4298146  21.2568666  63.6500217  74.4090686  22.1579371  62.9881874
  77.1255489  20.6388975  60.4071289  77.0469121  20.3048838  61.3007047
  77.9465156  21.1310743  60.4062761  71.6617011  12.3746767  59.6574812
  72.6076116  12.2452975  59.7263230  71.2831256  11.6361429  60.1344240
  69.8459929  10.2996743  59.5929697  68.9391384  10.0029856  59.6692410
  70.1235910  10.0026561  58.7263983  60.7637869  11.6203107  70.0428743
  60.4440653  10.7668415  69.7503117  60.2171297  11.8351685  70.7986711
  64.5417777  14.3365548  73.7598250  64.7603786  15.2682656  73.7786284
  64.9543550  13.9773522  74.5453054  60.6326129  15.2406018  72.0121865
  59.9389600  14.8259971  71.4991819  61.3799120  15.2826555  71.4155284
  62.5462872  15.1724272  69.8887880  62.5233560  15.2711959  68.9369763
  62.8563508  16.0189423  70.2105046  65.2050249  17.2300427  74.0034494
  66.1593503  17.1984369  73.9364426  65.0062773  16.7691051  74.8184720
  65.7949632  15.8001543  76.5705292  66.6142521  16.2945622  76.5940129
  66.0686439  14.8833511  76.5422859  63.5600478  22.7720047  71.0204692
  63.4254946  22.0120447  70.4542690  63.1432540  23.4960946  70.5533481
  74.6959441  17.9556970  60.0281267  75.3995291  18.1606973  60.6438923
  73.9722090  18.5233732  60.2930351  75.5257252  13.7066831  66.1483537
  75.4692453  14.1635383  65.3091170  76.0785594  12.9457516  65.9706380
  66.7169604  23.6689364  71.2323135  66.6001988  24.6134796  71.1301825
  65.8962050  23.3662925  71.6208934  76.6046139  18.3939499  62.0779727
  77.4391743  17.9620698  61.8957202  76.4430482  18.2221513  63.0056622
  76.2592031  14.8971613  63.4436067  76.2040835  14.7315884  62.5024511
  75.6338086  15.6047646  63.5998256  61.0484546  10.1339677  77.2697489
  61.6943409   9.6238631  77.7584714  60.8401697  10.8708359  77.8440914
  67.7424118  24.3217625  74.4479063  68.6451365  24.3541236  74.7645558
  67.5161488  23.3918076  74.4625399  69.4977720  23.0748612  71.1089142
  68.5473351  23.0750474  70.9953514  69.8010206  22.3281347  70.5925176
  85.2330414  28.9109150  72.1734904  85.8708824  28.7915898  71.4698244
  85.1151257  29.8589994  72.2322856  82.0420120  28.8636579  72.1096429
  81.7038632  28.7477643  71.2216964  82.9109888  28.4627744  72.0897435
  77.9006936  30.7172055  68.0993320  77.3371801  30.6261992  67.3309607
  77.7859331  29.8971959  68.5795812  75.4471368  32.2123247  70.9377540
  76.2392660  31.8714071  70.5223839  75.6868018  32.3218222  71.8579693
  83.4806494  34.3843023  63.4107785  82.8294474  34.9697103  63.0241798
  84.2750857  34.9149218  63.4702822  77.4062122  31.4732160  63.8094919
  78.1792998  30.9261147  63.6707795  77.7587520  32.3376409  64.0209380
  79.2447164  32.8008542  77.0161818  78.9537030  33.7054173  76.9008485
  79.8804149  32.8425070  77.7305888  80.1703371  30.1785391  73.6063178
  80.7666943  29.9541413  72.8920141  80.2278343  29.4370136  74.2088626
  79.7428399  27.6324826  61.4413369  79.9953920  27.1106347  60.6796832
  78.8052958  27.4690971  61.5440052  84.7871682  26.6360604  69.2488112
  85.5734771  26.2180027  68.8978529  85.0510387  27.5406696  69.4169760
  84.9581760  32.0733455  63.9476769  84.3227593  32.1468081  64.6597674
  84.6279166  32.6627053  63.2695848  79.4624688  29.5352932  63.6437744
  79.3460946  28.8597835  64.3118828  79.5726948  29.0485306  62.8269897
  81.8056229  28.9963079  67.3484433  81.4414436  28.4693700  68.0597355
  82.6623345  28.6061548  67.1750918  81.4461716  24.0252979  62.3445782
  81.6136118  24.8933215  62.7116253  81.2558885  24.1880260  61.4207071
  84.2037049  32.4869958  74.0111612  83.9037772  33.3894996  73.9027419
  83.8588109  32.2202141  74.8632765  77.6549531  28.9383754  70.0448316
  76.7300027  28.8059969  70.2526008  77.9033944  29.7177974  70.5418259
  81.4250937  26.4810636  63.3292448  81.3050562  26.9267687  64.1677929
  80.7303525  26.8295954  62.7705987  75.0158342  28.5817028  70.8792105
  75.1450723  28.8351507  71.7931517  74.3355793  29.1744736  70.5596761
  79.1857829  39.2514278  66.9782580  79.1081859  40.2022103  67.0571060
  78.5819473  38.9060150  67.6357506  87.1236003  26.9532109  64.1572782
  88.0353859  27.1859496  63.9820480  86.6145650  27.5369154  63.5947861
  85.7305585  31.9357928  71.5486364  85.1014448  32.1003642  70.8462432
  85.3431247  32.3499537  72.3197328  81.2833547  31.6732336  68.8136449
  81.7471893  31.9520039  68.0241072  81.0190345  30.7715780  68.6309540
  78.1757628  31.2203817  71.7516212  78.7458985  31.6491086  71.1133697
  78.7665740  30.9386402  72.4500398  80.2202433  27.7955488  65.6226014
  80.9226477  28.2476532  66.0899941  79.8883062  27.1539307  66.2505907
  73.9627767  26.0539041  70.9243148  73.1726821  26.3096569  70.4483258
  74.4539015  26.8687379  71.0295188  75.9142513  26.4183620  67.8826624
  75.1173676  26.5302314  68.4010120  75.6868105  26.7570272  67.0167515
  81.7448180  32.9428323  75.8309139  81.8092613  33.4048731  76.6667311
  81.0359104  32.3125688  75.9591449  72.2465470  26.3069531  73.3558139
  72.4973509  27.1916541  73.6215714  72.7825019  26.1274133  72.5833230
  81.4596198  34.6096431  65.6988119  81.3241873  35.4547967  66.1272967
  82.0006010  34.8115709  64.9354053  74.9125595  32.1271869  66.2716044
  75.4250116  32.9215119  66.4221609  75.5648308  31.4298159  66.2049646
  76.7220480  35.2437625  68.3538798  76.8987108  36.1655590  68.1659782
  77.5177314  34.9296044  68.7833177  76.0072837  27.2902257  78.2300961
  75.8926352  26.3887514  78.5308060  75.1517354  27.5365954  77.8785777
  77.8451796  36.7615799  74.3549140  78.3959221  36.6332862  73.5826134
  77.0063271  37.0610688  74.0044033  72.8774512  30.4560523  67.0475615
  73.7149734  30.8657532  66.8309323  73.0552780  29.5159965  67.0175809
  84.7738944  28.1235604  62.7359448  84.2585568  28.8940209  62.9747835
  84.5016253  27.4500740  63.3592509  82.3586055  22.9685305  67.7944686
  81.5027652  22.5792155  67.6150325  82.7713007  23.0477265  66.9344472
  80.1328088  20.5870378  71.2002428  80.9981085  20.3913186  70.8408317
  80.2005597  20.3580729  72.1271785  84.5625247  25.9962696  64.5619229
  84.2575383  26.3108845  65.4129372  85.5155690  26.0744116  64.6046562
  83.0071679  32.1552919  66.2112183  82.4793041  31.4205679  65.8985421
  82.5059182  32.9327596  65.9652151  77.7390407  22.8172586  68.5718795
  78.3134159  22.5947767  67.8391988  78.3261389  22.8861280  69.3247396
  86.7969984  28.7046312  69.3783171  87.3101866  29.3376304  69.8804881
  87.4471208  28.1047508  69.0126531  78.0659994  24.8477047  62.5914680
  77.2297306  25.1851733  62.9123955  77.9264764  24.7126026  61.6541817
  80.0413075  19.6913834  67.2993864  79.3877487  19.3762852  66.6750479
  79.9993549  19.0689575  68.0253687  81.1524279  29.9733130  59.2147156
  80.2451341  29.7422383  59.4138305  81.6495311  29.1770749  59.4021138
  84.0592358  38.6830637  62.1343842  83.3854057  38.9862333  62.7428800
  84.4458180  39.4859717  61.7849299  83.2750815  26.1795768  71.6241512
  82.3573376  26.4010715  71.4663200  83.6910959  26.2542078  70.7653219
  84.0585863  27.5787184  66.7544192  84.8057682  28.0908581  66.4451314
  84.3277452  27.2571236  67.6148586  82.3312513  30.0745724  63.7371146
  81.4223732  29.7904757  63.8343616  82.3607597  30.4944803  62.8774453
  87.5631780  33.6852314  67.5062314  87.1094107  32.8443224  67.5627504
  86.9325747  34.3213712  67.8437094  86.5064700  24.6144300  68.7362981
  85.7687457  24.1021686  69.0673224  86.7591473  24.1744682  67.9246258
  86.0064720  35.5228811  68.4412132  86.2987694  36.0833868  67.7224498
  86.5163340  35.8157372  69.1965291  72.9000683  27.7951239  67.7186348
  72.7025083  27.2020599  66.9937415  72.3447347  27.4903449  68.4362287
  80.8797407  27.6874345  69.8380942  80.9346017  26.7348181  69.7623418
  80.0688609  27.8433784  70.3222240  82.0288601  31.6154468  61.0759225
  81.5908031  30.8990327  60.6164862  82.7699042  31.8430583  60.5144316
  78.8189767  26.3051405  67.5971320  78.0057632  26.6045575  68.0036513
  79.3148761  25.9107094  68.3145803  80.9698345  36.3009162  69.5305585
  80.9274524  36.5270008  68.6014117  81.8861044  36.0672536  69.6791386
  78.3103842  23.8769760  73.2132555  78.9503221  23.7358519  72.5155519
  77.4781372  23.5904274  72.8371157  79.0864145  33.1772191  69.3267548
  79.8804744  32.6822511  69.1250123  78.3755838  32.6490054  68.9635253
  83.9058990  35.5590286  73.6779915  83.9596012  36.1281223  74.4457631
  83.0373771  35.7292171  73.3133953  75.3946909  27.3215272  65.4027301
  74.4644497  27.2599728  65.6197263  75.4904381  26.7991225  64.6063942
  75.3132458  23.8470085  67.9905542  75.5739275  24.7615419  67.8814703
  76.1349630  23.3794528  68.1402155  76.7857383  25.2607842  75.1604367
  77.4580437  25.0525205  74.5117016  75.9587170  25.0629928  74.7209599
  82.8647090  29.7250548  75.2366847  83.7939150  29.8761708  75.0635815
  82.4438120  29.8134569  74.3815494  81.6635421  33.7501213  73.0065385
  81.5246507  33.3819997  73.8791323  80.8750018  34.2648852  72.8349343
  82.2583573  38.8510309  64.3490921  82.4335329  38.3798352  65.1636544
  81.5716361  39.4776075  64.5772182  83.2140637  33.1282815  70.3954223
  82.8790469  33.0883585  71.2911873  82.7144582  32.4627531  69.9224633
  77.1884881  28.5350445  75.9206804  77.0504679  27.8030684  76.5218343
  78.0989804  28.4459346  75.6390992  86.1499828  30.4738850  60.6691282
  85.5328999  29.7485678  60.5724335  85.6816317  31.2348210  60.3258357
  79.8167181  28.2470405  75.4090484  80.5266800  27.6063597  75.3677102
  79.7736489  28.4983300  76.3316664  76.8244659  41.9999672  71.1230782
  77.0641257  42.6318196  71.8009800  75.9813855  41.6487712  71.4096141
  77.9398374  24.6924274  59.7912587  77.0627841  24.5713075  59.4274833
  78.4156127  23.9010352  59.5391475  69.4600514  29.4801434  69.8854094
  70.1471554  29.1663164  69.2975109  69.3048643  30.3842798  69.6121345
  74.2635236  24.3691630  74.3139118  74.1793425  23.7617300  73.5789527
  73.4417943  24.8600649  74.3148614  81.3372521  37.8078794  73.5272286
  81.2642692  38.6133766  74.0391590  80.8949914  38.0070760  72.7020307
  81.1262300  37.0450564  67.0375107  80.3429822  37.5872245  67.1313332
  81.8255045  37.5624544  67.4369348  84.4358950  22.8545194  69.6809313
  84.9327650  22.1015156  69.3610383  83.6645932  22.8909511  69.1152522
  83.7971204  37.7065628  75.6830444  84.5099176  38.3413093  75.6106346
  83.3061233  37.8029494  74.8670446  85.5188731  31.6116881  67.2547736
  84.5845010  31.7318344  67.0852440  85.6965400  30.7089348  66.9907746
  81.0193919  24.9962577  69.4080997  80.6491707  24.4433617  70.0961903
  81.5153012  24.3920710  68.8555997  78.8483118  35.4560072  76.5036015
  79.5492577  36.0896555  76.6565409  78.3778233  35.7974803  75.7431654
  86.9737513  33.7978022  64.7883922  87.2497357  33.6834616  65.6977796
  86.1042012  33.3995506  64.7496095  83.6091578  38.0464372  68.4316736
  83.7913972  37.2286028  68.8944488  84.4324564  38.2632065  67.9941626
  83.9433743  36.9732558  65.6931784  84.4721509  36.4625012  65.0801946
  84.2061963  36.6575088  66.5577317  74.4450836  34.9896427  73.4367118
  75.0304273  34.2440115  73.5695022  74.2475674  35.3000384  74.3203782
  77.2989491  38.0247674  68.4529560  76.6299866  38.5093802  67.9693600
  77.1602361  38.2716895  69.3672939  69.0368490  27.5602027  72.1571561
  69.0752590  27.0265618  72.9508679  68.5308783  27.0337233  71.5382538
  81.4394760  40.0591418  75.0512219  81.9913068  40.2223039  75.8161304
  81.7800953  40.6495856  74.3792243  76.4159253  22.4066568  75.6534103
  76.4800579  23.2681399  75.2411501  76.3526373  21.7940569  74.9206462
  72.6677068  26.2866129  65.2325492  72.9630509  25.3776808  65.1792546
  71.7665104  26.2653869  64.9106495  84.5763147  38.0073393  72.0375901
  84.4514286  37.2063133  71.5286846  85.2342238  38.5019587  71.5489871
  76.1971315  24.3622126  71.2153041  75.4757901  24.9758094  71.0760514
  76.9864571  24.8979891  71.1369687  86.6398055  35.8082413  73.6655451
  85.6928391  35.6887765  73.5933778  86.9880828  34.9204911  73.7481712
  74.3964910  23.9680227  65.3564817  74.0677616  23.0877606  65.1739923
  74.7504280  23.9127896  66.2441207  83.6444489  35.6035130  69.8659803
  83.4969451  34.6751837  70.0467373  84.4697982  35.6255220  69.3816878
  77.5106733  24.2553197  65.7240295  77.8502805  24.7839118  65.0018904
  77.9578853  24.5933603  66.4998862  87.2478610  36.4263688  70.9524676
  88.1725158  36.2206550  70.8149127  87.0793914  36.1780090  71.8614017
  79.4974880  22.7527818  63.9233588  80.2183242  23.1309071  63.4197305
  78.8740184  23.4716695  64.0268566  83.6406003  23.4572967  64.8591920
  83.8569617  24.3397605  64.5580748  83.1600070  23.0659181  64.1297562
  78.3805224  26.4158681  71.4362665  78.2349805  26.7298984  72.3286946
  77.9030428  27.0343581  70.8833564  80.2401607  23.4061229  71.4843554
  80.2263176  22.5102322  71.1475852  80.9574035  23.4131892  72.1181840
  87.0373927  36.9449356  66.3086767  87.2110804  36.3795778  65.5560620
  87.5302818  37.7450251  66.1266257  72.8550886  28.9564025  74.3750326
  72.3104354  29.7323833  74.5070600  73.7330236  29.3034829  74.2169447
  79.6438503  22.2875609  66.7531125  79.7654414  21.3592255  66.9522012
  79.3540545  22.3014295  65.8409440  73.6416908  28.0833921  77.2680483
  72.8998644  28.2316557  77.8545113  73.3209652  28.3442187  76.4047232
  81.5860571  37.6249899  77.0660873  81.8947697  37.3799046  77.9383573
  82.3836053  37.8296538  76.5779743  81.6081183  39.7787809  69.2966249
  81.1686173  39.2864188  69.9899106  82.3589300  39.2360777  69.0558325
  74.0873522  35.9699350  69.2990878  74.9131542  35.6703122  68.9189521
  73.7367574  35.2006972  69.7480666  79.0555055  35.3225818  71.3688551
  78.4335064  34.6596523  71.0690779  79.7259922  35.3486950  70.6862199
  72.2882127  33.8885676  70.2579811  71.4514035  33.4607851  70.0763812
  72.2605772  34.0818120  71.1950602  78.6168562  33.8729741  64.8447012
  78.7656682  34.5565206  64.1913684  79.4235005  33.8534832  65.3596467
  76.3721195  29.8994919  65.8508081  76.1267237  28.9957249  66.0488291
  76.5417109  29.9012070  64.9087559  75.6416842  25.6323277  63.3494242
  74.9486087  25.7067632  62.6934278  75.3968594  24.8683620  63.8715759
  82.1163967  36.3677872  62.3158759  81.5437935  36.9868059  61.8629231
  82.6896761  36.9177234  62.8498681  85.3361227  36.6515022  63.4467341
  86.2691900  36.5860584  63.6500217  85.2484440  37.4871289  62.9881874
  82.5010766  27.7038685  59.6574812  83.4469871  27.5744893  59.7263230
  82.1225011  26.9653347  60.1344240  80.6853683  25.6288661  59.5929697
  79.7785139  25.3321774  59.6692410  80.9629664  25.3318479  58.7263983
  71.6031624  26.9495024  70.0428743  71.2834408  26.0960333  69.7503117
  71.0565052  27.1643603  70.7986711  75.3811531  29.6657465  73.7598250
  75.5997541  30.5974573  73.7786284  75.7937305  29.3065440  74.5453054
  82.3015749  20.1725551  65.7473938  81.4916477  19.8272636  66.1229184
  82.9900166  19.8633095  66.3361550  84.2306297  19.2503598  67.3698235
  84.7837336  19.6699051  68.0288258  84.4676384  18.3239346  67.4121191
  79.4552468  22.4875596  59.7341676  80.3171632  22.8130495  59.9937493
  79.6402812  21.7007092  59.2214742  71.4719884  30.5697936  72.0121865
  70.7783355  30.1551889  71.4991819  72.2192875  30.6118472  71.4155284
  87.6085104  21.3604123  66.8776899  87.0283773  22.0188927  66.4954951
  87.3421037  20.5381467  66.4664317  73.3856626  30.5016190  69.8887880
  73.3627314  30.6003877  68.9369763  73.6957263  31.3481341  70.2105046
  76.0444004  32.5592345  74.0034494  76.9987257  32.5276287  73.9364426
  75.8456528  32.0982969  74.8184720  76.6343386  31.1293461  76.5705292
  77.4536275  31.6237539  76.5940129  76.9080194  30.2125429  76.5422859
  86.3909982  23.5204213  65.9333247  85.5035837  23.8053864  65.7153442
  86.8063971  23.3597976  65.0860524  74.3994233  38.1011964  71.0204692
  74.2648701  37.3412365  70.4542690  73.9826295  38.8252864  70.5533481
  85.5353196  33.2848888  60.0281267  86.2389046  33.4898890  60.6438923
  84.8115844  33.8525650  60.2930351  86.3651006  29.0358749  66.1483537
  86.3086207  29.4927300  65.3091170  86.9179348  28.2749434  65.9706380
  77.5563359  38.9981281  71.2323135  77.4395743  39.9426714  71.1301825
  76.7355805  38.6954843  71.6208934  87.4439893  33.7231417  62.0779727
  88.2785497  33.2912615  61.8957202  87.2824236  33.5513431  63.0056622
  87.0985785  30.2263530  63.4436067  87.0434589  30.0607802  62.5024511
  86.4731841  30.9339563  63.5998256  71.8878300  25.4631595  77.2697489
  72.5337164  24.9530549  77.7584714  71.6795451  26.2000276  77.8440914
  80.4081911  19.7271639  63.0221385  80.3960581  20.6713479  63.1789656
  81.3005333  19.5441785  62.7280846  78.5817873  39.6509543  74.4479063
  79.4845119  39.6833153  74.7645558  78.3555243  38.7209994  74.4625399
  80.3371475  38.4040530  71.1089142  79.3867106  38.4042391  70.9953514
  80.6403961  37.6573264  70.5925176  86.2865122  47.5415164  70.9377540
  87.0786414  47.2005989  70.5223839  86.5261772  47.6510139  71.8579693
  85.8552096  43.9108946  70.8792105  85.9844477  44.1643425  71.7931517
  85.1749548  44.5036654  70.5596761  84.8021522  41.3830959  70.9243148
  84.0120576  41.6388487  70.4483258  85.2932769  42.1979296  71.0295188
  86.7536267  41.7475538  67.8826624  85.9567430  41.8594232  68.4010120
  86.5261859  42.0862190  67.0167515  83.0859225  41.6361449  73.3558139
  83.3367263  42.5208459  73.6215714  83.6218773  41.4566051  72.5833230
  85.7519350  47.4563787  66.2716044  86.2643870  48.2507037  66.4221609
  86.4042063  46.7590077  66.2049646  86.8466591  42.6194175  78.2300961
  86.7320106  41.7179432  78.5308060  85.9911109  42.8657872  77.8785777
  83.7168267  45.7852441  67.0475615  84.5543489  46.1949449  66.8309323
  83.8946534  44.8451883  67.0175809  83.7394438  43.1243156  67.7186348
  83.5418838  42.5312517  66.9937415  83.1841102  42.8195366  68.4362287
  86.2340663  42.6507190  65.4027301  85.3038252  42.5891646  65.6197263
  86.3298135  42.1283143  64.6063942  86.1526213  39.1762003  67.9905542
  86.4133030  40.0907336  67.8814703  86.9743385  38.7086446  68.1402155
  87.6251138  40.5899760  75.1604367  88.2974191  40.3817122  74.5117016
  86.7980924  40.3921846  74.7209599  87.6638413  57.3291590  71.1230782
  87.9035011  57.9610114  71.8009800  86.8207610  56.9779630  71.4096141
  80.2994269  44.8093351  69.8854094  80.9865309  44.4955081  69.2975109
  80.1442398  45.7134716  69.6121345  85.1028991  39.6983548  74.3139118
  85.0187180  39.0909218  73.5789527  84.2811697  40.1892566  74.3148614
  85.2844590  50.3188345  73.4367118  85.8698027  49.5732032  73.5695022
  85.0869429  50.6292301  74.3203782  88.1383245  53.3539592  68.4529560
  87.4693621  53.8385720  67.9693600  87.9996115  53.6008812  69.3672939
  79.8762245  42.8893945  72.1571561  79.9146344  42.3557535  72.9508679
  79.3702538  42.3629150  71.5382538  87.2553007  37.7358485  75.6534103
  87.3194334  38.5973316  75.2411501  87.1920127  37.1232487  74.9206462
  83.5070823  41.6158047  65.2325492  83.8024264  40.7068725  65.1792546
  82.6058858  41.5945786  64.9106495  87.0365070  39.6914044  71.2153041
  86.3151655  40.3050011  71.0760514  87.8258325  40.2271808  71.1369687
  85.2358664  39.2972145  65.3564817  84.9071370  38.4169524  65.1739923
  85.5898035  39.2419813  66.2441207  83.6944641  44.2855943  74.3750326
  83.1498109  45.0615751  74.5070600  84.5723991  44.6326747  74.2169447
  84.4810663  43.4125839  77.2680483  83.7392399  43.5608474  77.8545113
  84.1603407  43.6734104  76.4047232  84.9267276  51.2991268  69.2990878
  85.7525296  50.9995039  68.9189521  84.5761328  50.5298890  69.7480666
  83.1275881  49.2177594  70.2579811  82.2907790  48.7899768  70.0763812
  83.0999527  49.4110037  71.1950602  87.2114949  45.2286837  65.8508081
  86.9660991  44.3249167  66.0488291  87.3810864  45.2303987  64.9087559
  86.4810597  40.9615194  63.3494242  85.7879842  41.0359549  62.6934278
  86.2362349  40.1975538  63.8715759  82.4425378  42.2786942  70.0428743
  82.1228162  41.4252250  69.7503117  81.8958806  42.4935520  70.7986711
  86.2205286  44.9949383  73.7598250  86.4391295  45.9266491  73.7786284
  86.6331059  44.6357358  74.5453054  82.3113638  45.8989854  72.0121865
  81.6177109  45.4843806  71.4991819  83.0586629  45.9410390  71.4155284
  84.2250381  45.8308107  69.8887880  84.2021069  45.9295795  68.9369763
  84.5351017  46.6773258  70.2105046  86.8837758  47.8884262  74.0034494
  87.8381012  47.8568205  73.9364426  86.6850282  47.4274886  74.8184720
  87.4737141  46.4585378  76.5705292  88.2930030  46.9529457  76.5940129
  87.7473948  45.5417347  76.5422859  85.2387987  53.4303882  71.0204692
  85.1042455  52.6704283  70.4542690  84.8220049  54.1544782  70.5533481
  82.7272055  40.7923512  77.2697489  83.3730918  40.2822466  77.7584714
  82.5189206  41.5292194  77.8440914  79.1857830  16.2576401  53.7027886
  79.1081860  17.2084226  53.7816367  78.5819474  15.9122273  54.3602813
  81.4596199  11.6158553  52.4233426  81.3241874  12.4610089  52.8518274
  82.0006012  11.8177831  51.6599360  76.7220481  12.2499748  55.0784104
  76.8987110  13.1717712  54.8905088  77.5177315  11.9358167  55.5078484
  77.8451797  13.7677922  61.0794447  78.3959222  13.6394985  60.3071441
  77.0063273  14.0672811  60.7289339  84.0592360  15.6892759  48.8589149
  83.3854058  15.9924456  49.4674107  84.4458182  16.4921840  48.5094606
  86.0064721  12.5290933  55.1657439  86.2987695  13.0895990  54.4469804
  86.5163341  12.8219494  55.9210598  80.9698346  13.3071284  56.2550892
  80.9274525  13.5332131  55.3259424  81.8861045  13.0734659  56.4036693
  83.9058991  12.5652409  60.4025222  83.9596014  13.1343345  61.1702938
  83.0373773  12.7354294  60.0379259  82.2583575  15.8572432  51.0736228
  82.4335330  15.3860475  51.8881851  81.5716363  16.4838198  51.3017489
  76.8244660  19.0061795  57.8476088  77.0641258  19.6380319  58.5255107
  75.9813856  18.6549835  58.1341448  81.3372522  14.8140917  60.2517592
  81.2642693  15.6195888  60.7636897  80.8949915  15.0132883  59.4265614
  81.1262301  14.0512687  53.7620414  80.3429823  14.5934367  53.8558638
  81.8255047  14.5686667  54.1614655  83.7971205  14.7127751  62.4075751
  84.5099178  15.3475216  62.3351652  83.3061234  14.8091617  61.5915753
  78.8483119  12.4622194  63.2281322  79.5492578  13.0958677  63.3810716
  78.3778234  12.8036926  62.4676961  83.6091579  15.0526495  55.1562042
  83.7913973  14.2348151  55.6189795  84.4324565  15.2694187  54.7186932
  83.9433744  13.9794680  52.4177091  84.4721511  13.4687135  51.8047253
  84.2061964  13.6637210  53.2822624  74.4450837  11.9958549  60.1612424
  75.0304274  11.2502237  60.2940329  74.2475675  12.3062506  61.0449088
  77.2989492  15.0309797  55.1774867  76.6299867  15.5155925  54.6938907
  77.1602362  15.2779017  56.0918245  81.4394761  17.0653540  61.7757525
  81.9913069  17.2285162  62.5406610  81.7800954  17.6557978  61.1037550
  84.5763148  15.0135516  58.7621207  84.4514288  14.2125256  58.2532153
  85.2342239  15.5081709  58.2735177  83.6444490  12.6097252  56.5905110
  83.4969452  11.6813960  56.7712680  84.4697983  12.6317343  56.1062185
  87.2478612  13.4325811  57.6769982  88.1725159  13.2268672  57.5394434
  87.0793915  13.1842212  58.5859324  87.0373928  13.9511478  53.0332074
  87.2110805  13.3857901  52.2805926  87.5302819  14.7512373  52.8511564
  81.5860572  14.6312022  63.7906180  81.8947699  14.3861169  64.6628879
  82.3836054  14.8358660  63.3025050  81.6081184  16.7849932  56.0211556
  81.1686174  16.2926310  56.7144413  82.3589301  16.2422899  55.7803631
  74.0873523  12.9761472  56.0236184  74.9131543  12.6765244  55.6434828
  73.7367575  12.2069095  56.4725973  79.0555056  12.3287941  58.0933858
  78.4335066  11.6658646  57.7936086  79.7259923  12.3549073  57.4107506
  72.2882128  10.8947799  56.9825118  71.4514037  10.4669973  56.8009119
  72.2605774  11.0880242  57.9195909  78.6168563  10.8791864  51.5692318
  78.7656684  11.5627328  50.9158991  79.4235007  10.8596954  52.0841774
  82.1163969  13.3739994  49.0404066  81.5437936  13.9930182  48.5874538
  82.6896762  13.9239356  49.5743988  85.3361229  13.6577145  50.1712648
  86.2691902  13.5922706  50.3745524  85.2484441  14.4933411  49.7127181
  71.4719885   7.5760059  58.7367171  70.7783356   7.1614011  58.2237126
  72.2192876   7.6180595  58.1400590  76.0444005   9.5654467  60.7279801
  76.9987259   9.5338410  60.6609732  75.8456529   9.1045091  61.5430027
  74.3994234  15.1074087  57.7449999  74.2648702  14.3474488  57.1787997
  73.9826296  15.8314987  57.2778787  77.5563360  16.0043404  57.9568441
  77.4395744  16.9488836  57.8547132  76.7355806  15.7016965  58.3454240
  78.5817874  16.6571666  61.1724370  79.4845121  16.6895276  61.4890865
  78.3555244  15.7272117  61.1870705  80.3371476  15.4102652  57.8334448
  79.3867107  15.4104514  57.7198821  80.6403962  14.6635387  57.3170483
  86.2865123  24.5477287  57.6622847  87.0786415  24.2068111  57.2469146
  86.5261774  24.6572262  58.5825000  85.8552097  20.9171068  57.6037412
  85.9844479  21.1705547  58.5176824  85.1749549  21.5098776  57.2842067
  84.8021523  18.3893081  57.6488454  84.0120577  18.6450610  57.1728565
  85.2932770  19.2041419  57.7540495  86.7536268  18.7537660  54.6071931
  85.9567432  18.8656355  55.1255427  86.5261861  19.0924313  53.7412822
  83.0859226  18.6423572  60.0803445  83.3367264  19.5270582  60.3461021
  83.6218774  18.4628173  59.3078537  85.7519351  24.4625909  52.9961351
  86.2643872  25.2569159  53.1466916  86.4042064  23.7652200  52.9294953
  86.8466592  19.6256297  64.9546267  86.7320107  18.7241555  65.2553366
  85.9911110  19.8719994  64.6031084  83.7168268  22.7914563  53.7720922
  84.5543490  23.2011572  53.5554629  83.8946536  21.8514006  53.7421116
  83.7394439  20.1305279  54.4431655  83.5418839  19.5374640  53.7182722
  83.1841103  19.8257489  55.1607594  86.2340665  19.6569313  52.1272607
  85.3038253  19.5953768  52.3442569  86.3298137  19.1345265  51.3309248
  86.1526214  16.1824126  54.7150849  86.4133031  17.0969459  54.6060009
  86.9743386  15.7148568  54.8647462  87.6251139  17.5961883  61.8849673
  88.2974193  17.3879245  61.2362322  86.7980926  17.3983969  61.4454906
  87.6638414  34.3353712  57.8476088  87.9035013  34.9672236  58.5255107
  86.8207611  33.9841752  58.1341448  80.2994270  21.8155474  56.6099400
  80.9865310  21.5017204  56.0220416  80.1442399  22.7196839  56.3366652
  85.1028992  16.7045671  61.0384424  85.0187181  16.0971340  60.3034834
  84.2811699  17.1954689  61.0393920  85.2844591  27.3250467  60.1612424
  85.8698028  26.5794155  60.2940329  85.0869430  27.6354424  61.0449088
  88.1383247  30.3601715  55.1774867  87.4693622  30.8447842  54.6938907
  87.9996116  30.6070935  56.0918245  79.8762246  19.8956067  58.8816868
  79.9146346  19.3619658  59.6753986  79.3702539  19.3691273  58.2627845
  87.2553009  14.7420608  62.3779410  87.3194335  15.6035439  61.9656808
  87.1920129  14.1294610  61.6451768  83.5070824  18.6220170  51.9570799
  83.8024265  17.7130848  51.9037853  82.6058860  18.6007909  51.6351801
  87.0365071  16.6976166  57.9398348  86.3151657  17.3112134  57.8005821
  87.8258327  17.2333931  57.8614994  85.2358665  16.3034267  52.0810124
  84.9071372  15.4231646  51.8985230  85.5898036  16.2481936  52.9686513
  83.6944642  21.2918065  61.0995633  83.1498110  22.0677873  61.2315907
  84.5723992  21.6388870  60.9414754  84.4810664  20.4187961  63.9925790
  83.7392400  20.5670597  64.5790420  84.1603408  20.6796227  63.1292539
  84.9267278  28.3053390  56.0236184  85.7525298  28.0057162  55.6434828
  84.5761330  27.5361013  56.4725973  83.1275883  26.2239717  56.9825118
  82.2907791  25.7961891  56.8009119  83.0999528  26.4172160  57.9195909
  87.2114951  22.2348959  52.5753387  86.9660993  21.3311289  52.7733597
  87.3810865  22.2366110  51.6332865  86.4810598  17.9677317  50.0739549
  85.7879843  18.0421672  49.4179585  86.2362350  17.2037661  50.5961066
  82.4425379  19.2849065  56.7674050  82.1228164  18.4314373  56.4748424
  81.8958807  19.4997643  57.5232017  86.2205287  22.0011506  60.4843556
  86.4391297  22.9328614  60.5031590  86.6331061  21.6419480  61.2698360
  82.3113639  22.9051976  58.7367171  81.6177111  22.4905929  58.2237126
  83.0586630  22.9472513  58.1400590  84.2250382  22.8370230  56.6133186
  84.2021070  22.9357917  55.6615069  84.5351018  23.6835381  56.9350352
  86.8837760  24.8946385  60.7279801  87.8381013  24.8630327  60.6609732
  86.6850283  24.4337009  61.5430027  87.4737142  23.4647501  63.2950598
  88.2930031  23.9591580  63.3185436  87.7473950  22.5479469  63.2668166
  85.2387988  30.4366005  57.7449999  85.1042456  29.6766405  57.1787997
  84.8220051  31.1606904  57.2778787  82.7272056  17.7985635  63.9942795
  83.3730920  17.2884589  64.4830021  82.5189207  18.5354317  64.5686221
  29.2837719  49.7134942  89.9617168  28.6325699  50.2989023  89.5751182
  30.0782082  50.2441137  90.0212206  23.2093347  46.8024079  90.3604303
  23.9824223  46.2553066  90.2217178  23.5618745  47.6668329  90.5718764
  25.5459624  42.9616745  87.9922753  25.7985145  42.4398267  87.2306216
  24.6084184  42.7982891  88.0949436  30.7612985  47.4025374  90.4986153
  30.1258818  47.4760001  91.2107057  30.4310391  47.9918973  89.8205232
  32.9267228  42.2824029  90.7082166  33.8385084  42.5151416  90.5329864
  32.4176875  42.8661073  90.1457245  35.4126042  48.2004285  95.4540111
  34.7277080  48.5803186  94.9037145  35.4969892  48.8099612  96.1872059
  41.8728795  45.0674948  96.5742784  41.1192503  44.4982346  96.4186788
  42.0076336  45.0337613  97.5213418  27.2627423  49.9388350  92.2497503
  27.1273098  50.7839886  92.6782351  27.8037235  50.1407628  91.4863437
  30.5770169  43.4527523  89.2868832  30.0616793  44.2232128  89.5257219
  30.3047478  42.7792659  89.9101893  35.5504443  46.2059878  91.2222005
  34.7733886  45.8671037  90.7777167  36.2295924  46.2112501  90.5476970
  28.8102904  47.4844839  92.7621567  28.2824266  46.7497598  92.4494804
  28.3090407  48.2619515  92.5161535  26.9555504  45.3025049  85.7656540
  26.0482566  45.0714302  85.9647689  27.4526536  44.5062668  85.9530521
  29.8623583  54.0122556  88.6853226  29.1885282  54.3154253  89.2938184
  30.2489405  54.8151637  88.3358683  28.1343738  45.4037644  90.2880530
  27.2254957  45.1196677  90.3853000  28.1638822  45.8236722  89.4283837
  33.3663005  49.0144233  94.0571697  32.9125332  48.1735143  94.1136888
  32.7356972  49.6505632  94.3946478  31.8095945  50.8520730  94.9921516
  32.1018919  51.4125787  94.2733881  32.3194565  51.1449291  95.7474675
  27.8319826  46.9446388  87.6268608  27.3939256  46.2282246  87.1674246
  28.5730267  47.1722502  87.0653700  35.9492940  45.2203585  93.6844927
  35.8110839  45.4105181  92.7566116  35.5929159  45.9822967  94.1412978
  28.0614798  54.1802229  90.9000305  28.2366554  53.7090272  91.7145928
  27.3747587  54.8067995  91.1281566  31.9531053  45.8030769  87.2200666
  31.3360224  45.0777597  87.1233719  31.4847542  46.5640129  86.8767740
  23.7429599  40.0216193  86.3421970  22.8659066  39.9004994  85.9784217
  24.2187352  39.2302272  86.0900859  26.9293525  52.3742484  93.5884491
  26.1461047  52.9164164  93.6822715  27.6286270  52.8916463  93.9878732
  31.3219956  46.9408801  93.8057120  30.3876235  47.0610263  93.6361824
  31.4996625  46.0381267  93.5417129  32.7768739  49.1269941  91.3393306
  33.0528582  49.0126536  92.2487180  31.9073237  48.7287426  91.3005479
  29.4122803  53.3756292  94.9826119  29.5945197  52.5577948  95.4453872
  30.2355789  53.5923984  94.5451009  29.7464968  52.3024477  92.2441168
  30.2752734  51.7916932  91.6311330  30.0093188  51.9867007  93.1086701
  32.8405152  52.2741275  92.8596151  33.0142029  51.7087698  92.1070003
  33.3334043  53.0742170  92.6775641  38.6944543  45.0377698  94.4786451
  39.1375689  44.2885023  94.0805574  37.8171053  45.0287835  94.0960183
  33.8280324  51.5908040  89.9593049  34.5231229  52.2114732  90.1780364
  34.1703474  50.7403391  90.2345427  35.7271747  49.0407745  91.4880380
  36.2523071  49.3795018  90.7629700  35.6394100  48.1054761  91.3043515
  24.4199787  49.2021661  91.3956395  24.5687907  49.8857125  90.7423068
  25.2266230  49.1826751  91.9105851  27.9195193  51.6969791  88.8668143
  27.3469160  52.3159979  88.4138615  28.4927986  52.2469153  89.4008065
  31.1392452  51.9806942  89.9976725  32.0723125  51.9152503  90.2009601
  31.0515665  52.8163208  89.5391258  33.7680469  51.2972812  86.9580673
  33.6894101  50.9632675  87.8516430  34.5890136  51.7894580  86.9572145
  28.3041991  43.0330604  86.2084195  29.2501096  42.9036812  86.2772613
  27.9256236  42.2945266  86.6853623  26.4884908  40.9580581  86.1439080
  25.5816364  40.6613693  86.2201794  26.7660889  40.6610399  85.2773367
  25.2583693  37.8167516  86.2851060  26.1202857  38.1422414  86.5446877
  25.4434037  37.0299012  85.7724125  31.3384421  48.6140807  86.5790651
  32.0420271  48.8190810  87.1948307  30.6147070  49.1817569  86.8439734
  32.1682231  44.3650669  92.6992921  32.1117432  44.8219220  91.8600553
  32.7210574  43.6041353  92.5215764  33.2471118  49.0523336  88.6289111
  34.0816722  48.6204535  88.4466586  33.0855461  48.8805350  89.5566005
  32.9017010  45.5555450  89.9945450  32.8465814  45.3899721  89.0533894
  32.2763066  46.2631483  90.1507640  34.0487101  62.1315997  90.3604303
  34.8217977  61.5844984  90.2217178  34.4012500  62.9960246  90.5718764
  36.3853379  58.2908663  87.9922753  36.6378900  57.7690184  87.2306216
  35.4477938  58.1274808  88.0949436  36.1049668  60.1936769  90.1947127
  35.9885926  59.5181672  90.8628212  36.2151928  59.7069143  89.3779281
  38.0886696  54.6836816  88.8955165  38.2561098  55.5517052  89.2625636
  37.8983865  54.8464098  87.9716454  38.0675916  57.1394473  89.8801832
  37.9475542  57.5851524  90.7187312  37.3728505  57.4879791  89.3215370
  32.5567492  57.0767457  94.4336008  31.7598655  57.1886152  94.9519504
  32.3293084  57.4154110  93.5676899  29.5199492  61.1144360  93.5984999
  30.3574714  61.5241369  93.3818706  29.6977759  60.1743803  93.5685193
  41.4163924  58.7819441  89.2868832  40.9010547  59.5524046  89.5257219
  41.1441232  58.1084577  89.9101893  39.0011035  53.6269142  94.3454070
  38.1452631  53.2375992  94.1659709  39.4137987  53.7061103  93.4853856
  41.2050227  56.6546533  91.1128613  40.9000363  56.9692682  91.9638756
  42.1580669  56.7327953  91.1555946  34.3815386  53.4756423  95.1228178
  34.9559138  53.2531604  94.3901371  34.9686369  53.5445117  95.8756780
  34.7084973  55.5060884  89.1424064  33.8722286  55.8435570  89.4633338
  34.5689743  55.3709864  88.2051201  36.6838054  50.3497672  93.8503248
  36.0302466  50.0346689  93.2259862  36.6418528  49.7273412  94.5763071
  37.7949259  60.6316967  85.7656540  36.8876321  60.4006220  85.9647689
  38.2920291  59.8354586  85.9530521  38.9737492  60.7329562  90.2880530
  38.0648712  60.4488594  90.3853000  39.0032576  61.1528640  89.4283837
  43.2501307  48.0504389  95.8814134  43.5560183  47.1901753  95.5940049
  43.9753912  48.6422009  95.6813128  29.5425663  58.4535076  94.2695732
  29.3450063  57.8604436  93.5446799  28.9872327  58.1487286  94.9871671
  38.6713580  62.2738305  87.6268608  38.2333010  61.5574164  87.1674246
  39.4124021  62.5014420  87.0653700  32.0371888  57.9799110  91.9536684
  31.1069477  57.9183565  92.1706646  32.1329360  57.4575062  91.1573325
  31.9557438  54.5053922  94.5414926  32.2164255  55.4199256  94.4324086
  32.7774610  54.0378365  94.6911539  42.7924808  61.1322687  87.2200666
  42.1753978  60.4069515  87.1233719  42.3241296  61.8932047  86.8767740
  34.5823354  55.3508111  86.3421970  33.7052820  55.2296912  85.9784217
  35.0581107  54.5594189  86.0900859  29.3102048  56.9449966  91.7834876
  29.6055489  56.0360645  91.7301930  28.4090083  56.9237706  91.4615878
  31.0389889  54.6264064  91.9074201  30.7102595  53.7461443  91.7249307
  31.3929260  54.5711733  92.7950590  34.1531712  54.9137034  92.2749679
  34.4927785  55.4422955  91.5528287  34.6003833  55.2517440  93.0508245
  36.1399859  53.4111655  90.4742972  36.8608222  53.7892908  89.9706688
  35.5165164  54.1300532  90.5777950  40.2830982  54.1156804  91.4101304
  40.4994597  54.9981442  91.1090132  39.8025049  53.7243018  90.6806946
  36.2863483  52.9459446  93.3040508  36.4079394  52.0176092  93.5031396
  35.9965525  52.9598132  92.3918824  39.1554673  50.6314356  96.4407228
  39.1776370  50.6953689  95.4859208  39.5722732  49.7918865  96.6347734
  33.0146174  60.5578756  92.4017464  32.7692216  59.6541086  92.5997674
  33.1842089  60.5595907  91.4596942  32.2841822  56.2907114  89.9003626
  31.5911067  56.3651469  89.2443662  32.0393574  55.5267457  90.4225143
  39.1435746  58.3622522  86.2084195  40.0894850  58.2328730  86.2772613
  38.7649990  57.6237184  86.6853623  37.3278663  56.2872498  86.1439080
  36.4210118  55.9905611  86.2201794  37.6054644  55.9902316  85.2773367
  38.9440728  50.8309388  92.2983322  38.1341457  50.4856473  92.6738568
  39.6325145  50.5216932  92.8870933  40.8731277  49.9087435  93.9207618
  41.4262315  50.3282888  94.5797642  41.1101363  48.9823183  93.9630574
  36.0977447  53.1459433  86.2851060  36.9596611  53.4714332  86.5446877
  36.2827791  52.3590929  85.7724125  44.2510084  52.0187960  93.4286283
  43.6708753  52.6772764  93.0464335  43.9846016  51.1965304  93.0173700
  43.0334962  54.1788050  92.4842631  42.1460817  54.4637701  92.2662826
  43.4488951  54.0181814  91.6369908  42.1778175  63.9432725  86.5790651
  42.8814025  64.1482727  87.1948307  41.4540824  64.5109487  86.8439734
  37.0506890  50.3855476  89.5730769  37.0385560  51.3297316  89.7299040
  37.9430312  50.2025622  89.2790230  40.8659010  46.9798253  93.8276705
  40.0991406  46.4256740  93.9733388  41.2769715  47.0520122  94.6890857
  29.2837721  26.7197065  76.6862475  28.6325700  27.3051145  76.2996489
  30.0782084  27.2503260  76.7457512  23.2093348  23.8086202  77.0849609
  23.9824224  23.2615189  76.9462485  23.5618747  24.6730451  77.2964071
  25.5459626  19.9678868  74.7168059  25.7985146  19.4460389  73.9551522
  24.6084185  19.8045013  74.8194743  30.7612986  24.4087497  77.2231459
  30.1258819  24.4822123  77.9352364  30.4310392  24.9981095  76.5450538
  24.9889055  31.5868320  80.2537270  24.9113085  32.5376145  80.3325750
  24.3850699  31.2414192  80.9112196  32.9267229  19.2886151  77.4327473
  33.8385085  19.5213538  77.2575170  32.4176876  19.8723196  76.8702551
  35.4126044  25.2066408  82.1785418  34.7277082  25.5865309  81.6282451
  35.4969893  25.8161734  82.9117366  41.8728796  22.0737071  83.2988090
  41.1192505  21.5044469  83.1432095  42.0076337  22.0399735  84.2458725
  27.2627424  26.9450473  78.9742810  27.1273099  27.7902009  79.4027657
  27.8037237  27.1469751  78.2108743  30.5770171  20.4589646  76.0114138
  30.0616794  21.2294251  76.2502526  30.3047479  19.7854782  76.6347200
  35.5504445  23.2122001  77.9467312  34.7733887  22.8733160  77.5022474
  36.2295926  23.2174624  77.2722277  28.8102906  24.4906961  79.4866873
  28.2824267  23.7559721  79.1740111  28.3090408  25.2681638  79.2406842
  26.9555506  22.3087172  72.4901846  26.0482567  22.0776425  72.6892995
  27.4526538  21.5124791  72.6775828  29.8623585  31.0184679  75.4098533
  29.1885283  31.3216376  76.0183490  30.2489407  31.8213759  75.0603990
  28.1343739  22.4099766  77.0125837  27.2254958  22.1258799  77.1098306
  28.1638823  22.8298845  76.1529143  33.3663007  26.0206356  80.7817004
  32.9125334  25.1797266  80.8382195  32.7356973  26.6567754  81.1191784
  31.8095946  27.8582853  81.7166822  32.1018920  28.4187910  80.9979188
  32.3194566  28.1511414  82.4719981  27.8319827  23.9508510  74.3513915
  27.3939257  23.2344369  73.8919552  28.5730268  24.1784625  73.7899006
  35.9492942  22.2265707  80.4090234  35.8110840  22.4167303  79.4811423
  35.5929161  22.9885090  80.8658285  28.0614800  31.1864351  77.6245612
  28.2366555  30.7152394  78.4391234  27.3747588  31.8130117  77.8526872
  31.9531055  22.8092892  73.9445973  31.3360225  22.0839720  73.8479025
  31.4847543  23.5702252  73.6013047  23.7429600  17.0278316  73.0667277
  22.8659067  16.9067117  72.7029524  24.2187354  16.2364394  72.8146166
  26.9293527  29.3804606  80.3129797  26.1461048  29.9226287  80.4068022
  27.6286272  29.8978586  80.7124039  31.3219957  23.9470923  80.5302426
  30.3876236  24.0672386  80.3607131  31.4996626  23.0443390  80.2662436
  32.7768740  26.1332064  78.0638612  33.0528584  26.0188658  78.9732487
  31.9073239  25.7349549  78.0250786  29.4122804  30.3818415  81.7071426
  29.5945198  29.5640070  82.1699178  30.2355790  30.5986107  81.2696316
  29.7464969  29.3086600  78.9686475  30.2752736  28.7979054  78.3556637
  30.0093189  28.9929130  79.8332008  32.8405153  29.2803398  79.5841458
  33.0142030  28.7149820  78.8315310  33.3334044  30.0804293  79.4020947
  38.6944544  22.0439821  81.2031757  39.1375690  21.2947146  80.8050881
  37.8171054  22.0349957  80.8205489  33.8280325  28.5970162  76.6838356
  34.5231230  29.2176855  76.9025670  34.1703475  27.7465514  76.9590734
  35.7271748  26.0469868  78.2125687  36.2523073  26.3857141  77.4875007
  35.6394101  25.1116883  78.0288821  27.4112409  32.1141851  82.5720940
  26.9717399  31.6218230  83.2653796  28.1620526  31.5714819  82.3313015
  24.4199788  26.2083784  78.1201702  24.5687909  26.8919248  77.4668375
  25.2266232  26.1888874  78.6351158  27.9195194  28.7031914  75.5913449
  27.3469161  29.3222101  75.1383921  28.4927987  29.2531276  76.1253371
  31.1392454  28.9869064  76.7222032  32.0723127  28.9214626  76.9254907
  31.0515666  29.8225331  76.2636564  33.7680470  28.3034934  73.6825979
  33.6894102  27.9694798  74.5761737  34.5890137  28.7956702  73.6817452
  28.3041992  20.0392727  72.9329502  29.2501097  19.9098935  73.0017920
  27.9256237  19.3007389  73.4098930  26.4884909  17.9642703  72.8684387
  25.5816365  17.6675816  72.9447101  26.7660890  17.6672521  72.0018673
  25.2583694  14.8229638  73.0096366  26.1202858  15.1484537  73.2692184
  25.4434038  14.0361134  72.4969432  31.3384422  25.6202930  73.3035958
  32.0420272  25.8252932  73.9193613  30.6147071  26.1879692  73.5685041
  32.1682232  21.3712791  79.4238228  32.1117434  21.8281343  78.5845860
  32.7210575  20.6103476  79.2461070  33.2471119  26.0585459  75.3534418
  34.0816723  25.6266658  75.1711892  33.0855462  25.8867473  76.2811312
  32.9017012  22.5617572  76.7190757  32.8465815  22.3961844  75.7779201
  32.2763067  23.2693605  76.8752947  41.8755395  36.5755110  85.4489594
  42.5133804  36.4561858  84.7452934  41.7576237  37.5235954  85.5077546
  38.6845101  36.5282538  85.3851119  38.3463612  36.4123603  84.4971654
  39.5534869  36.1273703  85.3652125  34.5431916  38.3818015  81.3748010
  33.9796782  38.2907952  80.6064298  34.4284312  37.5617919  81.8550503
  32.0896348  39.8769206  84.2132230  32.8817640  39.5360031  83.7978530
  32.3292999  39.9864181  85.1334384  40.1231475  42.0488982  76.6862475
  39.4719455  42.6343063  76.2996489  40.9175838  42.5795177  76.7457512
  34.0487102  39.1378120  77.0849609  34.8217978  38.5907107  76.9462485
  34.4012501  40.0022369  77.2964071  35.8872145  40.4654502  90.2916509
  35.5962011  41.3700133  90.1763175  36.5229129  40.5071029  91.0060578
  36.8128352  37.8431350  86.8817868  37.4091924  37.6187373  86.1674831
  36.8703323  37.1016096  87.4843316  36.3853380  35.2970786  74.7168059
  36.6378901  34.7752307  73.9551522  35.4477939  35.1336931  74.8194743
  41.4296663  34.3006564  82.5242802  42.2159752  33.8825987  82.1733219
  41.6935367  35.2052656  82.6924451  41.6006740  39.7379414  77.2231459
  40.9652573  39.8114041  77.9352364  41.2704147  40.3273013  76.5450538
  46.8305090  34.2381797  83.4275781  47.5630262  33.6681014  83.6613610
  46.0744446  33.8503398  83.8682286  36.1049669  37.1998892  76.9192434
  35.9885927  36.5243795  77.5873518  36.2151929  36.7131266  76.1024587
  38.4481210  36.6609039  80.6239123  38.0839417  36.1339660  81.3352045
  39.3048326  36.2707508  80.4505609  38.0886697  31.6898938  75.6200472
  38.2561099  32.5579175  75.9870943  37.8983866  31.8526220  74.6961761
  40.8462030  40.1515917  87.2866302  40.5462753  41.0540956  87.1782109
  40.5013090  39.8848101  88.1387455  34.2974511  36.6029714  83.3203007
  33.3725008  36.4705928  83.5280698  34.5458925  37.3823933  83.8172949
  44.2459174  32.6698457  84.9663740  43.3376051  32.6013866  84.6722501
  44.1946770  33.1470402  85.7945565  38.0675918  34.1456596  76.6047139
  37.9475543  34.5913647  77.4432619  37.3728506  34.4941914  76.0460677
  31.6583323  36.2462988  84.1546796  31.7875704  36.4997467  85.0686207
  30.9780774  36.8390696  83.8351451  35.8282810  46.9160238  80.2537270
  35.7506840  47.8668063  80.3325750  35.2244453  46.5706110  80.9112196
  46.1120820  30.8714896  86.7441613  45.4695200  31.1647429  86.0981408
  45.6075749  30.7567816  87.5494810  43.7660984  34.6178069  77.4327473
  44.6778840  34.8505456  77.2575170  43.2570631  35.2015113  76.8702551
  42.0501752  39.0402697  91.0688765  42.4585108  38.5985107  90.3243398
  41.3279013  38.4655324  91.3222958  38.4032822  33.9775304  88.4422322
  39.2494017  34.4014717  88.5856971  38.3431459  33.3208928  89.1360885
  42.3730566  39.6003888  84.8241054  41.7439429  39.7649602  84.1217122
  41.9856228  40.0145497  85.5952018  46.2519798  40.5358325  82.1785418
  45.5670836  40.9157227  81.6282451  46.3363647  41.1453652  82.9117366
  43.5070730  38.1818284  88.7780761  43.7187625  38.8250044  88.1015143
  43.4600478  37.3480601  88.3102692  41.1096959  30.7936105  85.6817334
  40.2481438  31.0917359  85.9734071  41.1359393  31.0106504  84.7498366
  37.9258528  39.3378296  82.0891139  38.3896874  39.6165999  81.2995762
  37.6615326  38.4361740  81.9064230  34.8182609  38.8849777  85.0270903
  35.3883966  39.3137046  84.3888387  35.4090721  38.6032362  85.7255088
  36.8627414  35.4601448  78.8980704  37.5651457  35.9122492  79.3654631
  36.5308043  34.8185267  79.5260598  30.6052748  33.7185001  84.1997838
  29.8151802  33.9742529  83.7237949  31.0963995  34.5333339  84.3049879
  44.6216558  41.0590240  86.9503119  45.4434001  40.6570427  86.6685800
  44.6178960  40.9558474  87.9019235  32.5567493  34.0829580  81.1581315
  31.7598657  34.1948274  81.6764810  32.3293086  34.4216232  80.2922205
  38.3873161  40.6074283  89.1063829  38.4517594  41.0694690  89.9422001
  37.6784085  39.9771648  89.2346139  52.7122551  37.4028988  83.2988090
  51.9586259  36.8336386  83.1432095  52.8470092  37.3691653  84.2458725
  38.1021179  42.2742391  78.9742810  37.9666854  43.1193926  79.4027657
  38.6430991  42.4761668  78.2108743  31.5550576  39.7917829  79.5470735
  32.0675097  40.5861079  79.6976299  32.2073289  39.0944119  79.4804336
  33.3645461  42.9083585  81.6293488  33.5412089  43.8301550  81.4414472
  34.1602294  42.5942004  82.0587868  39.7289655  42.8965957  93.1043152
  39.2853509  42.1102336  92.7864056  40.3906869  43.0845108  92.4387043
  34.4876776  44.4261759  87.6303830  35.0384201  44.2978822  86.8580824
  33.6488252  44.7256648  87.2798723  41.8270893  43.1768757  91.1324553
  41.8089369  43.9977638  90.6404822  42.7490813  43.0522832  91.3574694
  38.2843947  40.6912887  91.9748061  38.8172284  39.9301175  91.7447369
  37.7558028  40.3986538  92.7172216  29.5199493  38.1206483  80.3230305
  30.3574715  38.5303491  80.1064013  29.6977761  37.1805925  80.2930499
  41.4163925  35.7881564  76.0114138  40.9010548  36.5586168  76.2502526
  41.1441233  35.1146700  76.6347200  39.0011036  30.6331264  81.0699377
  38.1452632  30.2438115  80.8905015  39.4137988  30.7123225  80.2099162
  40.5310183  28.1677608  85.4690936  40.0274978  28.1307743  84.6558742
  40.8240790  29.0770350  85.5287593  36.7753069  28.2516337  84.4757118
  37.6406065  28.0559146  84.1163008  36.8430577  28.0226689  85.4026475
  46.3898199  38.5413918  77.9467312  45.6127642  38.2025078  77.5022474
  47.0689680  38.5466541  77.2722277  41.2050228  33.6608656  77.8373919
  40.9000364  33.9754805  78.6884063  42.1580670  33.7390076  77.8801252
  39.6496660  39.8198879  79.4866873  39.1218022  39.0851639  79.1740111
  39.1484163  40.5973555  79.2406842  44.6289506  38.0147899  84.6033920
  43.9713180  38.7047161  84.6914048  45.4329905  38.4044331  84.9467906
  34.3815388  30.4818545  81.8473485  34.9559140  30.2593727  81.1146678
  34.9686370  30.5507240  82.6002086  43.4394965  36.3692272  82.6537861
  43.9526847  37.0022264  83.1559571  44.0896189  35.7693468  82.2881221
  34.7084975  32.5123006  75.8669370  33.8722287  32.8497693  76.1878645
  34.5689744  32.3771986  74.9296507  36.6838055  27.3559794  80.5748554
  36.0302468  27.0408811  79.9505169  36.6418529  26.7335535  81.3008377
  37.7949260  37.6379089  72.4901846  36.8876322  37.4068343  72.6892995
  38.2920292  36.8416709  72.6775828  40.7017339  46.3476596  75.4098533
  40.0279038  46.6508293  76.0183490  41.0883161  47.1505677  75.0603990
  39.9175796  33.8441728  84.8996202  38.9998357  34.0656675  84.7417890
  40.3335939  33.9188038  84.0407909  40.7010843  35.2433143  80.0298882
  41.4482662  35.7554541  79.7206004  40.9702433  34.9217196  80.8903276
  38.9737494  37.7391684  77.0125837  38.0648713  37.4550717  77.1098306
  39.0032577  38.1590763  76.1529143  44.2056761  41.3498274  80.7817004
  43.7519088  40.5089184  80.8382195  43.5750728  41.9859672  81.1191784
  43.1489681  32.2790260  82.0117672  42.4112437  31.7667646  82.3427914
  43.4016454  31.8390641  81.2000948  42.6489700  43.1874770  81.7166822
  42.9412675  43.7479827  80.9979188  43.1588321  43.4803331  82.4719981
  43.2501308  25.0566512  82.6059441  43.5560185  24.1963875  82.3185356
  43.9753913  25.6484132  82.4058435  29.5425664  35.4597198  80.9941039
  29.3450064  34.8666559  80.2692105  28.9872328  35.1549408  81.7116978
  37.5222388  35.3520305  83.1135632  37.5770997  34.3994141  83.0378108
  36.7113590  35.5079744  83.5976930  38.6713581  39.2800428  74.3513915
  38.2333011  38.5636287  73.8919552  39.4124022  39.5076543  73.7899006
  35.4614748  33.9697364  80.8726011  34.6482613  34.2691535  81.2791203
  35.9573742  33.5753053  81.5900493  37.6123325  43.9655121  82.8060275
  37.5699504  44.1915968  81.8768807  38.5286024  43.7318496  82.9546077
  41.0588959  34.4339189  89.7040905  41.4138347  34.6610662  90.5635370
  41.7061091  34.7657566  89.0818160  46.7886696  37.5557625  80.4090234
  46.6504595  37.7459221  79.4811423  46.4322915  38.3177008  80.8658285
  34.9528822  31.5415720  86.4887246  35.5928202  31.4004479  85.7910209
  34.1206353  31.2550233  86.1125848  46.8156076  39.6234152  85.4201505
  47.2492583  39.5309441  86.2684559  47.5287657  39.5991652  84.7821521
  35.7289126  40.8418150  82.6022238  36.5229725  40.3468471  82.4004813
  35.0180819  40.3136014  82.2389944  40.5483971  43.2236246  86.9534606
  40.6020993  43.7927182  87.7212322  39.6798752  43.3938131  86.5888643
  32.0371890  34.9861232  78.6781991  31.1069478  34.9245688  78.8951953
  32.1329362  34.4637185  77.8818632  31.9557439  31.5116045  81.2660232
  32.2164256  32.4261378  81.1569393  32.7774611  31.0440488  81.4156845
  47.6771625  39.6657853  87.9534391  47.8707515  40.5703663  88.1993665
  47.5772244  39.2065272  88.7872976  42.7386734  39.8164595  93.5275271
  42.5872240  39.5875147  92.6105355  42.7291414  40.7735197  93.5406616
  39.5072070  37.3896508  88.5121538  40.4364130  37.5407668  88.3390505
  39.0863101  37.4780529  87.6570184  38.3060402  41.4147172  86.2820075
  38.1671488  41.0465957  87.1546013  37.5174998  41.9294812  86.1104033
  38.9008554  46.5156269  77.6245612  39.0760310  46.0444312  78.4391234
  38.2141342  47.1422035  77.8526872  39.8565617  40.7928775  83.6708913
  39.5215450  40.7529545  84.5666563  39.3569563  40.1273491  83.1979323
  42.7924809  38.1384809  73.9445973  42.1753980  37.4131638  73.8479025
  42.3241298  38.8994170  73.6013047  36.4592162  35.9116364  88.6845174
  37.1691781  35.2709557  88.6431792  36.4161470  36.1629259  89.6071355
  44.4478941  42.8483718  91.6051753  44.3891487  42.1642938  90.9382336
  44.8498459  43.5902708  91.1532379  33.4669640  49.6645632  84.3985472
  33.7066238  50.2964156  85.0764490  32.6238836  49.3133672  84.6850831
  34.5823355  32.3570234  73.0667277  33.7052821  32.2359035  72.7029524
  35.0581108  31.5656312  72.8146166  44.4496348  40.8123302  89.8365733
  43.5623127  40.4749224  89.9592132  45.0194899  40.0806333  90.0734498
  26.1025495  37.1447393  83.1608784  26.7896535  36.8309124  82.5729799
  25.9473624  38.0488758  82.8876036  37.9797501  45.4724754  86.8026976
  37.9067673  46.2779726  87.3146280  37.5374894  45.6716720  85.9774997
  37.7687281  44.7096524  80.3129797  36.9854803  45.2518204  80.4068022
  38.4680026  45.2270504  80.7124039  41.0783931  30.5191154  82.9564003
  41.5752631  29.7661116  82.6365073  40.3070913  30.5555470  82.3907212
  48.9313689  36.2231519  84.5982294  48.9203565  37.1056235  84.2276227
  48.0631068  35.8703070  84.4036831  40.4396185  45.3711588  88.9585135
  41.1524157  46.0059053  88.8861036  39.9486214  45.4675454  88.1425136
  42.1613712  39.2762841  80.5302426  41.2269991  39.3964303  80.3607131
  42.3390380  38.3735308  80.2662436  37.6618900  32.6608537  82.6835687
  37.2916687  32.1079577  83.3716593  38.1577992  32.0566670  82.1310687
  45.5486263  35.1180160  81.0652460  46.0146715  35.9508152  80.9912763
  45.9993764  34.6525142  81.7697719  35.4908098  43.1206032  89.7790705
  36.1917558  43.7542515  89.9320100  35.0203213  43.4620763  89.0186345
  43.6162494  41.4623981  78.0638612  43.8922338  41.3480576  78.9732487
  42.7466993  41.0641466  78.0250786  43.5202926  27.4860747  85.1043362
  42.6066006  27.7164974  85.2725569  43.9496027  27.5699191  85.9557394
  43.2909384  35.6750639  87.6043256  42.6380835  35.9226546  86.9495709
  43.6689764  34.8614777  87.2705733  40.2516558  45.7110332  81.7071426
  40.4338953  44.8931988  82.1699178  41.0749544  45.9278024  81.2696316
  40.5858724  44.6378517  78.9686475  41.1146490  44.1270972  78.3556637
  40.8486943  44.3221048  79.8332008  31.0875817  42.6542387  86.7121808
  31.6729253  41.9086075  86.8449712  30.8900655  42.9646343  87.5958472
  33.9414472  45.6893634  81.7284250  33.2724847  46.1739762  81.2448291
  33.8027341  45.9362854  82.6427629  38.0819740  47.7237378  88.3266909
  38.6338048  47.8868999  89.0915994  38.4225934  48.3141815  87.6546934
  42.9330615  42.5498635  94.1815563  43.4770519  43.1628593  93.6870518
  42.3517459  43.1078213  94.6982576  29.3102049  33.9512089  78.5080183
  29.6055490  33.0422767  78.4547236  28.4090085  33.9299828  78.1861185
  41.2188128  45.6719353  85.3130591  41.0939267  44.8709093  84.8041536
  41.8767219  46.1665546  84.8244561  32.8396296  32.0268086  84.4907731
  32.1182882  32.6404053  84.3515205  33.6289552  32.5625850  84.4124377
  43.2823036  43.4728373  86.9410141  42.3353372  43.3533724  86.8688468
  43.6305809  42.5850871  87.0236403  31.0389890  31.6326187  78.6319508
  30.7102597  30.7523566  78.4494614  31.3929261  31.5773855  79.5195897
  40.2869469  43.2681089  83.1414493  40.1394432  42.3397797  83.3222063
  41.1122963  43.2901180  82.6571569  34.1531714  31.9199156  78.9994985
  34.4927786  32.4485078  78.2773594  34.6003834  32.2579563  79.7753552
  43.8903591  44.0909648  84.2279366  44.8150139  43.8852509  84.0903817
  43.7218894  43.8426049  85.1368708  36.1399861  30.4173778  77.1988278
  36.8608223  30.7955031  76.6951995  35.5165165  31.1362655  77.3023256
  40.2830984  31.1218927  78.1346611  40.4994598  32.0043565  77.8335439
  39.8025051  30.7305140  77.4052253  35.0230205  34.0804640  84.7117355
  34.8774786  34.3944943  85.6041637  34.5455409  34.6989541  84.1588254
  36.8826588  31.0707188  84.7598245  36.8688157  30.1748282  84.4230543
  37.5999016  31.0777852  85.3936531  38.7352719  31.5044528  86.8051372
  38.4770496  32.4261599  86.8035703  38.2037759  31.1074963  87.4951836
  43.6798907  44.6095316  79.5841458  43.8535785  44.0441738  78.8315310
  44.1727799  45.4096210  79.4020947  36.2863484  29.9521569  80.0285815
  36.4079395  29.0238215  80.2276702  35.9965526  29.9660254  79.1164130
  39.1554674  27.6376479  83.1652535  39.1776371  27.7015812  82.2104514
  39.5722733  26.7980988  83.3593041  49.5338298  37.3731738  81.2031757
  49.9769445  36.6239064  80.8050881  48.6564809  37.3641875  80.8205489
  44.6674080  43.9262080  76.6838356  45.3624984  44.5468773  76.9025670
  45.0097230  43.0757431  76.9590734  46.5665503  41.3761785  78.2125687
  47.0916827  41.7149058  77.4875007  46.4787855  40.4408801  78.0288821
  38.2285552  45.2895859  90.3415563  38.5372678  45.0445006  91.2138263
  39.0261034  45.4942498  89.8534433  38.2506164  47.4433769  82.5720940
  37.8111154  46.9510147  83.2653796  39.0014281  46.9006736  82.3313015
  30.7298503  43.6345310  82.5745568  31.5556523  43.3349081  82.1944211
  30.3792555  42.8652932  83.0235356  35.6980036  42.9871778  84.6443241
  35.0760045  42.3242483  84.3445469  36.3684903  43.0132910  83.9616889
  28.9307108  41.5531636  83.5334501  28.0939016  41.1253810  83.3518503
  28.9030753  41.7464079  84.4705293  46.2559409  42.0094689  93.5176885
  45.4654953  41.9918828  92.9781384  46.0192764  42.5482983  94.2725921
  46.3757284  38.8587156  90.8309613  46.4255289  38.6937163  91.7725136
  46.2671207  37.9914415  90.4407494  35.2593543  41.5375701  78.1201702
  35.4081663  42.2211166  77.4668375  36.0659986  41.5180791  78.6351158
  47.8775481  41.2784097  91.0751635  47.5860289  41.6414078  91.9115096
  47.2647612  40.5651105  90.8964967  49.0771163  38.8436977  83.5954205
  49.9118055  39.2826781  83.7591765  49.2130292  38.3675630  82.7762451
  46.1262669  36.4016712  89.5431693  46.6016791  36.5944358  88.7350544
  45.2028234  36.4575897  89.2975076  33.0146176  37.5640879  79.1262771
  32.7692218  36.6603209  79.3242981  33.1842090  37.5658029  78.1842249
  32.2841823  33.2969236  76.6248932  31.5911068  33.3713591  75.9688968
  32.0393575  32.5329580  77.1470449  40.9555480  24.8564838  84.0288423
  41.2357234  24.1888027  84.6548850  41.7406087  25.0493933  83.5163087
  38.7588948  44.0323832  75.5913449  38.1862915  44.6514019  75.1383921
  39.3321742  44.5823193  76.1253371  44.8264338  33.2782472  87.7759998
  45.7781761  33.3780569  87.7972222  44.6567789  32.4860740  88.2858083
  42.8478718  30.3638055  87.9619399  42.2528650  30.6443068  87.2665888
  42.5628414  30.8531956  88.7336140  41.9786208  44.3160982  76.7222032
  42.9116881  44.2506543  76.9254907  41.8909421  45.1517249  76.2636564
  44.6074225  43.6326852  73.6825979  44.5287856  43.2986716  74.5761737
  45.4283892  44.1248620  73.6817452  47.3052416  36.4988591  86.8902298
  47.2728736  35.5604592  87.0761982  47.9153040  36.5772628  86.1568123
  39.1435747  35.3684644  72.9329502  40.0894851  35.2390853  73.0017920
  38.7649992  34.6299306  73.4098930  47.4546904  33.2899635  86.9360581
  46.9385953  32.5058091  86.7490510  48.3386853  32.9618351  87.1007100
  45.1157631  27.0340650  82.8956394  44.9182452  26.7255739  83.7799726
  45.7257337  27.7602289  83.0254324  53.1228966  37.5604598  86.0308335
  53.8532354  37.2989886  86.5916038  52.5135911  36.8233320  86.0710403
  51.2044263  35.7012461  86.6282786  50.4777426  35.5668426  86.0199277
  50.7891550  36.0089289  87.4339504  37.3278664  33.2934621  72.8684387
  36.4210119  32.9967733  72.9447101  37.6054645  32.9964439  72.0018673
  28.2456604  34.6140984  83.3183433  27.9259389  33.7606292  83.0257808
  27.6990032  34.8289562  84.0741401  32.0236512  37.3303425  87.0352940
  32.2422522  38.2620533  87.0540974  32.4362286  36.9711400  87.8207744
  38.9440730  27.8371510  79.0228628  38.1341458  27.4918595  79.3983874
  39.6325147  27.5279054  79.6116240  40.8731278  26.9149557  80.6452925
  41.4262317  27.3345011  81.3042948  41.1101364  25.9885305  80.6875881
  36.0977449  30.1521556  73.0096366  36.9596613  30.4776454  73.2692184
  36.2827793  29.3653052  72.4969432  28.1144864  38.2343896  85.2876555
  27.4208336  37.8197848  84.7746509  28.8617855  38.2764432  84.6909974
  44.2510085  29.0250082  80.1531589  43.6708754  29.6834886  79.7709642
  43.9846018  28.2027427  79.7419007  42.7013651  28.4255140  82.3552910
  43.2013430  28.5371675  81.5467228  43.3449259  28.1216193  82.9953718
  30.0281607  38.1662149  83.1642570  30.0052295  38.2649837  82.2124453
  30.3382243  39.0127300  83.4859736  32.6868985  40.2238304  87.2789184
  33.6412238  40.1922247  87.2119116  32.4881508  39.7628928  88.0939410
  33.2768367  38.7939421  89.8459982  34.0961256  39.2883499  89.8694819
  33.5505175  37.8771389  89.8177550  43.0334963  31.1850173  79.2087938
  42.1460818  31.4699823  78.9908132  43.4488952  31.0243936  78.3615214
  46.3849499  31.2096694  82.9242277  47.1609889  31.6993146  83.1966894
  45.6597633  31.6354748  83.3814146  48.8222058  31.9224313  83.9816217
  49.4166549  31.6820049  83.2709526  48.8948642  31.2031444  84.6089754
  31.0419214  45.7657924  84.2959382  30.9073681  45.0058325  83.7297380
  30.6251276  46.4898824  83.8288171  42.1778177  40.9494848  73.3035958
  42.8814027  41.1544850  73.9193613  41.4540825  41.5171609  73.5685041
  43.0075987  36.7004709  79.4238228  42.9511188  37.1573260  78.5845860
  43.5604329  35.9395393  79.2461070  46.8180793  32.4894441  80.2488347
  46.5617727  32.0891076  81.0796555  46.1933661  33.2038235  80.1238486
  51.1293131  35.2290514  82.7559639  50.5692689  35.2983703  83.5291201
  50.5236634  35.0531499  82.0359135  34.1988339  46.6627241  84.5077825
  34.0820724  47.6072673  84.4056515  33.3780786  46.3600803  84.8963624
  44.0864874  41.3877377  75.3534418  44.9210478  40.9558575  75.1711892
  43.9249217  41.2159390  76.2811312  43.7410766  37.8909490  76.7190757
  43.6859570  37.7253761  75.7779201  43.1156821  38.5985523  76.8752947
  37.0506892  27.3917599  76.2976075  37.0385561  28.3359439  76.4544346
  37.9430313  27.2087744  76.0035536  35.2242854  47.3155503  87.7233753
  36.1270100  47.3479113  88.0400248  34.9980224  46.3855954  87.7380089
  36.9796456  46.0686489  84.3843832  36.0292087  46.0688351  84.2708204
  37.2828942  45.3219224  83.8679867  52.7149149  51.9047028  85.4489594
  53.3527559  51.7853775  84.7452934  52.5969992  52.8527872  85.5077546
  49.5238855  51.8574456  85.3851119  49.1857367  51.7415521  84.4971654
  50.3928623  51.4565621  85.3652125  45.3825671  53.7109932  81.3748010
  44.8190536  53.6199869  80.6064298  45.2678066  52.8909837  81.8550503
  42.9290103  55.2061124  84.2132230  43.7211395  54.8651949  83.7978530
  43.1686753  55.3156099  85.1334384  50.9625230  57.3780900  76.6862475
  50.3113209  57.9634980  76.2996489  51.7569593  57.9087095  76.7457512
  44.8880857  54.4670037  77.0849609  45.6611733  53.9199024  76.9462485
  45.2406256  55.3314287  77.2964071  47.6522106  53.1723268  86.8817868
  48.2485679  52.9479290  86.1674831  47.7097078  52.4308013  87.4843316
  47.2247135  50.6262703  74.7168059  47.4772655  50.1044225  73.9551522
  46.2871694  50.4628849  74.8194743  52.2690417  49.6298482  82.5242802
  53.0553507  49.2117905  82.1733219  52.5329122  50.5344574  82.6924451
  52.4400495  55.0671332  77.2231459  51.8046328  55.1405959  77.9352364
  52.1097901  55.6564931  76.5450538  57.6698845  49.5673715  83.4275781
  58.4024017  48.9972932  83.6613610  56.9138200  49.1795315  83.8682286
  46.9443423  52.5290809  76.9192434  46.8279682  51.8535713  77.5873518
  47.0545683  52.0423183  76.1024587  49.2874964  51.9900956  80.6239123
  48.9233172  51.4631577  81.3352045  50.1442080  51.5999425  80.4505609
  55.1924265  43.2795289  87.8870389  54.8607590  44.1490700  87.6631604
  54.5969878  42.9631573  88.5664420  48.9280451  47.0190856  75.6200472
  49.0954854  47.8871092  75.9870943  48.7377620  47.1818138  74.6961761
  51.6855784  55.4807835  87.2866302  51.3856508  56.3832874  87.1782109
  51.3406844  55.2140018  88.1387455  45.1368266  51.9321632  83.3203007
  44.2118762  51.7997846  83.5280698  45.3852679  52.7115851  83.8172949
  55.0852928  47.9990375  84.9663740  54.1769806  47.9305784  84.6722501
  55.0340524  48.4762320  85.7945565  48.9069672  49.4748514  76.6047139
  48.7869297  49.9205564  77.4432619  48.2122261  49.8233831  76.0460677
  42.4977077  51.5754905  84.1546796  42.6269458  51.8289384  85.0686207
  41.8174528  52.1682613  83.8351451  46.6676564  62.2452155  80.2537270
  46.5900594  63.1959980  80.3325750  46.0638208  61.8998028  80.9112196
  56.9514575  46.2006814  86.7441613  56.3088955  46.4939347  86.0981408
  56.4469503  46.0859734  87.5494810  54.6054738  49.9469987  77.4327473
  55.5172594  50.1797374  77.2575170  54.0964385  50.5307031  76.8702551
  49.2426576  49.3067221  88.4422322  50.0887771  49.7306635  88.5856971
  49.1825214  48.6500846  89.1360885  53.2124321  54.9295805  84.8241054
  52.5833183  55.0941519  84.1217122  52.8249983  55.3437415  85.5952018
  57.0913553  55.8650243  82.1785418  56.4064591  56.2449144  81.6282451
  57.1757402  56.4745570  82.9117366  52.3926021  46.9671590  90.1003496
  52.1486953  47.7213650  89.5637772  52.6685952  47.3456937  90.9350743
  51.9490713  46.1228023  85.6817334  51.0875192  46.4209276  85.9734071
  51.9753148  46.3398422  84.7498366  48.7652283  54.6670213  82.0891139
  49.2290628  54.9457916  81.2995762  48.5009081  53.7653658  81.9064230
  45.6576364  54.2141695  85.0270903  46.2277721  54.6428963  84.3888387
  46.2484475  53.9324280  85.7255088  47.7021169  50.7893366  78.8980704
  48.4045212  51.2414409  79.3654631  47.3701797  50.1477185  79.5260598
  46.1501530  49.3805122  93.2731914  45.5200191  50.0621403  93.5067311
  46.0437618  49.2688204  92.3285052  41.4446503  49.0476918  84.1997838
  40.6545557  49.3034447  83.7237949  41.9357750  49.8625256  84.3049879
  43.3961248  49.4121498  81.1581315  42.5992411  49.5240192  81.6764810
  43.1686840  49.7508150  80.2922205  39.7284206  49.3007409  86.6312829
  39.9792244  50.1854419  86.8970405  40.2643754  49.1212010  85.8587921
  63.5516305  52.7320906  83.2988090  62.7980014  52.1628304  83.1432095
  63.6863846  52.6983570  84.2458725  48.9414933  57.6034308  78.9742810
  48.8060608  58.4485844  79.4027657  49.4824746  57.8053586  78.2108743
  45.4282273  43.6825888  95.6357165  45.0349218  43.1292087  96.3104809
  46.2448413  43.9936467  96.0263682  42.3944331  55.1209746  79.5470735
  42.9068851  55.9152997  79.6976299  43.0467043  54.4236037  79.4804336
  44.2039215  58.2375503  81.6293488  44.3805844  59.1593467  81.4414472
  44.9996049  57.9233922  82.0587868  48.3450234  45.0983767  93.2277421
  49.0859947  45.6990920  93.1481884  48.5768157  44.3561405  92.6695464
  43.4891572  50.2840134  91.5055651  43.3745087  49.3825392  91.8062750
  42.6336090  50.5303831  91.1540468  45.3270531  59.7553676  87.6303830
  45.8777956  59.6270740  86.8580824  44.4882007  60.0548565  87.2798723
  52.2907397  41.1264870  87.5041703  51.9471666  42.0166512  87.4280814
  52.6586359  40.9366528  86.6411288  40.3593247  53.4498401  80.3230305
  41.1968469  53.8595409  80.1064013  40.5371515  52.5097843  80.2930499
  52.2557680  51.1173481  76.0114138  51.7404303  51.8878086  76.2502526
  51.9834988  50.4438617  76.6347200  49.8404791  45.9623182  81.0699377
  48.9846387  45.5730032  80.8905015  50.2531742  46.0415143  80.2099162
  51.3703937  43.4969525  85.4690936  50.8668733  43.4599660  84.6558742
  51.6634544  44.4062268  85.5287593  47.6146823  43.5808255  84.4757118
  48.4799820  43.3851064  84.1163008  47.6824332  43.3518607  85.4026475
  57.2291954  53.8705836  77.9467312  56.4521396  53.5316995  77.5022474
  57.9083435  53.8758459  77.2722277  52.0443983  48.9900573  77.8373919
  51.7394118  49.3046723  78.6884063  52.9974425  49.0681993  77.8801252
  50.4890415  55.1490797  79.4866873  49.9611776  54.4143556  79.1740111
  49.9877917  55.9265473  79.2406842  55.4683261  53.3439817  84.6033920
  54.8106935  54.0339079  84.6914048  56.2723660  53.7336249  84.9467906
  45.2209142  45.8110463  81.8473485  45.7952894  45.5885644  81.1146678
  45.8080125  45.8799157  82.6002086  54.2788719  51.6984190  82.6537861
  54.7920601  52.3314182  83.1559571  54.9289943  51.0985385  82.2881221
  45.5478729  47.8414924  75.8669370  44.7116042  48.1789611  76.1878645
  45.4083499  47.7063904  74.9296507  47.5231810  42.6851712  80.5748554
  46.8696222  42.3700729  79.9505169  47.4812284  42.0627452  81.3008377
  48.6343015  52.9671007  72.4901846  47.7270076  52.7360260  72.6892995
  49.1314047  52.1708626  72.6775828  51.5411094  61.6768514  75.4098533
  50.8672792  61.9800211  76.0183490  51.9276916  62.4797594  75.0603990
  50.7569550  49.1733645  84.8996202  49.8392112  49.3948592  84.7417890
  51.1729694  49.2479956  84.0407909  51.5404598  50.5725061  80.0298882
  52.2876417  51.0846458  79.7206004  51.8096188  50.2509114  80.8903276
  49.8131248  53.0683602  77.0125837  48.9042467  52.7842635  77.1098306
  49.8426332  53.4882680  76.1529143  55.0450516  56.6790191  80.7817004
  54.5912843  55.8381101  80.8382195  54.4144482  57.3151590  81.1191784
  53.9883435  47.6082177  82.0117672  53.2506192  47.0959564  82.3427914
  54.2410209  47.1682559  81.2000948  53.4883455  58.5166688  81.7166822
  53.7806429  59.0771745  80.9979188  53.9982075  58.8095249  82.4719981
  54.0895062  40.3858429  82.6059441  54.3953939  39.5255793  82.3185356
  54.8147667  40.9776050  82.4058435  40.3819419  50.7889116  80.9941039
  40.1843818  50.1958477  80.2692105  39.8266083  50.4841326  81.7116978
  48.3616142  50.6812222  83.1135632  48.4164752  49.7286059  83.0378108
  47.5507344  50.8371662  83.5976930  49.5107336  54.6092345  74.3513915
  49.0726766  53.8928204  73.8919552  50.2517777  54.8368460  73.7899006
  46.3008502  49.2989282  80.8726011  45.4876368  49.5983453  81.2791203
  46.7967496  48.9044971  81.5900493  48.4517080  59.2947039  82.8060275
  48.4093259  59.5207885  81.8768807  49.3679779  59.0610414  82.9546077
  51.8982714  49.7631107  89.7040905  52.2532102  49.9902580  90.5635370
  52.5454845  50.0949483  89.0818160  57.6280451  52.8849543  80.4090234
  57.4898349  53.0751138  79.4811423  57.2716670  53.6468925  80.8658285
  45.7922577  46.8707638  86.4887246  46.4321956  46.7296397  85.7910209
  44.9600107  46.5842151  86.1125848  57.6549830  54.9526070  85.4201505
  58.0886337  54.8601359  86.2684559  58.3681411  54.9283570  84.7821521
  46.5682881  56.1710068  82.6022238  47.3623479  55.6760388  82.4004813
  45.8574573  55.6427931  82.2389944  42.8765644  50.3153150  78.6781991
  41.9463232  50.2537605  78.8951953  42.9723116  49.7929103  77.8818632
  42.7951193  46.8407963  81.2660232  43.0558011  47.7553296  81.1569393
  43.6168366  46.3732405  81.4156845  44.2676119  48.2545720  88.4359057
  44.9399172  48.0463082  87.7871706  43.4405905  48.0567806  87.9964289
  50.1701691  44.8807661  90.4524718  49.5229606  45.5797610  90.3589194
  50.9402706  45.3143805  90.8200966  50.3465825  52.7188426  88.5121538
  51.2757885  52.8699585  88.3390505  49.9256855  52.8072446  87.6570184
  49.1454157  56.7439090  86.2820075  49.0065242  56.3757874  87.1546013
  48.3568753  57.2586730  86.1104033  49.7402309  61.8448187  77.6245612
  49.9154064  61.3736230  78.4391234  49.0535097  62.4713953  77.8526872
  50.6959372  56.1220693  83.6708913  50.3609205  56.0821463  84.5666563
  50.1963318  55.4565409  83.1979323  44.6703616  51.5288323  89.1961494
  44.5323414  50.7968562  89.7973033  45.5808539  51.4397223  88.9145682
  53.6318564  53.4676727  73.9445973  53.0147734  52.7423555  73.8479025
  53.1635052  54.2286087  73.6013047  47.2985917  51.2408282  88.6845174
  48.0085535  50.6001474  88.6431792  47.2555225  51.4921177  89.6071355
  46.0114851  48.2273500  90.5040813  45.4752208  47.7764238  91.1562410
  45.4231559  48.3619409  89.7611278  44.3063394  64.9937549  84.3985472
  44.5459992  65.6256073  85.0764490  43.4632590  64.6425589  84.6850831
  45.4217109  47.6862151  73.0667277  44.5446576  47.5650952  72.7029524
  45.8974863  46.8948230  72.8146166  36.9419250  52.4739311  83.1608784
  37.6290289  52.1601041  82.5729799  36.7867378  53.3780676  82.8876036
  41.7453972  47.3629508  87.5893808  41.6612160  46.7555177  86.8544218
  40.9236678  47.8538526  87.5903304  48.6081036  60.0388442  80.3129797
  47.8248557  60.5810122  80.4068022  49.3073781  60.5562421  80.7124039
  51.9177686  45.8483071  82.9564003  52.4146385  45.0953034  82.6365073
  51.1464667  45.8847388  82.3907212  59.7707443  51.5523437  84.5982294
  59.7597319  52.4348152  84.2276227  58.9024822  51.1994988  84.4036831
  53.0007466  54.6054758  80.5302426  52.0663745  54.7256221  80.3607131
  53.1784135  53.7027225  80.2662436  48.5012654  47.9900454  82.6835687
  48.1310442  47.4371495  83.3716593  48.9971747  47.3858588  82.1310687
  56.3880018  50.4472078  81.0652460  56.8540470  51.2800069  80.9912763
  56.8387518  49.9817059  81.7697719  54.4556249  56.7915899  78.0638612
  54.7316093  56.6772494  78.9732487  53.5860748  56.3933384  78.0250786
  54.3596680  42.8152665  85.1043362  53.4459760  43.0456892  85.2725569
  54.7889782  42.8991109  85.9557394  54.1303139  51.0042557  87.6043256
  53.4774589  51.2518464  86.9495709  54.5083519  50.1906695  87.2705733
  51.0910313  61.0402250  81.7071426  51.2732707  60.2223906  82.1699178
  51.9143299  61.2569942  81.2696316  51.4252478  59.9670435  78.9686475
  51.9540245  59.4562890  78.3556637  51.6880698  59.6512965  79.8332008
  41.9269571  57.9834304  86.7121808  42.5123008  57.2377992  86.8449712
  41.7294409  58.2938261  87.5958472  44.7808226  61.0185552  81.7284250
  44.1118601  61.5031679  81.2448291  44.6421096  61.2654772  82.6427629
  36.5187226  50.5539905  85.4326251  36.5571325  50.0203495  86.2263369
  36.0127519  50.0275110  84.8137228  43.8977988  45.4004445  88.9288794
  43.9619315  46.2619276  88.5166191  43.8345108  44.7878447  88.1961152
  43.3730261  47.4727578  92.5761828  44.0002299  47.0904655  93.1899352
  42.5158179  47.2541780  92.9417520  40.1495803  49.2804007  78.5080183
  40.4449244  48.3714685  78.4547236  39.2483839  49.2591746  78.1861185
  43.6790050  47.3560003  84.4907731  42.9576636  47.9695971  84.3515205
  44.4683306  47.8917768  84.4124377  46.4816364  44.6914430  90.7648383
  47.0050766  44.9376726  91.5274692  46.2628697  45.5234465  90.3451520
  41.8783645  46.9618104  78.6319508  41.5496351  46.0815483  78.4494614
  42.2323016  46.9065773  79.5195897  51.1263224  58.5973007  83.1414493
  50.9788186  57.6689714  83.3222063  51.9516717  58.6193098  82.6571569
  44.9925468  47.2491074  78.9994985  45.3321541  47.7776995  78.2773594
  45.4397589  47.5871480  79.7753552  54.7297346  59.4201566  84.2279366
  55.6543893  59.2144427  84.0903817  54.5612649  59.1717967  85.1368708
  47.6868909  45.6328125  88.4498054  47.3465729  44.8335938  88.8518733
  46.9807915  45.9329836  87.8774887  48.3385381  42.7177437  86.9025377
  49.1611450  42.2437915  86.7804267  48.5823444  43.4967921  87.4024063
  46.9793615  45.7465696  77.1988278  47.7001978  46.1246949  76.6951995
  46.3558919  46.4654573  77.3023256  51.1224738  46.4510845  78.1346611
  51.3388352  47.3335483  77.8335439  50.6418805  46.0597058  77.4052253
  45.8623959  49.4096558  84.7117355  45.7168540  49.7236861  85.6041637
  45.3849163  50.0281458  84.1588254  47.7220342  46.3999106  84.7598245
  47.7081911  45.5040199  84.4230543  48.4392770  46.4069770  85.3936531
  49.5746473  46.8336446  86.8051372  49.3164251  47.7553517  86.8035703
  49.0431513  46.4366881  87.4951836  54.5192662  59.9387233  79.5841458
  54.6929539  59.3733656  78.8315310  55.0121553  60.7388128  79.4020947
  40.3369622  51.9501902  87.6505016  39.7923090  52.7261710  87.7825291
  41.2148971  52.2972707  87.4924138  47.1257238  45.2813486  80.0285815
  47.2473149  44.3530132  80.2276702  46.8359281  45.2952172  79.1164130
  49.9948429  42.9668397  83.1652535  50.0170125  43.0307730  82.2104514
  50.4116488  42.1272905  83.3593041  60.3732053  52.7023656  81.2031757
  60.8163199  51.9530981  80.8050881  59.4958563  52.6933793  80.8205489
  55.5067834  59.2553998  76.6838356  56.2018739  59.8760690  76.9025670
  55.8490984  58.4049349  76.9590734  41.1235643  51.0771799  90.5435173
  40.3817380  51.2254434  91.1299804  40.8028388  51.3380064  89.6801923
  57.4059257  56.7053703  78.2125687  57.9310582  57.0440976  77.4875007
  57.3181610  55.7700718  78.0288821  49.0899918  62.7725686  82.5720940
  48.6504908  62.2802065  83.2653796  49.8408035  62.2298654  82.3313015
  41.5692257  58.9637227  82.5745568  42.3950277  58.6640999  82.1944211
  41.2186309  58.1944850  83.0235356  46.5373790  58.3163696  84.6443241
  45.9153800  57.6534401  84.3445469  47.2078657  58.3424827  83.9616889
  39.7700862  56.8823554  83.5334501  38.9332771  56.4545728  83.3518503
  39.7424508  57.0755997  84.4705293  46.6098318  46.7945484  94.2375747
  46.6586473  47.6707606  93.8553517  47.1520832  46.2522877  93.6647391
  46.0987297  56.8667619  78.1201702  46.2475418  57.5503083  77.4668375
  46.9053741  56.8472709  78.6351158  48.8397606  47.5476856  90.9922106
  47.9700916  47.8410422  90.7204695  49.0757087  48.1317301  91.7129370
  59.9164918  54.1728894  83.5954205  60.7511809  54.6118699  83.7591765
  60.0524046  53.6967548  82.7762451  43.8539930  52.8932797  79.1262771
  43.6085972  51.9895127  79.3242981  44.0235845  52.8949947  78.1842249
  51.5436640  43.7656473  88.5087526  52.0618584  44.5017500  88.1834015
  51.1891773  44.0720466  89.3434286  43.1235578  48.6261154  76.6248932
  42.4304823  48.7005509  75.9688968  42.8787330  47.8621498  77.1470449
  51.7949234  40.1856755  84.0288423  52.0750988  39.5179944  84.6548850
  52.5799841  40.3785851  83.5163087  49.5982703  59.3615749  75.5913449
  49.0256670  59.9805936  75.1383921  50.1715496  59.9115111  76.1253371
  55.6658093  48.6074389  87.7759998  56.6175516  48.7072487  87.7972222
  55.4961543  47.8152658  88.2858083  53.6872472  45.6929973  87.9619399
  53.0922404  45.9734985  87.2665888  53.4022169  46.1823874  88.7336140
  52.8179963  59.6452899  76.7222032  53.7510636  59.5798461  76.9254907
  52.7303175  60.4809166  76.2636564  55.4467979  58.9618770  73.6825979
  55.3681611  58.6278633  74.5761737  56.2677646  59.4540538  73.6817452
  58.1446170  51.8280509  86.8902298  58.1122491  50.8896510  87.0761982
  58.7546794  51.9064546  86.1568123  49.9829501  50.6976562  72.9329502
  50.9288606  50.5682770  73.0017920  49.6043746  49.9591224  73.4098930
  58.2940659  48.6191553  86.9360581  57.7779708  47.8350009  86.7490510
  59.1780607  48.2910269  87.1007100  55.9551386  42.3632568  82.8956394
  55.7576207  42.0547656  83.7799726  56.5651091  43.0894207  83.0254324
  48.1672418  48.6226538  72.8684387  47.2603874  48.3259651  72.9447101
  48.4448399  48.3256357  72.0018673  39.0850359  49.9432902  83.3183433
  38.7653143  49.0898210  83.0257808  38.5383787  50.1581480  84.0741401
  42.8630266  52.6595343  87.0352940  43.0816276  53.5912451  87.0540974
  43.2756040  52.3003317  87.8207744  49.7834484  43.1663428  79.0228628
  48.9735212  42.8210513  79.3983874  50.4718901  42.8570972  79.6116240
  51.7125032  42.2441475  80.6452925  52.2656071  42.6636928  81.3042948
  51.9495119  41.3177223  80.6875881  46.9371203  45.4813474  73.0096366
  47.7990367  45.8068372  73.2692184  47.1221547  44.6944970  72.4969432
  38.9538619  53.5635813  85.2876555  38.2602090  53.1489766  84.7746509
  39.7011610  53.6056350  84.6909974  55.0903840  44.3542000  80.1531589
  54.5102509  45.0126804  79.7709642  54.8239772  43.5319345  79.7419007
  53.5407406  43.7547058  82.3552910  54.0407184  43.8663592  81.5467228
  54.1843014  43.4508111  82.9953718  40.8675361  53.4954067  83.1642570
  40.8446049  53.5941754  82.2124453  41.1775998  54.3419218  83.4859736
  43.5262739  55.5530222  87.2789184  44.4805993  55.5214164  87.2119116
  43.3275263  55.0920846  88.0939410  44.1162121  54.1231338  89.8459982
  44.9355010  54.6175417  89.8694819  44.3898929  53.2063306  89.8177550
  53.8728718  46.5142091  79.2087938  52.9854573  46.7991741  78.9908132
  54.2882707  46.3535854  78.3615214  57.2243254  46.5388612  82.9242277
  58.0003644  47.0285064  83.1966894  56.4991388  46.9646666  83.3814146
  59.6615812  47.2516231  83.9816217  60.2560303  47.0111967  83.2709526
  59.7342396  46.5323361  84.6089754  41.8812968  61.0949842  84.2959382
  41.7467436  60.3350243  83.7297380  41.4645030  61.8190742  83.8288171
  53.0171931  56.2786765  73.3035958  53.7207781  56.4836768  73.9193613
  52.2934580  56.8463527  73.5685041  53.8469741  52.0296626  79.4238228
  53.7904943  52.4865178  78.5845860  54.3998084  51.2687311  79.2461070
  57.6574547  47.8186358  80.2488347  57.4011481  47.4182994  81.0796555
  57.0327415  48.5330152  80.1238486  61.9686885  50.5582432  82.7559639
  61.4086443  50.6275621  83.5291201  61.3630388  50.3823416  82.0359135
  45.0382094  61.9919159  84.5077825  44.9214478  62.9364591  84.4056515
  44.2174540  61.6892720  84.8963624  54.9258628  56.7169294  75.3534418
  55.7604232  56.2850493  75.1711892  54.7642971  56.5451308  76.2811312
  54.5804521  53.2201408  76.7190757  54.5253324  53.0545679  75.7779201
  53.9550576  53.9277441  76.8752947  39.3697036  48.4569472  90.5452179
  40.0155899  47.9468426  91.0339404  39.1614187  49.1938154  91.1195604
  47.8900646  42.7209517  76.2976075  47.8779316  43.6651357  76.4544346
  48.7824068  42.5379662  76.0035536  47.8190210  61.3978407  84.3843832
  46.8685841  61.3980269  84.2708204  48.1222696  60.6511142  83.8679867
  51.7052766  39.3152293  80.5522012  50.9385161  38.7610780  80.6978694
  52.1163470  39.3874162  81.4136164  43.7094527  45.6037089  94.6427193
  44.5725988  45.2473894  94.8530518  43.1359937  45.2650984  95.3302598
  55.7274611  69.7961955  77.0849609  56.5005487  69.2490942  76.9462485
  56.0800010  70.6606204  77.2964071  58.0640889  65.9554621  74.7168059
  58.3166410  65.4336142  73.9551522  57.1265448  65.7920766  74.8194743
  57.7837178  67.8582727  76.9192434  57.6673436  67.1827630  77.5873518
  57.8939438  67.3715101  76.1024587  59.7674206  62.3482774  75.6200472
  59.9348608  63.2163010  75.9870943  59.5771375  62.5110055  74.6961761
  59.7463427  64.8040431  76.6047139  59.6263052  65.2497482  77.4432619
  59.0516015  65.1525749  76.0460677  54.2355002  64.7413415  81.1581315
  53.4386166  64.8532109  81.6764810  54.0080595  65.0800067  80.2922205
  51.1987002  68.7790318  80.3230305  52.0362224  69.1887327  80.1064013
  51.3765270  67.8389760  80.2930499  63.0951434  66.4465399  76.0114138
  62.5798057  67.2170004  76.2502526  62.8228742  65.7730535  76.6347200
  60.6798545  61.2915100  81.0699377  59.8240141  60.9021950  80.8905015
  61.0925497  61.3707061  80.2099162  62.8837737  64.3192491  77.8373919
  62.5787873  64.6338640  78.6884063  63.8368179  64.3973911  77.8801252
  56.0602897  61.1402381  81.8473485  56.6346649  60.9177562  81.1146678
  56.6473879  61.2091075  82.6002086  56.3872484  63.1706842  75.8669370
  55.5509796  63.5081528  76.1878645  56.2477253  63.0355821  74.9296507
  58.3625564  58.0143630  80.5748554  57.7089977  57.6992647  79.9505169
  58.3206038  57.3919370  81.3008377  59.4736769  68.2962925  72.4901846
  58.5663831  68.0652178  72.6892995  59.9707801  67.5000544  72.6775828
  60.6525003  68.3975519  77.0125837  59.7436222  68.1134552  77.1098306
  60.6820086  68.8174598  76.1529143  64.9288817  55.7150347  82.6059441
  65.2347694  54.8547710  82.3185356  65.6541422  56.3067967  82.4058435
  51.2213173  66.1181034  80.9941039  51.0237573  65.5250394  80.2692105
  50.6659837  65.8133244  81.7116978  60.3501090  69.9384263  74.3513915
  59.9120520  69.2220122  73.8919552  61.0911531  70.1660378  73.7899006
  53.7159399  65.6445068  78.6781991  52.7856987  65.5829523  78.8951953
  53.8116871  65.1221020  77.8818632  53.6344948  62.1699880  81.2660232
  53.8951765  63.0845214  81.1569393  54.4562120  61.7024323  81.4156845
  64.4712318  68.7968645  73.9445973  63.8541489  68.0715473  73.8479025
  64.0028807  69.5578005  73.6013047  56.2610864  63.0154069  73.0667277
  55.3840330  62.8942870  72.7029524  56.7368617  62.2240147  72.8146166
  50.9889558  64.6095924  78.5080183  51.2842999  63.7006603  78.4547236
  50.0877594  64.5883664  78.1861185  52.7177399  62.2910022  78.6319508
  52.3890106  61.4107401  78.4494614  53.0716770  62.2357691  79.5195897
  55.8319223  62.5782992  78.9994985  56.1715295  63.1068913  78.2773594
  56.2791343  62.9163398  79.7753552  57.8187370  61.0757613  77.1988278
  58.5395732  61.4538866  76.6951995  57.1952674  61.7946490  77.3023256
  61.9618493  61.7802762  78.1346611  62.1782107  62.6627400  77.8335439
  61.4812560  61.3888976  77.4052253  57.9650993  60.6105404  80.0285815
  58.0866904  59.6822050  80.2276702  57.6753035  60.6244090  79.1164130
  60.8342183  58.2960314  83.1652535  60.8563880  58.3599647  82.2104514
  61.2510242  57.4564823  83.3593041  54.6933685  68.2224714  79.1262771
  54.4479727  67.3187044  79.3242981  54.8629599  68.2241865  78.1842249
  53.9629332  63.9553072  76.6248932  53.2698577  64.0297427  75.9688968
  53.7181084  63.1913415  77.1470449  60.8223256  66.0268480  72.9329502
  61.7682360  65.8974688  73.0017920  60.4437501  65.2883142  73.4098930
  59.0066173  63.9518456  72.8684387  58.0997628  63.6551569  72.9447101
  59.2842154  63.6548274  72.0018673  60.6228239  58.4955346  79.0228628
  59.8128967  58.1502431  79.3983874  61.3112656  58.1862890  79.6116240
  62.5518787  57.5733393  80.6452925  63.1049826  57.9928846  81.3042948
  62.7888873  56.6469141  80.6875881  57.7764958  60.8105391  73.0096366
  58.6384122  61.1360290  73.2692184  57.9615302  60.0236887  72.4969432
  65.9297594  59.6833918  80.1531589  65.3496263  60.3418722  79.7709642
  65.6633527  58.8611262  79.7419007  64.7122472  61.8434008  79.2087938
  63.8248327  62.1283659  78.9908132  65.1276461  61.6827772  78.3615214
  63.8565685  71.6078683  73.3035958  64.5601536  71.8128685  73.9193613
  63.1328334  72.1755445  73.5685041  58.7294401  58.0501434  76.2976075
  58.7173070  58.9943274  76.4544346  59.6217822  57.8671580  76.0035536
  62.5446520  54.6444211  80.5522012  61.7778916  54.0902698  80.6978694
  62.9557225  54.7166080  81.4136164  29.2837722   3.7259187  63.4107782
  28.6325702   4.3113268  63.0241795  30.0782085   4.2565382  63.4702819
  23.2093349   0.8148324  63.8094916  23.9824225   0.2677312  63.6707792
  23.5618748   1.6792574  64.0209377  25.5459627  -3.0259009  61.4413366
  25.7985148  -3.5477488  60.6796829  24.6084186  -3.1892864  61.5440049
  30.7612987   1.4149619  63.9476766  30.1258820   1.4884246  64.6597670
  30.4310394   2.0043218  63.2695845  24.9889057   8.5930443  66.9782577
  24.9113086   9.5438268  67.0571057  24.3850700   8.2476315  67.6357503
  32.9267231  -3.7051726  64.1572779  33.8385087  -3.4724339  63.9820477
  32.4176878  -3.1214682  63.5947858  35.4126045   2.2128530  68.9030725
  34.7277083   2.5927432  68.3527758  35.4969894   2.8223857  69.6362672
  41.8728797  -0.9200807  70.0233397  41.1192506  -1.4893409  69.8677401
  42.0076339  -0.9538142  70.9704032  27.2627425   3.9512596  65.6988116
  27.1273100   4.7964131  66.1272964  27.8037238   4.1531873  64.9354050
  30.5770172  -2.5348231  62.7359445  30.0616795  -1.7643627  62.9747832
  30.3047480  -3.2083095  63.3592506  35.5504446   0.2184123  64.6712618
  34.7733889  -0.1204717  64.2267780  36.2295927   0.2236746  63.9967583
  28.8102907   1.4969084  66.2112180  28.2824268   0.7621844  65.8985417
  28.3090410   2.2743760  65.9652148  26.9555507  -0.6850706  59.2147153
  26.0482569  -0.9161452  59.4138302  27.4526539  -1.4813087  59.4021135
  29.8623586   8.0246801  62.1343839  29.1885285   8.3278498  62.7428797
  30.2489408   8.8275882  61.7849296  28.1343740  -0.5838111  63.7371143
  27.2254960  -0.8679078  63.8343613  28.1638824  -0.1639032  62.8774450
  33.3663008   3.0268479  67.5062311  32.9125335   2.1859388  67.5627501
  32.7356975   3.6629877  67.8437091  31.8095947   4.8644975  68.4412129
  32.1018921   5.4250032  67.7224494  32.3194568   5.1573536  69.1965288
  27.8319828   0.9570633  61.0759222  27.3939258   0.2406492  60.6164859
  28.5730269   1.1846748  60.5144313  35.9492943  -0.7672170  67.1335540
  35.8110842  -0.5770574  66.2056730  35.5929162  -0.0052787  67.5903591
  28.0614801   8.1926474  64.3490918  28.2366557   7.7214517  65.1636541
  27.3747589   8.8192240  64.5772179  31.9531056  -0.1844986  60.6691279
  31.3360226  -0.9098157  60.5724332  31.4847544   0.5764375  60.3258354
  26.9293528   6.3866729  67.0375104  26.1461050   6.9288409  67.1313329
  27.6286273   6.9040709  67.4369345  31.3219959   0.9533046  67.2547733
  30.3876237   1.0734508  67.0852437  31.4996627   0.0505512  66.9907743
  32.7768741   3.1394186  64.7883919  33.0528585   3.0250781  65.6977793
  31.9073240   2.7411671  64.7496092  29.4122805   7.3880537  68.4316733
  29.5945200   6.5702193  68.8944485  30.2355791   7.6048229  67.9941623
  29.7464971   6.3148722  65.6931781  30.2752737   5.8041177  65.0801943
  30.0093190   5.9991252  66.5577314  32.8405154   6.2865520  66.3086764
  33.0142032   5.7211943  65.5560617  33.3334045   7.0866415  66.1266254
  38.6944545  -0.9498057  67.9277064  39.1375691  -1.6990731  67.5296187
  37.8171056  -0.9587920  67.5450796  33.8280327   5.6032285  63.4083662
  34.5231231   6.2238978  63.6270977  34.1703477   4.7527636  63.6836040
  35.7271750   3.0531990  64.9370993  36.2523074   3.3919263  64.2120313
  35.6394102   2.1179006  64.7534128  27.4112410   9.1203974  69.2966246
  26.9717401   8.6280352  69.9899103  28.1620527   8.5776941  69.0558322
  24.4199790   3.2145906  64.8447009  24.5687910   3.8981371  64.1913681
  25.2266233   3.1950996  65.3596464  27.9195195   5.7094037  62.3158756
  27.3469162   6.3284224  61.8629228  28.4927989   6.2593398  62.8498678
  31.1392455   5.9931187  63.4467338  32.0723128   5.9276748  63.6500214
  31.0515668   6.8287454  62.9881871  33.7680471   5.3097057  60.4071286
  33.6894103   4.9756921  61.3007044  34.5890138   5.8018825  60.4062758
  28.3041994  -2.9545151  59.6574809  29.2501098  -3.0838943  59.7263227
  27.9256238  -3.6930489  60.1344237  31.3384423   2.6265052  60.0281264
  32.0420273   2.8315055  60.6438920  30.6147072   3.1941814  60.2930348
  32.1682234  -1.6225086  66.1483534  32.1117435  -1.1656535  65.3091167
  32.7210576  -2.3834402  65.9706377  33.2471121   3.0647582  62.0779724
  34.0816725   2.6328780  61.8957199  33.0855464   2.8929595  63.0056619
  32.9017013  -0.4320305  63.4436064  32.8465817  -0.5976034  62.5024508
  32.2763068   0.2755728  63.5998253  41.8755396  13.5817233  72.1734901
  42.5133806  13.4623980  71.4698241  41.7576239  14.5298077  72.2322853
  38.6845102  13.5344661  72.1096426  38.3463614  13.4185726  71.2216961
  39.5534870  13.1335826  72.0897432  34.5431918  15.3880137  68.0993317
  33.9796783  15.2970074  67.3309604  34.4284313  14.5680042  68.5795809
  32.0896350  16.8831329  70.9377537  32.8817642  16.5422154  70.5223836
  32.3293000  16.9926304  71.8579690  40.1231476  19.0551105  63.4107782
  39.4719456  19.6405185  63.0241795  40.9175839  19.5857300  63.4702819
  34.0487104  16.1440242  63.8094916  34.8217980  15.5969229  63.6707792
  34.4012502  17.0084491  64.0209377  35.8872146  17.4716624  77.0161815
  35.5962012  18.3762255  76.9008482  36.5229131  17.5133152  77.7305885
  36.8128353  14.8493473  73.6063175  37.4091925  14.6249495  72.8920138
  36.8703325  14.1078218  74.2088623  36.3853381  12.3032908  61.4413366
  36.6378902  11.7814430  60.6796829  35.4477941  12.1399054  61.5440049
  41.4296664  11.3068687  69.2488109  42.2159753  10.8888110  68.8978526
  41.6935369  12.2114779  69.4169757  41.6006742  16.7441537  63.9476766
  40.9652575  16.8176163  64.6597670  41.2704148  17.3335136  63.2695845
  46.8305091  11.2443920  70.1521088  47.5630263  10.6743137  70.3858917
  46.0744447  10.8565520  70.5927593  36.1049670  14.2061014  63.6437741
  35.9885928  13.5305918  64.3118825  36.2151930  13.7193388  62.8269894
  38.4481211  13.6671161  67.3484430  38.0839418  13.1401782  68.0597351
  39.3048327  13.2769630  67.1750915  38.0886698   8.6961061  62.3445779
  38.2561100   9.5641297  62.7116250  37.8983867   8.8588343  61.4207068
  40.8462031  17.1578040  74.0111609  40.5462754  18.0603079  73.9027416
  40.5013091  16.8910223  74.8632762  34.2974513  13.6091837  70.0448313
  33.3725009  13.4768051  70.2526005  34.5458926  14.3886056  70.5418256
  44.2459175   9.6760580  71.6909046  43.3376052   9.6075989  71.3967807
  44.1946771  10.1532525  72.5190872  38.0675919  11.1518718  63.3292445
  37.9475544  11.5975769  64.1677926  37.3728507  11.5004036  62.7705983
  31.6583324  13.2525110  70.8792102  31.7875705  13.5059589  71.7931514
  30.9780775  13.8452818  70.5596757  35.8282811  23.9222360  66.9782577
  35.7506841  24.8730185  67.0571057  35.2244455  23.5768233  67.6357503
  46.1120821   7.8777018  73.4686920  45.4695202   8.1709552  72.8226715
  45.6075750   7.7629939  74.2740117  43.7660985  11.6240192  64.1572779
  44.6778841  11.8567578  63.9820477  43.2570632  12.2077236  63.5947858
  42.0501753  16.0464820  77.7934072  42.4585109  15.6047230  77.0488704
  41.3279014  15.4717447  78.0468265  38.4032823  10.9837426  75.1667629
  39.2494018  11.4076840  75.3102278  38.3431461  10.3271051  75.8606192
  42.3730567  16.6066010  71.5486361  41.7439430  16.7711724  70.8462429
  41.9856230  17.0207620  72.3197325  46.2519799  17.5420448  68.9030725
  45.5670837  17.9219349  68.3527758  46.3363649  18.1515775  69.6362672
  43.5070731  15.1880407  75.5026068  43.7187626  15.8312167  74.8260449
  43.4600479  14.3542724  75.0347998  41.1096960   7.7998228  72.4062640
  40.2481439   8.0979481  72.6979378  41.1359395   8.0168627  71.4743673
  37.9258529  16.3440418  68.8136446  38.3896875  16.6228121  68.0241068
  37.6615327  15.4423863  68.6309537  34.8182610  15.8911900  71.7516209
  35.3883967  16.3199168  71.1133694  35.4090722  15.6094484  72.4500395
  36.8627415  12.4663571  65.6226011  37.5651459  12.9184614  66.0899937
  36.5308044  11.8247389  66.2505904  30.6052749  10.7247123  70.9243145
  29.8151803  10.9804652  70.4483255  31.0963997  11.5395461  71.0295185
  44.6216559  18.0652362  73.6748425  45.4434003  17.6632550  73.3931107
  44.6178962  17.9620597  74.6264541  32.5567495  11.0891702  67.8826621
  31.7598658  11.2010397  68.4010117  32.3293087  11.4278355  67.0167512
  38.3873162  17.6136406  75.8309136  38.4517595  18.0756813  76.6667308
  37.6784086  16.9833771  75.9591446  52.7122552  14.4091111  70.0233397
  51.9586260  13.8398509  69.8677401  52.8470093  14.3753775  70.9704032
  38.1021180  19.2804513  65.6988116  37.9666855  20.1256049  66.1272964
  38.6430992  19.4823791  64.9354050  31.5550577  16.7979951  66.2716041
  32.0675098  17.5923201  66.4221606  32.2073290  16.1006242  66.2049643
  33.3645462  19.9145708  68.3538795  33.5412090  20.8363672  68.1659778
  34.1602296  19.6004127  68.7833174  39.7289656  19.9028080  79.8288458
  39.2853511  19.1164458  79.5109363  40.3906870  20.0907230  79.1632349
  34.4876778  21.4323881  74.3549137  35.0384203  21.3040945  73.5826131
  33.6488253  21.7318770  74.0044030  41.8270894  20.1830880  77.8569860
  41.8089370  21.0039761  77.3650129  42.7490814  20.0584955  78.0820001
  38.2843949  17.6975009  78.6993368  38.8172285  16.9363297  78.4692676
  37.7558030  17.4048661  79.4417522  29.5199494  15.1268606  67.0475612
  30.3574716  15.5365614  66.8309320  29.6977762  14.1868048  67.0175806
  41.4163926  12.7943686  62.7359445  40.9010550  13.5648291  62.9747832
  41.1441235  12.1208822  63.3592506  39.0011037   7.6393387  67.7944683
  38.1452634   7.2500237  67.6150322  39.4137989   7.7185348  66.9344469
  40.5310184   5.1739730  72.1936243  40.0274980   5.1369865  71.3804048
  40.8240791   6.0832473  72.2532900  36.7753070   5.2578460  71.2002425
  37.6406067   5.0621269  70.8408314  36.8430579   5.0288812  72.1271781
  46.3898200  15.5476041  64.6712618  45.6127643  15.2087200  64.2267780
  47.0689681  15.5528664  63.9967583  41.2050229  10.6670778  64.5619226
  40.9000365  10.9816927  65.4129369  42.1580672  10.7452198  64.6046559
  39.6496661  16.8261002  66.2112180  39.1218023  16.0913761  65.8985417
  39.1484164  17.6035678  65.9652148  44.6289507  15.0210022  71.3279226
  43.9713182  15.7109283  71.4159355  45.4329907  15.4106454  71.6713213
  34.3815389   7.4880668  68.5718792  34.9559141   7.2655849  67.8391985
  34.9686371   7.5569362  69.3247393  43.4394966  13.3754395  69.3783168
  43.9526848  14.0084387  69.8804878  44.0896190  12.7755590  69.0126528
  34.7084976   9.5185129  62.5914677  33.8722288   9.8559815  62.9123952
  34.5689746   9.3834109  61.6541814  36.6838057   4.3621917  67.2993861
  36.0302469   4.0470934  66.6750476  36.6418531   3.7397657  68.0253684
  37.7949261  14.6441212  59.2147153  36.8876323  14.4130465  59.4138302
  38.2920293  13.8478831  59.4021135  40.7017340  23.3538719  62.1343839
  40.0279039  23.6570416  62.7428797  41.0883162  24.1567799  61.7849296
  39.9175797  10.8503850  71.6241509  38.9998358  11.0718797  71.4663197
  40.3335941  10.9250161  70.7653216  40.7010845  12.2495266  66.7544189
  41.4482664  12.7616663  66.4451311  40.9702434  11.9279319  67.6148582
  38.9737495  14.7453807  63.7371143  38.0648714  14.4612840  63.8343613
  39.0032579  15.1652885  62.8774450  44.2056762  18.3560396  67.5062311
  43.7519089  17.5151306  67.5627501  43.5750729  18.9921795  67.8437091
  43.1489682   9.2852382  68.7362978  42.4112439   8.7729768  69.0673221
  43.4016455   8.8452764  67.9246255  42.6489702  20.1936893  68.4412129
  42.9412676  20.7541950  67.7224494  43.1588322  20.4865454  69.1965288
  43.2501309   2.0628634  69.3304747  43.5560186   1.2025998  69.0430663
  43.9753914   2.6546254  69.1303741  29.5425665  12.4659321  67.7186345
  29.3450065  11.8728682  66.9937412  28.9872329  12.1611531  68.4362284
  37.5222389  12.3582427  69.8380939  37.5770999  11.4056264  69.7623415
  36.7113591  12.5141866  70.3222237  38.6713583  16.2862550  61.0759222
  38.2333013  15.5698409  60.6164859  39.4124024  16.5138665  60.5144313
  35.4614749  10.9759487  67.5971317  34.6482614  11.2753658  68.0036510
  35.9573743  10.5815176  68.3145800  37.6123327  20.9717244  69.5305582
  37.5699506  21.1978090  68.6014114  38.5286026  20.7380619  69.6791383
  41.0588961  11.4401312  76.4286211  41.4138348  11.6672785  77.2880677
  41.7061092  11.7719688  75.8063467  46.7886697  14.5619747  67.1335540
  46.6504596  14.7521343  66.2056730  46.4322916  15.3239130  67.5903591
  34.9528824   8.5477843  73.2132552  35.5928203   8.4066602  72.5155516
  34.1206354   8.2612356  72.8371154  46.8156077  16.6296274  72.1446812
  47.2492584  16.5371564  72.9929866  47.5287658  16.6053775  71.5066828
  35.7289128  17.8480273  69.3267545  36.5229726  17.3530593  69.1250120
  35.0180820  17.3198136  68.9635250  40.5483972  20.2298369  73.6779912
  40.6020994  20.7989305  74.4457628  39.6798753  20.4000254  73.3133950
  32.0371891  11.9923355  65.4027297  31.1069479  11.9307810  65.6197260
  32.1329363  11.4699308  64.6063939  31.9557440   8.5178168  67.9905539
  32.2164257   9.4323501  67.8814700  32.7774612   8.0502610  68.1402152
  47.6771627  16.6719975  74.6779697  47.8707517  17.5765786  74.9238972
  47.5772245  16.2127394  75.5118282  42.7386735  16.8226718  80.2520578
  42.5872242  16.5937270  79.3350662  42.7291415  17.7797319  80.2651923
  39.5072072  14.3958631  75.2366844  40.4364132  14.5469790  75.0635812
  39.0863102  14.4842651  74.3815491  38.3060404  18.4209295  73.0065382
  38.1671489  18.0528079  73.8791320  37.5175000  18.9356934  72.8349340
  38.9008555  23.5218391  64.3490918  39.0760311  23.0506435  65.1636541
  38.2141344  24.1484158  64.5772179  39.8565619  17.7990898  70.3954220
  39.5215451  17.7591668  71.2911870  39.3569564  17.1335614  69.9224630
  42.7924810  15.1446932  60.6691279  42.1753981  14.4193760  60.5724332
  42.3241299  15.9056292  60.3258354  36.4592163  12.9178487  75.4090480
  37.1691782  12.2771679  75.3677099  36.4161471  13.1691382  76.3316661
  44.4478942  19.8545840  78.3297060  44.3891488  19.1705061  77.6627643
  44.8498460  20.5964830  77.8777686  33.4669641  26.6707754  71.1230779
  33.7066239  27.3026278  71.8009797  32.6238837  26.3195794  71.4096138
  34.5823356   9.3632356  59.7912584  33.7052823   9.2421157  59.4274830
  35.0581109   8.5718435  59.5391472  44.4496349  17.8185424  76.5611039
  43.5623128  17.4811346  76.6837438  45.0194900  17.0868456  76.7979805
  26.1025496  14.1509516  69.8854091  26.7896536  13.8371246  69.2975106
  25.9473625  15.0550881  69.6121342  37.9797503  22.4786877  73.5272283
  37.9067674  23.2841848  74.0391587  37.5374896  22.6778843  72.7020304
  37.7687282  21.7158647  67.0375104  36.9854804  22.2580327  67.1313329
  38.4680027  22.2332626  67.4369345  41.0783932   7.5253276  69.6809310
  41.5752632   6.7723239  69.3610380  40.3070914   7.5617593  69.1152519
  48.9313690  13.2293642  71.3227601  48.9203566  14.1118357  70.9521534
  48.0631069  12.8765193  71.1282138  40.4396186  22.3773711  75.6830441
  41.1524158  23.0121176  75.6106343  39.9486215  22.4737577  74.8670443
  42.1613713  16.2824963  67.2547733  41.2269992  16.4026426  67.0852437
  42.3390382  15.3797430  66.9907743  37.6618901   9.6670659  69.4080994
  37.2916689   9.1141700  70.0961900  38.1577994   9.0628793  68.8555994
  45.5486264  12.1242283  67.7897767  46.0146717  12.9570274  67.7158070
  45.9993765  11.6587264  68.4943026  35.4908100  20.1268154  76.5036012
  36.1917559  20.7604637  76.6565406  35.0203215  20.4682886  75.7431651
  43.6162496  18.4686104  64.7883919  43.8922339  18.3542699  65.6977793
  42.7466994  18.0703589  64.7496092  43.5202927   4.4922870  71.8288668
  42.6066007   4.7227097  71.9970875  43.9496029   4.5761314  72.6802701
  43.2909386  12.6812762  74.3288562  42.6380836  12.9288669  73.6741015
  43.6689766  11.8676900  73.9951040  40.2516560  22.7172455  68.4316733
  40.4338954  21.8994111  68.8944485  41.0749546  22.9340147  67.9941623
  40.5858725  21.6440640  65.6931781  41.1146491  21.1333095  65.0801943
  40.8486945  21.3283170  66.5577314  31.0875818  19.6604509  73.4367115
  31.6729255  18.9148197  73.5695019  30.8900656  19.9708466  74.3203779
  33.9414473  22.6955757  68.4529557  33.2724848  23.1801884  67.9693597
  33.8027343  22.9424977  69.3672936  38.0819742  24.7299500  75.0512215
  38.6338050  24.8931122  75.8161301  38.4225935  25.3203938  74.3792240
  42.9330616  19.5560758  80.9060870  43.4770520  20.1690716  80.4115825
  42.3517461  20.1140336  81.4227883  29.3102050  10.9574212  65.2325489
  29.6055491  10.0484890  65.1792543  28.4090086  10.9361951  64.9106492
  41.2188129  22.6781476  72.0375898  41.0939268  21.8771216  71.5286843
  41.8767220  23.1727669  71.5489868  32.8396297   9.0330208  71.2153038
  32.1182883   9.6466176  71.0760511  33.6289553   9.5687973  71.1369684
  43.2823037  20.4790496  73.6655448  42.3353373  20.3595847  73.5933774
  43.6305810  19.5912994  73.7481709  31.0389892   8.6388309  65.3564814
  30.7102598   7.7585688  65.1739920  31.3929262   8.5835978  66.2441204
  40.2869471  20.2743212  69.8659800  40.1394433  19.3459919  70.0467370
  41.1122964  20.2963303  69.3816875  34.1531715   8.9261279  65.7240292
  34.4927787   9.4547200  65.0018900  34.6003835   9.2641685  66.4998859
  43.8903592  21.0971771  70.9524673  44.8150140  20.8914632  70.8149124
  43.7218896  20.8488172  71.8614014  36.1399862   7.4235901  63.9233585
  36.8608224   7.8017153  63.4197302  35.5165166   8.1424777  64.0268563
  40.2830985   8.1281050  64.8591917  40.4994599   9.0105687  64.5580745
  39.8025052   7.7367263  64.1297559  35.0230206  11.0866763  71.4362662
  34.8774787  11.4007066  72.3286943  34.5455410  11.7051663  70.8833560
  36.8826589   8.0769311  71.4843551  36.8688158   7.1810404  71.1475849
  37.5999017   8.0839975  72.1181837  38.7352720   8.5106651  73.5296679
  38.4770498   9.4323722  73.5281009  38.2037760   8.1137086  74.2197143
  43.6798909  21.6157438  66.3086764  43.8535786  21.0503861  65.5560617
  44.1727800  22.4158333  66.1266254  36.2863485   6.9583691  66.7531121
  36.4079396   6.0300337  66.9522009  35.9965527   6.9722377  65.8409437
  39.1554675   4.6438602  69.8897841  39.1776372   4.7077935  68.9349821
  39.5722734   3.8043110  70.0838347  49.5338300  14.3793861  67.9277064
  49.9769446  13.6301186  67.5296187  48.6564810  14.3703997  67.5450796
  44.6674081  20.9324203  63.4083662  45.3624986  21.5530895  63.6270977
  45.0097231  20.0819554  63.6836040  46.5665504  18.3823908  64.9370993
  47.0916828  18.7211181  64.2120313  46.4787857  17.4470923  64.7534128
  38.2285553  22.2957982  77.0660870  38.5372679  22.0507128  77.9383569
  39.0261035  22.5004620  76.5779740  38.2506165  24.4495891  69.2966246
  37.8111155  23.9572270  69.9899103  39.0014282  23.9068859  69.0558322
  30.7298504  20.6407432  69.2990874  31.5556524  20.3411204  68.9189518
  30.3792556  19.8715055  69.7480663  35.6980037  19.9933900  71.3688548
  35.0760046  19.3304605  71.0690776  36.3684904  20.0195032  70.6862196
  28.9307109  18.5593759  70.2579808  28.0939017  18.1315933  70.0763809
  28.9030754  18.7526202  71.1950599  46.2559410  19.0156812  80.2422191
  45.4654954  18.9980951  79.7026691  46.0192765  19.5545105  80.9971228
  46.3757285  15.8649278  77.5554920  46.4255290  15.6999286  78.4970442
  46.2671209  14.9976537  77.1652800  35.2593544  18.5437824  64.8447009
  35.4081664  19.2273288  64.1913681  36.0659987  18.5242914  65.3596464
  47.8775482  18.2846220  77.7996941  47.5860290  18.6476200  78.6360402
  47.2647613  17.5713228  77.6210273  49.0771164  15.8499099  70.3199511
  49.9118056  16.2888903  70.4837072  49.2130293  15.3737753  69.5007757
  46.1262670  13.4078834  76.2676999  46.6016792  13.6006481  75.4595851
  45.2028236  13.4638020  76.0220383  33.0146177  14.5703001  65.8508078
  32.7692219  13.6665331  66.0488288  33.1842092  14.5720152  64.9087556
  32.2841825  10.3031359  63.3494239  31.5911069  10.3775714  62.6934275
  32.0393576   9.5391703  63.8715756  40.9555481   1.8626960  70.7533730
  41.2357235   1.1950149  71.3794156  41.7406088   2.0556056  70.2408394
  38.7588950  21.0385954  62.3158756  38.1862917  21.6576141  61.8629228
  39.3321743  21.5885316  62.8498678  44.8264339  10.2844594  74.5005305
  45.7781762  10.3842692  74.5217529  44.6567790   9.4922863  75.0103389
  42.8478719   7.3700178  74.6864706  42.2528651   7.6505190  73.9911194
  42.5628416   7.8594078  75.4581447  41.9786209  21.3223104  63.4467338
  42.9116882  21.2568666  63.6500214  41.8909422  22.1579371  62.9881871
  44.6074226  20.6388975  60.4071286  44.5287858  20.3048838  61.3007044
  45.4283893  21.1310743  60.4062758  47.3052417  13.5050714  73.6147604
  47.2728737  12.5666715  73.8007288  47.9153041  13.5834751  72.8813429
  39.1435748  12.3746767  59.6574809  40.0894853  12.2452975  59.7263227
  38.7649993  11.6361429  60.1344237  47.4546906  10.2961757  73.6605888
  46.9385954   9.5120214  73.4735817  48.3386854   9.9680474  73.8252407
  45.1157633   4.0402773  69.6201700  44.9182454   3.7317861  70.5045032
  45.7257338   4.7664412  69.7499630  53.1228967  14.5666721  72.7553641
  53.8532355  14.3052009  73.3161345  52.5135912  13.8295443  72.7955709
  51.2044264  12.7074583  73.3528092  50.4777428  12.5730548  72.7444584
  50.7891551  13.0151412  74.1584811  37.3278665  10.2996743  59.5929694
  36.4210121  10.0029856  59.6692407  37.6054646  10.0026561  58.7263980
  28.2456606  11.6203107  70.0428740  27.9259390  10.7668415  69.7503114
  27.6990034  11.8351685  70.7986707  32.0236513  14.3365548  73.7598247
  32.2422523  15.2682656  73.7786280  32.4362287  13.9773522  74.5453050
  38.9440731   4.8433633  65.7473935  38.1341459   4.4980718  66.1229181
  39.6325148   4.5341177  66.3361547  40.8731279   3.9211680  67.3698232
  41.4262318   4.3407133  68.0288255  41.1101366   2.9947428  67.4121188
  36.0977450   7.1583679  59.7341673  36.9596614   7.4838577  59.9937490
  36.2827794   6.3715174  59.2214739  28.1144866  15.2406018  72.0121862
  27.4208337  14.8259971  71.4991816  28.8617857  15.2826555  71.4155281
  44.2510086   6.0312205  66.8776896  43.6708755   6.6897009  66.4954948
  43.9846019   5.2089550  66.4664313  42.7013653   5.4317263  69.0798216
  43.2013431   5.5433797  68.2712535  43.3449261   5.1278316  69.7199025
  30.0281608  15.1724272  69.8887877  30.0052296  15.2711959  68.9369760
  30.3382245  16.0189423  70.2105043  32.6868986  17.2300427  74.0034491
  33.6412240  17.1984369  73.9364423  32.4881510  16.7691051  74.8184717
  33.2768368  15.8001543  76.5705289  34.0961257  16.2945622  76.5940126
  33.5505176  14.8833511  76.5422856  43.0334964   8.1912295  65.9333244
  42.1460819   8.4761946  65.7153439  43.4488953   8.0306059  65.0860521
  46.3849500   8.2158816  69.6487583  47.1609891   8.7055269  69.9212200
  45.6597635   8.6416871  70.1059453  48.8222059   8.9286436  70.7061524
  49.4166550   8.6882172  69.9954832  48.8948643   8.2093566  71.3335060
  31.0419215  22.7720047  71.0204689  30.9073683  22.0120447  70.4542687
  30.6251277  23.4960946  70.5533478  42.1778178  17.9556970  60.0281264
  42.8814028  18.1606973  60.6438920  41.4540827  18.5233732  60.2930348
  43.0075988  13.7066831  66.1483534  42.9511189  14.1635383  65.3091167
  43.5604331  12.9457516  65.9706377  46.8180794   9.4956563  66.9733654
  46.5617728   9.0953199  67.8041862  46.1933662  10.2100357  66.8483793
  51.1293132  12.2352636  69.4804945  50.5692690  12.3045826  70.2536507
  50.5236635  12.0593621  68.7604442  34.1988341  23.6689364  71.2323132
  34.0820725  24.6134796  71.1301822  33.3780787  23.3662925  71.6208931
  44.0864875  18.3939499  62.0779724  44.9210479  17.9620698  61.8957199
  43.9249218  18.2221513  63.0056619  43.7410767  14.8971613  63.4436064
  43.6859571  14.7315884  62.5024508  43.1156823  15.6047646  63.5998253
  37.0506893   4.3979722  63.0221382  37.0385563   5.3421562  63.1789653
  37.9430315   4.2149867  62.7280843  35.2242855  24.3217625  74.4479060
  36.1270101  24.3541236  74.7645555  34.9980225  23.3918076  74.4625396
  36.9796457  23.0748612  71.1089139  36.0292088  23.0750474  70.9953511
  37.2828943  22.3281347  70.5925173  40.8659012   0.9922498  67.2767319
  40.0991408   0.4380985  67.4224001  41.2769717   1.0644367  68.1381470
  52.7149150  28.9109150  72.1734901  53.3527560  28.7915898  71.4698241
  52.5969993  29.8589994  72.2322853  49.5238857  28.8636579  72.1096426
  49.1857368  28.7477643  71.2216961  50.3928625  28.4627744  72.0897432
  45.3825672  30.7172055  68.0993317  44.8190537  30.6261992  67.3309604
  45.2678067  29.8971959  68.5795809  50.0058640  30.0171430  78.0682631
  49.9947280  29.6224229  77.1963135  50.1679279  29.2837503  78.6616403
  42.9290104  32.2123247  70.9377537  43.7211396  31.8714071  70.5223836
  43.1686754  32.3218222  71.8579690  50.9625231  34.3843023  63.4107782
  50.3113211  34.9697103  63.0241795  51.7569594  34.9149218  63.4702819
  44.8880858  31.4732160  63.8094916  45.6611734  30.9261147  63.6707792
  45.2406257  32.3376409  64.0209377  46.7265901  32.8008542  77.0161815
  46.4355767  33.7054173  76.9008482  47.3622885  32.8425070  77.7305885
  47.6522108  30.1785391  73.6063175  48.2485680  29.9541413  72.8920138
  47.7097079  29.4370136  74.2088623  47.2247136  27.6324826  61.4413366
  47.4772657  27.1106347  60.6796829  46.2871695  27.4690971  61.5440049
  52.2690419  26.6360604  69.2488109  53.0553508  26.2180027  68.8978526
  52.5329123  27.5406696  69.4169757  52.4400496  32.0733455  63.9476766
  51.8046329  32.1468081  64.6597670  52.1097903  32.6627053  63.2695845
  57.6698846  26.5735837  70.1521088  58.4024018  26.0035054  70.3858917
  56.9138202  26.1857438  70.5927593  46.9443425  29.5352932  63.6437741
  46.8279683  28.8597835  64.3118825  47.0545685  29.0485306  62.8269894
  49.2874966  28.9963079  67.3484430  48.9233173  28.4693700  68.0597351
  50.1442082  28.6061548  67.1750915  55.1924266  20.2857412  74.6115696
  54.8607591  21.1552823  74.3876911  54.5969880  19.9693696  75.2909727
  48.9280453  24.0252979  62.3445779  49.0954855  24.8933215  62.7116250
  48.7377622  24.1880260  61.4207068  51.6855786  32.4869958  74.0111609
  51.3856509  33.3894996  73.9027416  51.3406845  32.2202141  74.8632762
  45.1368267  28.9383754  70.0448313  44.2118764  28.8059969  70.2526005
  45.3852680  29.7177974  70.5418256  55.0852930  25.0052498  71.6909046
  54.1769807  24.9367906  71.3967807  55.0340525  25.4824443  72.5190872
  48.9069673  26.4810636  63.3292445  48.7869299  26.9267687  64.1677926
  48.2122262  26.8295954  62.7705983  42.4977078  28.5817028  70.8792102
  42.6269459  28.8351507  71.7931514  41.8174530  29.1744736  70.5596757
  46.6676566  39.2514278  66.9782577  46.5900595  40.2022103  67.0571057
  46.0638209  38.9060150  67.6357503  49.1593795  26.4242143  79.6343943
  48.3827129  26.9836063  79.6246808  49.7984358  26.9098926  80.1558814
  56.9514576  23.2068936  73.4686920  56.3088956  23.5001469  72.8226715
  56.4469504  23.0921856  74.2740117  54.6054740  26.9532109  64.1572779
  55.5172596  27.1859496  63.9820477  54.0964387  27.5369154  63.5947858
  47.4140168  29.2327597  79.1961910  48.1554852  29.7712641  78.9196734
  46.7077153  29.8593885  79.3533462  52.8895507  31.3756737  77.7934072
  53.2978863  30.9339148  77.0488704  52.1672769  30.8009365  78.0468265
  49.2426577  26.3129344  75.1667629  50.0887773  26.7368757  75.3102278
  49.1825215  25.6562968  75.8606192  53.2124322  31.9357928  71.5486361
  52.5833184  32.1003642  70.8462429  52.8249984  32.3499537  72.3197325
  57.0913554  32.8712366  68.9030725  56.4064592  33.2511267  68.3527758
  57.1757403  33.4807692  69.6362672  52.3926023  23.9733712  76.8248803
  52.1486955  24.7275773  76.2883078  52.6685953  24.3519060  77.6596050
  54.3464485  30.5172325  75.5026068  54.5581381  31.1604085  74.8260449
  54.2994234  29.6834641  75.0347998  51.9490714  23.1290145  72.4062640
  51.0875193  23.4271399  72.6979378  51.9753149  23.3460544  71.4743673
  48.7652284  31.6732336  68.8136446  49.2290629  31.9520039  68.0241068
  48.5009082  30.7715780  68.6309537  45.6576365  31.2203817  71.7516209
  46.2277722  31.6491086  71.1133694  46.2484477  30.9386402  72.4500395
  47.7021170  27.7955488  65.6226011  48.4045213  28.2476532  66.0899937
  47.3701798  27.1539307  66.2505904  46.1501531  26.3867245  79.9977220
  45.5200192  27.0683526  80.2312617  46.0437619  26.2750326  79.0530359
  41.4446504  26.0539041  70.9243145  40.6545558  26.3096569  70.4483255
  41.9357751  26.8687379  71.0295185  55.4610313  33.3944280  73.6748425
  56.2827757  32.9924467  73.3931107  55.4572716  33.2912514  74.6264541
  43.3961249  26.4183620  67.8826621  42.5992412  26.5302314  68.4010117
  43.1686841  26.7570272  67.0167512  49.2266917  32.9428323  75.8309136
  49.2911349  33.4048731  76.6667308  48.5177841  32.3125688  75.9591446
  39.7284207  26.3069531  73.3558135  39.9792245  27.1916541  73.6215711
  40.2643755  26.1274133  72.5833227  63.5516306  29.7383029  70.0233397
  62.7980015  29.1690427  69.8677401  63.6863848  29.7045693  70.9704032
  48.9414934  34.6096431  65.6988116  48.8060609  35.4547967  66.1272964
  49.4824747  34.8115709  64.9354050  45.4282274  20.6888011  82.3602472
  45.0349220  20.1354209  83.0350116  46.2448414  20.9998589  82.7508989
  42.3944332  32.1271869  66.2716041  42.9068852  32.9215119  66.4221606
  43.0467045  31.4298159  66.2049643  44.2039217  35.2437625  68.3538795
  44.3805845  36.1655590  68.1659778  44.9996050  34.9296044  68.7833174
  48.3450235  22.1045890  79.9522728  49.0859948  22.7053043  79.8727191
  48.5768158  21.3623528  79.3940771  43.4891573  27.2902257  78.2300958
  43.3745088  26.3887514  78.5308057  42.6336091  27.5365954  77.8785774
  50.5683411  35.2319997  79.8288458  50.1247265  34.4456376  79.5109363
  51.2300624  35.4199148  79.1632349  45.3270532  36.7615799  74.3549137
  45.8777957  36.6332862  73.5826131  44.4882008  37.0610688  74.0044030
  52.6664649  35.5122797  77.8569860  52.6483124  36.3331678  77.3650129
  53.5884569  35.3876873  78.0820001  49.1237703  33.0266927  78.6993368
  49.6566040  32.2655215  78.4692676  48.5951784  32.7340579  79.4417522
  52.2907398  18.1326993  74.2287010  51.9471667  19.0228634  74.1526120
  52.6586361  17.9428650  73.3656595  40.3593249  30.4560523  67.0475612
  41.1968471  30.8657532  66.8309320  40.5371516  29.5159965  67.0175806
  52.2557681  28.1235604  62.7359445  51.7404304  28.8940209  62.9747832
  51.9834989  27.4500740  63.3592506  49.8404792  22.9685305  67.7944683
  48.9846388  22.5792155  67.6150322  50.2531744  23.0477265  66.9344469
  51.3703938  20.5031648  72.1936243  50.8668734  20.4661783  71.3804048
  51.6634545  21.4124391  72.2532900  47.6146824  20.5870378  71.2002425
  48.4799821  20.3913186  70.8408314  47.6824333  20.3580729  72.1271781
  57.2291955  30.8767959  64.6712618  56.4521398  30.5379118  64.2267780
  57.9083436  30.8820582  63.9967583  52.0443984  25.9962696  64.5619226
  51.7394120  26.3108845  65.4129369  52.9974426  26.0744116  64.6046559
  50.4890416  32.1552919  66.2112180  49.9611777  31.4205679  65.8985417
  49.9877919  32.9327596  65.9652148  55.4683262  30.3501940  71.3279226
  54.8106936  31.0401201  71.4159355  56.2723661  30.7398372  71.6713213
  45.2209143  22.8172586  68.5718792  45.7952895  22.5947767  67.8391985
  45.8080126  22.8861280  69.3247393  54.2788721  28.7046312  69.3783168
  54.7920602  29.3376304  69.8804878  54.9289944  28.1047508  69.0126528
  45.5478730  24.8477047  62.5914677  44.7116043  25.1851733  62.9123952
  45.4083500  24.7126026  61.6541814  47.5231811  19.6913834  67.2993861
  46.8696223  19.3762852  66.6750476  47.4812285  19.0689575  68.0253684
  48.6343016  29.9733130  59.2147153  47.7270078  29.7422383  59.4138302
  49.1314048  29.1770749  59.4021135  51.5411095  38.6830637  62.1343839
  50.8672794  38.9862333  62.7428797  51.9276917  39.4859717  61.7849296
  50.7569551  26.1795768  71.6241509  49.8392113  26.4010715  71.4663197
  51.1729695  26.2542078  70.7653216  51.5404599  27.5787184  66.7544189
  52.2876418  28.0908581  66.4451311  51.8096189  27.2571236  67.6148582
  49.8131249  30.0745724  63.7371143  48.9042469  29.7904757  63.8343613
  49.8426333  30.4944803  62.8774450  55.0450517  33.6852314  67.5062311
  54.5912844  32.8443224  67.5627501  54.4144484  34.3213712  67.8437091
  53.9883436  24.6144300  68.7362978  53.2506193  24.1021686  69.0673221
  54.2410210  24.1744682  67.9246255  53.4883456  35.5228811  68.4412129
  53.7806430  36.0833868  67.7224494  53.9982077  35.8157372  69.1965288
  54.0895064  17.3920552  69.3304747  54.3953941  16.5317915  69.0430663
  54.8147669  17.9838172  69.1303741  40.3819420  27.7951239  67.7186345
  40.1843820  27.2020599  66.9937412  39.8266084  27.4903449  68.4362284
  48.3616143  27.6874345  69.8380939  48.4164753  26.7348181  69.7623415
  47.5507345  27.8433784  70.3222237  49.5107337  31.6154468  61.0759222
  49.0726767  30.8990327  60.6164859  50.2517778  31.8430583  60.5144313
  46.3008503  26.3051405  67.5971317  45.4876369  26.6045575  68.0036510
  46.7967498  25.9107094  68.3145800  48.4517081  36.3009162  69.5305582
  48.4093260  36.5270008  68.6014114  49.3679780  36.0672536  69.6791383
  51.8982715  26.7693229  76.4286211  52.2532103  26.9964702  77.2880677
  52.5454846  27.1011606  75.8063467  57.6280452  29.8911665  67.1335540
  57.4898351  30.0813261  66.2056730  57.2716671  30.6531048  67.5903591
  45.7922578  23.8769760  73.2132552  46.4321957  23.7358519  72.5155516
  44.9600109  23.5904274  72.8371154  57.6549832  31.9588192  72.1446812
  58.0886338  31.8663481  72.9929866  58.3681412  31.9345693  71.5066828
  46.5682882  33.1772191  69.3267545  47.3623481  32.6822511  69.1250120
  45.8574574  32.6490054  68.9635250  51.3877726  35.5590286  73.6779912
  51.4414749  36.1281223  74.4457628  50.5192508  35.7292171  73.3133950
  42.8765645  27.3215272  65.4027297  41.9463234  27.2599728  65.6197260
  42.9723117  26.7991225  64.6063939  42.7951195  23.8470085  67.9905539
  43.0558012  24.7615419  67.8814700  43.6168367  23.3794528  68.1402152
  44.2676120  25.2607842  75.1604364  44.9399173  25.0525205  74.5117013
  43.4405906  25.0629928  74.7209596  58.5165381  32.0011893  74.6779697
  58.7101271  32.9057703  74.9238972  58.4165999  31.5419312  75.5118282
  50.1701692  21.8869783  77.1770025  49.5229607  22.5859733  77.0834501
  50.9402707  22.3205927  77.5446273  53.5780490  32.1518636  80.2520578
  53.4265996  31.9229187  79.3350662  53.5685169  33.1089237  80.2651923
  50.3465826  29.7250548  75.2366844  51.2757886  29.8761708  75.0635812
  49.9256856  29.8134569  74.3815491  49.1454158  33.7501213  73.0065382
  49.0065244  33.3819997  73.8791320  48.3568754  34.2648852  72.8349340
  49.7402310  38.8510309  64.3490918  49.9154066  38.3798352  65.1636541
  49.0535098  39.4776075  64.5772179  50.6959373  33.1282815  70.3954220
  50.3609206  33.0883585  71.2911870  50.1963319  32.4627531  69.9224630
  44.6703617  28.5350445  75.9206801  44.5323415  27.8030684  76.5218340
  45.5808541  28.4459346  75.6390989  53.6318565  30.4738850  60.6691279
  53.0147735  29.7485678  60.5724332  53.1635053  31.2348210  60.3258354
  47.2985918  28.2470405  75.4090480  48.0085536  27.6063597  75.3677099
  47.2555226  28.4983300  76.3316661  55.2872696  35.1837758  78.3297060
  55.2285243  34.4996978  77.6627643  55.6892215  35.9256748  77.8777686
  46.0114852  25.2335623  77.2286120  45.4752209  24.7826361  77.8807716
  45.4231560  25.3681531  76.4856584  44.3063395  41.9999672  71.1230779
  44.5459993  42.6318196  71.8009797  43.4632592  41.6487712  71.4096138
  45.4217111  24.6924274  59.7912584  44.5446577  24.5713075  59.4274830
  45.8974864  23.9010352  59.5391472  55.2890104  33.1477342  76.5611039
  54.4016883  32.8103264  76.6837438  55.8588655  32.4160373  76.7979805
  36.9419251  29.4801434  69.8854091  37.6290291  29.1663164  69.2975106
  36.7867380  30.3842798  69.6121342  41.7453973  24.3691630  74.3139114
  41.6612162  23.7617300  73.5789524  40.9236679  24.8600649  74.3148611
  48.8191257  37.8078794  73.5272283  48.7461429  38.6133766  74.0391587
  48.3768650  38.0070760  72.7020304  48.6081037  37.0450564  67.0375104
  47.8248559  37.5872245  67.1313329  49.3073782  37.5624544  67.4369345
  51.9177687  22.8545194  69.6809310  52.4146386  22.1015156  69.3610380
  51.1464668  22.8909511  69.1152519  59.7707444  28.5585559  71.3227601
  59.7597321  29.4410275  70.9521534  58.9024824  28.2057110  71.1282138
  51.2789941  37.7065628  75.6830441  51.9917913  38.3413093  75.6106343
  50.7879969  37.8029494  74.8670443  53.0007468  31.6116881  67.2547733
  52.0663746  31.7318344  67.0852437  53.1784136  30.7089348  66.9907743
  48.5012656  24.9962577  69.4080994  48.1310443  24.4433617  70.0961900
  48.9971748  24.3920710  68.8555994  56.3880019  27.4534200  67.7897767
  56.8540471  28.2862192  67.7158070  56.8387519  26.9879182  68.4943026
  46.3301854  35.4560072  76.5036012  47.0311314  36.0896555  76.6565406
  45.8596969  35.7974803  75.7431651  54.4556250  33.7978022  64.7883919
  54.7316094  33.6834616  65.6977793  53.5860749  33.3995506  64.7496092
  54.3596682  19.8214787  71.8288668  53.4459761  20.0519014  71.9970875
  54.7889783  19.9053231  72.6802701  54.1303140  28.0104679  74.3288562
  53.4774590  28.2580587  73.6741015  54.5083520  27.1968817  73.9951040
  51.0910314  38.0464372  68.4316733  51.2732709  37.2286028  68.8944485
  51.9143300  38.2632065  67.9941623  51.4252480  36.9732558  65.6931781
  51.9540246  36.4625012  65.0801943  51.6880699  36.6575088  66.5577314
  50.1790713  28.7524490  80.8154599  49.5031350  28.6518620  81.4856975
  51.0018347  28.5963704  81.2790597  41.9269572  34.9896427  73.4367115
  42.5123009  34.2440115  73.5695019  41.7294411  35.3000384  74.3203779
  44.7808227  38.0247674  68.4529557  44.1118603  38.5093802  67.9693597
  44.6421097  38.2716895  69.3672936  36.5187227  27.5602027  72.1571558
  36.5571327  27.0265618  72.9508676  36.0127520  27.0337233  71.5382535
  48.9213496  40.0591418  75.0512215  49.4731804  40.2223039  75.8161301
  49.2619690  40.6495856  74.3792240  43.8977989  22.4066568  75.6534100
  43.9619316  23.2681399  75.2411498  43.8345110  21.7940569  74.9206459
  43.3730262  24.4789700  79.3007134  44.0002301  24.0966777  79.9144659
  42.5158181  24.2603902  79.6662827  53.7724370  34.8852675  80.9060870
  54.3164274  35.4982634  80.4115825  53.1911215  35.4432254  81.4227883
  40.1495805  26.2866129  65.2325489  40.4449246  25.3776808  65.1792543
  39.2483840  26.2653869  64.9106492  52.0581883  38.0073393  72.0375898
  51.9333023  37.2063133  71.5286843  52.7160974  38.5019587  71.5489868
  43.6790052  24.3622126  71.2153038  42.9576637  24.9758094  71.0760511
  44.4683307  24.8979891  71.1369684  54.1216792  35.8082413  73.6655448
  53.1747127  35.6887765  73.5933774  54.4699565  34.9204911  73.7481709
  46.4816365  21.6976552  77.4893690  47.0050767  21.9438849  78.2519999
  46.2628698  22.5296587  77.0696827  41.8783646  23.9680227  65.3564814
  41.5496352  23.0877606  65.1739920  42.2323017  23.9127896  66.2441204
  51.1263225  35.6035130  69.8659800  50.9788187  34.6751837  70.0467370
  51.9516719  35.6255220  69.3816875  44.9925469  24.2553197  65.7240292
  45.3321542  24.7839118  65.0018900  45.4397590  24.5933603  66.4998859
  54.7297347  36.4263688  70.9524673  55.6543894  36.2206550  70.8149124
  54.5612650  36.1780090  71.8614014  47.6868910  22.6390247  75.1743360
  47.3465730  21.8398061  75.5764040  46.9807916  22.9391958  74.6020193
  48.3385382  19.7239560  73.6270683  49.1611451  19.2500038  73.5049573
  48.5823445  20.5030044  74.1269369  46.9793616  22.7527818  63.9233585
  47.7001979  23.1309071  63.4197302  46.3558921  23.4716695  64.0268563
  51.1224739  23.4572967  64.8591917  51.3388354  24.3397605  64.5580745
  50.6418806  23.0659181  64.1297559  45.8623961  26.4158681  71.4362662
  45.7168541  26.7298984  72.3286943  45.3849164  27.0343581  70.8833560
  47.7220344  23.4061229  71.4843551  47.7081912  22.5102322  71.1475849
  48.4392772  23.4131892  72.1181837  49.5746474  23.8398569  73.5296679
  49.3164252  24.7615639  73.5281009  49.0431515  23.4429003  74.2197143
  54.5192663  36.9449356  66.3086764  54.6929541  36.3795778  65.5560617
  55.0121554  37.7450251  66.1266254  40.3369623  28.9564025  74.3750323
  39.7923091  29.7323833  74.5070597  41.2148973  29.3034829  74.2169444
  47.1257240  22.2875609  66.7531121  47.2473151  21.3592255  66.9522009
  46.8359282  22.3014295  65.8409437  49.9948430  19.9730519  69.8897841
  50.0170127  20.0369852  68.9349821  50.4116489  19.1335028  70.0838347
  60.3732054  29.7085779  67.9277064  60.8163200  28.9593104  67.5296187
  59.4958565  29.6995915  67.5450796  55.5067836  36.2616120  63.4083662
  56.2018740  36.8822813  63.6270977  55.8490986  35.4111471  63.6836040
  41.1235645  28.0833921  77.2680480  40.3817381  28.2316557  77.8545110
  40.8028389  28.3442187  76.4047229  49.0679307  37.6249899  77.0660870
  49.3766434  37.3799046  77.9383569  49.8654789  37.8296538  76.5779740
  49.0899919  39.7787809  69.2966246  48.6504910  39.2864188  69.9899103
  49.8408036  39.2360777  69.0558322  41.5692258  35.9699350  69.2990874
  42.3950278  35.6703122  68.9189518  41.2186310  35.2006972  69.7480663
  46.5373792  35.3225818  71.3688548  45.9153801  34.6596523  71.0690776
  47.2078658  35.3486950  70.6862196  39.7700863  33.8885676  70.2579808
  38.9332772  33.4607851  70.0763809  39.7424509  34.0818120  71.1950599
  46.6098319  23.8007606  80.9621054  46.6586475  24.6769729  80.5798824
  47.1520833  23.2584999  80.3892697  57.0953165  34.3448729  80.2422191
  56.3048708  34.3272868  79.7026691  56.8586519  34.8837023  80.9971228
  57.2151040  31.1941196  77.5554920  57.2649045  31.0291203  78.4970442
  57.1064963  30.3268455  77.1652800  46.0987298  33.8729741  64.8447009
  46.2475419  34.5565206  64.1913681  46.9053742  33.8534832  65.3596464
  54.5054802  27.1772124  78.8714226  55.4064665  27.0378589  78.5798224
  54.5802777  27.3426579  79.8112404  48.8397608  24.5538979  77.7167413
  47.9700917  24.8472545  77.4450001  49.0757088  25.1379424  78.4374676
  58.7169237  33.6138137  77.7996941  58.4254045  33.9768118  78.6360402
  58.1041368  32.9005146  77.6210273  59.9164919  31.1791017  70.3199511
  60.7511810  31.6180821  70.4837072  60.0524048  30.7029670  69.5007757
  56.9656425  28.7370752  76.2676999  57.4410546  28.9298398  75.4595851
  56.0421990  28.7929938  76.0220383  43.8539931  29.8994919  65.8508078
  43.6085973  28.9957249  66.0488288  44.0235846  29.9012070  64.9087556
  51.5436641  20.7718595  75.2332833  52.0618585  21.5079622  74.9079322
  51.1891774  21.0782589  76.0679592  43.1235579  25.6323277  63.3494239
  42.4304824  25.7067632  62.6934275  42.8787331  24.8683620  63.8715756
  51.7949236  17.1918878  70.7533730  52.0750989  16.5242067  71.3794156
  52.5799842  17.3847974  70.2408394  49.5982704  36.3677872  62.3158756
  49.0256671  36.9868059  61.8629228  50.1715498  36.9177234  62.8498678
  55.6658094  25.6136512  74.5005305  56.6175517  25.7134610  74.5217529
  55.4961544  24.8214781  75.0103389  53.6872473  22.6992095  74.6864706
  53.0922405  22.9797108  73.9911194  53.4022170  23.1885996  75.4581447
  52.8179964  36.6515022  63.4467338  53.7510637  36.5860584  63.6500214
  52.7303177  37.4871289  62.9881871  55.4467980  35.9680892  60.4071286
  55.3681612  35.6340756  61.3007044  56.2677647  36.4602660  60.4062758
  58.1446172  28.8342632  73.6147604  58.1122492  27.8958632  73.8007288
  58.7546795  28.9126668  72.8813429  49.9829503  27.7038685  59.6574809
  50.9288607  27.5744893  59.7263227  49.6043747  26.9653347  60.1344237
  58.2940660  25.6253675  73.6605888  57.7779709  24.8412132  73.4735817
  59.1780609  25.2972392  73.8252407  55.9551387  19.3694691  69.6201700
  55.7576208  19.0609779  70.5045032  56.5651093  20.0956330  69.7499630
  63.9622722  29.8958639  72.7553641  64.6926110  29.6343927  73.3161345
  63.3529667  29.1587360  72.7955709  62.0438019  28.0366501  73.3528092
  61.3171182  27.9022466  72.7444584  61.6285306  28.3443330  74.1584811
  49.8668195  31.7556431  81.1175465  50.7871205  31.9335030  81.3115512
  49.8317778  30.8112476  80.9655165  48.1672420  25.6288661  59.5929694
  47.2603875  25.3321774  59.6692407  48.4448401  25.3318479  58.7263980
  39.0850360  26.9495024  70.0428740  38.7653144  26.0960333  69.7503114
  38.5383788  27.1643603  70.7986707  42.8630268  29.6657465  73.7598247
  43.0816277  30.5974573  73.7786280  43.2756041  29.3065440  74.5453050
  49.7834485  20.1725551  65.7473935  48.9735214  19.8272636  66.1229181
  50.4718902  19.8633095  66.3361547  51.7125034  19.2503598  67.3698232
  52.2656072  19.6699051  68.0288255  51.9495120  18.3239346  67.4121188
  47.7358133  25.2390671  83.1500996  47.6354860  26.1885028  83.0813087
  47.5179675  24.9108910  82.2777066  46.9371204  22.4875596  59.7341673
  47.7990368  22.8130495  59.9937490  47.1221548  21.7007092  59.2214739
  38.9538620  30.5697936  72.0121862  38.2602091  30.1551889  71.4991816
  39.7011611  30.6118472  71.4155281  55.0903841  21.3604123  66.8776896
  54.5102510  22.0188927  66.4954948  54.8239773  20.5381467  66.4664313
  53.5407407  20.7609180  69.0798216  54.0407185  20.8725715  68.2712535
  54.1843015  20.4570233  69.7199025  47.5989403  28.6687810  81.9666057
  47.1156485  29.4688170  82.1729946  47.6850342  28.6795755  81.0133501
  40.8675363  30.5016190  69.8887877  40.8446051  30.6003877  68.9369760
  41.1775999  31.3481341  70.2105043  43.5262740  32.5592345  74.0034491
  44.4805994  32.5276287  73.9364423  43.3275264  32.0982969  74.8184717
  44.1162123  31.1293461  76.5705289  44.9355012  31.6237539  76.5940126
  44.3898930  30.2125429  76.5422856  53.8728719  23.5204213  65.9333244
  52.9854574  23.8053864  65.7153439  54.2882708  23.3597976  65.0860521
  57.2243255  23.5450734  69.6487583  58.0003645  24.0347187  69.9212200
  56.4991389  23.9708788  70.1059453  59.6615814  24.2578353  70.7061524
  60.2560304  24.0174089  69.9954832  59.7342397  23.5385484  71.3335060
  41.8812969  38.1011964  71.0204689  41.7467437  37.3412365  70.4542687
  41.4645032  38.8252864  70.5533478  53.0171932  33.2848888  60.0281264
  53.7207782  33.4898890  60.6438920  52.2934581  33.8525650  60.2930348
  53.8469743  29.0358749  66.1483534  53.7904944  29.4927300  65.3091167
  54.3998085  28.2749434  65.9706377  57.6574548  24.8248481  66.9733654
  57.4011483  24.4245117  67.8041862  57.0327416  25.5392275  66.8483793
  61.9686886  27.5644554  69.4804945  61.4086444  27.6337743  70.2536507
  61.3630390  27.3885539  68.7604442  45.0382095  38.9981281  71.2323132
  44.9214479  39.9426714  71.1301822  44.2174541  38.6954843  71.6208931
  54.9258630  33.7231417  62.0779724  55.7604234  33.2912615  61.8957199
  54.7642973  33.5513431  63.0056619  54.5804522  30.2263530  63.4436064
  54.5253326  30.0607802  62.5024508  53.9550577  30.9339563  63.5998253
  39.3697037  25.4631595  77.2697486  40.0155900  24.9530549  77.7584711
  39.1614188  26.2000276  77.8440911  51.8950429  32.5312442  82.7689626
  52.7641589  32.7053094  82.4076261  51.4157180  33.3506859  82.6465356
  47.8900647  19.7271639  63.0221382  47.8779317  20.6713479  63.1789653
  48.7824069  19.5441785  62.7280843  46.0636609  39.6509543  74.4479060
  46.9663856  39.6833153  74.7645555  45.8373979  38.7209994  74.4625396
  47.8190211  38.4040530  71.1089139  46.8685842  38.4042391  70.9953511
  48.1222697  37.6573264  70.5925173  51.7052767  16.3214416  67.2767319
  50.9385163  15.7672903  67.4224001  52.1163472  16.3936285  68.1381470
  43.7094528  22.6099212  81.3672500  44.5725989  22.2536017  81.5775825
  43.1359938  22.2713107  82.0547904  63.5542905  44.2401068  72.1734901
  64.1921315  44.1207815  71.4698241  63.4363748  45.1881912  72.2322853
  60.3632611  44.1928496  72.1096426  60.0251123  44.0769561  71.2216961
  61.2322379  43.7919661  72.0897432  56.2219427  46.0463973  68.0993317
  55.6584292  45.9553910  67.3309604  56.1071822  45.2263877  68.5795809
  60.8452394  45.3463348  78.0682631  60.8341035  44.9516146  77.1963135
  61.0073034  44.6129421  78.6616403  53.7683859  47.5415164  70.9377537
  54.5605151  47.2005989  70.5223836  54.0080509  47.6510139  71.8579690
  61.8018985  49.7134940  63.4107782  61.1506965  50.2989021  63.0241795
  62.5963348  50.2441135  63.4702819  55.7274613  46.8024077  63.8094916
  56.5005489  46.2553065  63.6707792  56.0800011  47.6668327  64.0209377
  57.5659655  48.1300460  77.0161815  57.2749521  49.0346091  76.9008482
  58.2016640  48.1716987  77.7305885  58.4915862  45.5077308  73.6063175
  59.0879434  45.2833331  72.8920138  58.5490834  44.7662054  74.2088623
  58.0640890  42.9616744  61.4413366  58.3166411  42.4398265  60.6796829
  57.1265450  42.7982889  61.5440049  63.1084173  41.9652522  69.2488109
  63.8947262  41.5471945  68.8978526  63.3722878  42.8698614  69.4169757
  63.2794251  47.4025372  63.9476766  62.6440084  47.4759999  64.6597670
  62.9491657  47.9918971  63.2695845  68.5092600  41.9027755  70.1521088
  69.2417772  41.3326972  70.3858917  67.7531956  41.5149356  70.5927593
  57.7837179  44.8644850  63.6437741  57.6673437  44.1889753  64.3118825
  57.8939439  44.3777223  62.8269894  60.1268720  44.3254997  67.3484430
  59.7626927  43.7985618  68.0597351  60.9835836  43.9353466  67.1750915
  66.0318021  35.6149329  74.6115696  65.7001346  36.4844740  74.3876911
  65.4363634  35.2985613  75.2909727  59.7674207  39.3544896  62.3445779
  59.9348609  40.2225133  62.7116250  59.5771376  39.5172178  61.4207068
  62.5249540  47.8161875  74.0111609  62.2250263  48.7186914  73.9027416
  62.1800600  47.5494058  74.8632762  55.9762022  44.2675672  70.0448313
  55.0512518  44.1351886  70.2526005  56.2246435  45.0469891  70.5418256
  65.9246684  40.3344415  71.6909046  65.0163561  40.2659824  71.3967807
  65.8734280  40.8116360  72.5190872  59.7463428  41.8102554  63.3292445
  59.6263053  42.2559605  64.1677926  59.0516016  42.1587872  62.7705983
  53.3370833  43.9108946  70.8792102  53.4663214  44.1643425  71.7931514
  52.6568284  44.5036654  70.5596757  57.5070320  54.5806196  66.9782577
  57.4294350  55.5314021  67.0571057  56.9031964  54.2352068  67.6357503
  59.9987550  41.7534061  79.6343943  59.2220884  42.3127981  79.6246808
  60.6378113  42.2390844  80.1558814  67.7908330  38.5360854  73.4686920
  67.1482711  38.8293387  72.8226715  67.2863259  38.4213774  74.2740117
  65.4448494  42.2824027  64.1572779  66.3566350  42.5151414  63.9820477
  64.9358141  42.8661071  63.5947858  58.2533922  44.5619514  79.1961910
  58.9948606  45.1004558  78.9196734  57.5470908  45.1885803  79.3533462
  63.7289262  46.7048655  77.7934072  64.1372618  46.2631065  77.0488704
  63.0066523  46.1301282  78.0468265  60.0820332  41.6421262  75.1667629
  60.9281527  42.0660675  75.3102278  60.0218969  40.9854886  75.8606192
  64.0518076  47.2649845  71.5486361  63.4226939  47.4295560  70.8462429
  63.6643738  47.6791455  72.3197325  67.9307308  48.2004283  68.9030725
  67.2458346  48.5803185  68.3527758  68.0151158  48.8099610  69.6362672
  63.2319777  39.3025630  76.8248803  62.9880709  40.0567691  76.2883078
  63.5079708  39.6810978  77.6596050  65.1858240  45.8464242  75.5026068
  65.3975135  46.4896002  74.8260449  65.1387988  45.0126559  75.0347998
  62.7884469  38.4582063  72.4062640  61.9268948  38.7563317  72.6979378
  62.8146904  38.6752462  71.4743673  59.6046038  47.0024254  68.8136446
  60.0684384  47.2811957  68.0241068  59.3402836  46.1007698  68.6309537
  56.4970119  46.5495735  71.7516209  57.0671476  46.9783003  71.1133694
  57.0878231  46.2678320  72.4500395  58.5414924  43.1247406  65.6226011
  59.2438968  43.5768450  66.0899937  58.2095553  42.4831225  66.2505904
  56.9895286  41.7159163  79.9977220  56.3593946  42.3975443  80.2312617
  56.8831374  41.6042244  79.0530359  52.2840258  41.3830959  70.9243145
  51.4939312  41.6388487  70.4483255  52.7751506  42.1979296  71.0295185
  66.3004068  48.7236198  73.6748425  67.1221512  48.3216385  73.3931107
  66.2966471  48.6204432  74.6264541  54.2355004  41.7475538  67.8826621
  53.4386167  41.8594232  68.4010117  54.0080596  42.0862190  67.0167512
  60.0660671  48.2720241  75.8309136  60.1305104  48.7340648  76.6667308
  59.3571595  47.6417606  75.9591446  50.5677961  41.6361449  73.3558135
  50.8186000  42.5208459  73.6215711  51.1037510  41.4566051  72.5833227
  74.3910061  45.0674946  70.0233397  73.6373769  44.4982344  69.8677401
  74.5257602  45.0337611  70.9704032  59.7808689  49.9388349  65.6988116
  59.6454364  50.7839884  66.1272964  60.3218501  50.1407626  64.9354050
  56.2676029  36.0179928  82.3602472  55.8742974  35.4646127  83.0350116
  57.0842169  36.3290507  82.7508989  53.2338086  47.4563787  66.2716041
  53.7462607  48.2507037  66.4221606  53.8860799  46.7590077  66.2049643
  55.0432971  50.5729543  68.3538795  55.2199599  51.4947508  68.1659778
  55.8389805  50.2587962  68.7833174  59.1843990  37.4337807  79.9522728
  59.9253703  38.0344961  79.8727191  59.4161912  36.6915445  79.3940771
  54.3285328  42.6194175  78.2300958  54.2138843  41.7179432  78.5308057
  53.4729845  42.8657872  77.8785774  61.4077165  50.5611915  79.8288458
  60.9641020  49.7748294  79.5109363  62.0694379  50.7491066  79.1632349
  56.1664287  52.0907717  74.3549137  56.7171712  51.9624780  73.5826131
  55.3275762  52.3902606  74.0044030  63.5058403  50.8414715  77.8569860
  63.4876879  51.6623596  77.3650129  64.4278323  50.7168790  78.0820001
  59.9631458  48.3558844  78.6993368  60.4959794  47.5947133  78.4692676
  59.4345539  48.0632496  79.4417522  63.1301153  33.4618910  74.2287010
  62.7865422  34.3520552  74.1526120  63.4980115  33.2720568  73.3656595
  51.1987003  45.7852441  67.0475612  52.0362225  46.1949449  66.8309320
  51.3765271  44.8451883  67.0175806  63.0951435  43.4527522  62.7359445
  62.5798059  44.2232126  62.9747832  62.8228744  42.7792658  63.3592506
  60.6798546  38.2977222  67.7944683  59.8240143  37.9084073  67.6150322
  61.0925498  38.3769183  66.9344469  62.2097693  35.8323566  72.1936243
  61.7062489  35.7953701  71.3804048  62.5028300  36.7416308  72.2532900
  58.4540579  35.9162295  71.2002425  59.3193576  35.7205104  70.8408314
  58.5218088  35.6872647  72.1271781  68.0685709  46.2059876  64.6712618
  67.2915152  45.8671036  64.2267780  68.7477190  46.2112499  63.9967583
  62.8837738  41.3254614  64.5619226  62.5787874  41.6400763  65.4129369
  63.8368181  41.4036034  64.6046559  61.3284170  47.4844837  66.2112180
  60.8005532  46.7497597  65.8985417  60.8271673  48.2619513  65.9652148
  66.3077016  45.6793857  71.3279226  65.6500691  46.3693119  71.4159355
  67.1117416  46.0690289  71.6713213  56.0602898  38.1464503  68.5718792
  56.6346650  37.9239685  67.8391985  56.6473880  38.2153198  69.3247393
  65.1182475  44.0338230  69.3783168  65.6314357  44.6668222  69.8804878
  65.7683699  43.4339426  69.0126528  56.3872485  40.1768964  62.5914677
  55.5509797  40.5143651  62.9123952  56.2477255  40.0417944  61.6541814
  58.3625566  35.0205752  67.2993861  57.7089978  34.7054769  66.6750476
  58.3206040  34.3981493  68.0253684  59.4736770  45.3025047  59.2147153
  58.5663832  45.0714301  59.4138302  59.9707802  44.5062666  59.4021135
  62.3804849  54.0122554  62.1343839  61.7066548  54.3154251  62.7428797
  62.7670671  54.8151635  61.7849296  61.5963306  41.5087686  71.6241509
  60.6785867  41.7302633  71.4663197  62.0123450  41.5833996  70.7653216
  62.3798354  42.9079101  66.7544189  63.1270173  43.4200499  66.4451311
  62.6489943  42.5863154  67.6148582  60.6525004  45.4037642  63.7371143
  59.7436223  45.1196675  63.8343613  60.6820088  45.8236721  62.8774450
  65.8844271  49.0144232  67.5062311  65.4306598  48.1735141  67.5627501
  65.2538238  49.6505630  67.8437091  64.8277191  39.9436218  68.7362978
  64.0899948  39.4313604  69.0673221  65.0803964  39.5036599  67.9246255
  64.3277211  50.8520728  68.4412129  64.6200185  51.4125785  67.7224494
  64.8375831  51.1449289  69.1965288  64.9288818  32.7212470  69.3304747
  65.2347695  31.8609833  69.0430663  65.6541423  33.3130090  69.1303741
  51.2213174  43.1243156  67.7186345  51.0237574  42.5312517  66.9937412
  50.6659838  42.8195366  68.4362284  59.2009898  43.0166263  69.8380939
  59.2558508  42.0640099  69.7623415  58.3901100  43.1725702  70.3222237
  60.3501092  46.9446386  61.0759222  59.9120522  46.2282245  60.6164859
  61.0911533  47.1722501  60.5144313  57.1402258  41.6343322  67.5971317
  56.3270123  41.9337493  68.0036510  57.6361252  41.2399011  68.3145800
  59.2910836  51.6301079  69.5305582  59.2487015  51.8561926  68.6014114
  60.2073535  51.3964454  69.6791383  62.7376470  42.0985147  76.4286211
  63.0925857  42.3256620  77.2880677  63.3848601  42.4303524  75.8063467
  68.4674206  45.2203583  67.1335540  68.3292105  45.4105179  66.2056730
  68.1110425  45.9822966  67.5903591  56.6316333  39.2061678  73.2132552
  57.2715712  39.0650437  72.5155516  55.7993863  38.9196191  72.8371154
  68.4943586  47.2880110  72.1446812  68.9280093  47.1955399  72.9929866
  69.2075167  47.2637610  71.5066828  57.4076637  48.5064108  69.3267545
  58.2017235  48.0114429  69.1250120  56.6968329  47.9781972  68.9635250
  62.2271481  50.8882204  73.6779912  62.2808503  51.4573140  74.4457628
  61.3586262  51.0584089  73.3133950  53.7159400  42.6507190  65.4027297
  52.7856988  42.5891646  65.6197260  53.8116872  42.1283143  64.6063939
  53.6344949  39.1762003  67.9905539  53.8951766  40.0907336  67.8814700
  54.4562121  38.7086446  68.1402152  55.1069874  40.5899760  75.1604364
  55.7792928  40.3817122  74.5117013  54.2799661  40.3921846  74.7209596
  69.3559136  47.3303810  74.6779697  69.5495026  48.2349621  74.9238972
  69.2559754  46.8711230  75.5118282  61.0095446  37.2161701  77.1770025
  60.3623361  37.9151651  77.0834501  61.7796462  37.6497845  77.5446273
  64.4174244  47.4810553  80.2520578  64.2659751  47.2521105  79.3350662
  64.4078924  48.4381155  80.2651923  61.1859581  45.0542466  75.2366844
  62.1151641  45.2053626  75.0635812  60.7650611  45.1426487  74.3815491
  59.9847913  49.0793130  73.0065382  59.8458998  48.7111915  73.8791320
  59.1962509  49.5940770  72.8349340  60.5796064  54.1802227  64.3490918
  60.7547820  53.7090270  65.1636541  59.8928853  54.8067993  64.5772179
  61.5353128  48.4574733  70.3954220  61.2002960  48.4175503  71.2911870
  61.0357073  47.7919449  69.9224630  55.5097372  43.8642363  75.9206801
  55.3717170  43.1322602  76.5218340  56.4202295  43.7751263  75.6390989
  64.4712319  45.8030767  60.6691279  63.8541490  45.0777596  60.5724332
  64.0028808  46.5640128  60.3258354  58.1379672  43.5762322  75.4090480
  58.8479291  42.9355515  75.3677099  58.0948980  43.8275217  76.3316661
  66.1266451  50.5129676  78.3297060  66.0678997  49.8288896  77.6627643
  66.5285969  51.2548666  77.8777686  56.8508606  40.5627540  77.2286120
  56.3145963  40.1118279  77.8807716  56.2625315  40.6973449  76.4856584
  55.1457150  57.3291590  71.1230779  55.3853748  57.9610114  71.8009797
  54.3026346  56.9779630  71.4096138  56.2610865  40.0216192  59.7912584
  55.3840332  39.9004992  59.4274830  56.7368618  39.2302270  59.5391472
  66.1283858  48.4769260  76.5611039  65.2410637  48.1395181  76.6837438
  66.6982409  47.7452291  76.7979805  47.7813005  44.8093351  69.8854091
  48.4684045  44.4955081  69.2975106  47.6261134  45.7134716  69.6121342
  52.5847727  39.6983548  74.3139114  52.5005916  39.0909218  73.5789524
  51.7630434  40.1892566  74.3148611  59.6585012  53.1370712  73.5272283
  59.5855183  53.9425684  74.0391587  59.2162405  53.3362678  72.7020304
  59.4474791  52.3742482  67.0375104  58.6642313  52.9164162  67.1313329
  60.1467536  52.8916462  67.4369345  62.7571441  38.1837112  69.6809310
  63.2540141  37.4307074  69.3610380  61.9858423  38.2201428  69.1152519
  70.6101199  43.8877477  71.3227601  70.5991075  44.7702192  70.9521534
  69.7418578  43.5349028  71.1282138  62.1183695  53.0357546  75.6830441
  62.8311667  53.6705011  75.6106343  61.6273724  53.1321412  74.8670443
  63.8401222  46.9408799  67.2547733  62.9057501  47.0610261  67.0852437
  64.0177891  46.0381266  66.9907743  59.3406410  40.3254495  69.4080994
  58.9704198  39.7725535  70.0961900  59.8365503  39.7212628  68.8555994
  67.2273773  42.7826118  67.7897767  67.6934226  43.6154110  67.7158070
  67.6781274  42.3171100  68.4943026  57.1695609  50.7851990  76.5036012
  57.8705068  51.4188473  76.6565406  56.6990724  51.1266721  75.7431651
  65.2950005  49.1269939  64.7883919  65.5709848  49.0126534  65.6977793
  64.4254503  48.7287424  64.7496092  65.1990436  35.1506705  71.8288668
  64.2853516  35.3810932  71.9970875  65.6283538  35.2345149  72.6802701
  64.9696895  43.3396597  74.3288562  64.3168345  43.5872504  73.6741015
  65.3477275  42.5260735  73.9951040  61.9304069  53.3756290  68.4316733
  62.1126463  52.5577946  68.8944485  62.7537055  53.5923982  67.9941623
  62.2646234  52.3024475  65.6931781  62.7934000  51.7916930  65.0801943
  62.5274454  51.9867006  66.5577314  61.0184468  44.0816408  80.8154599
  60.3425105  43.9810537  81.4856975  61.8412102  43.9255622  81.2790597
  52.7663327  50.3188345  73.4367115  53.3516764  49.5732032  73.5695019
  52.5688165  50.6292301  74.3203779  55.6201982  53.3539592  68.4529557
  54.9512357  53.8385720  67.9693597  55.4814852  53.6008812  69.3672936
  47.3580981  42.8893945  72.1571558  47.3965081  42.3557535  72.9508676
  46.8521274  42.3629150  71.5382535  59.7607251  55.3883335  75.0512215
  60.3125559  55.5514957  75.8161301  60.1013444  55.9787773  74.3792240
  54.7371744  37.7358485  75.6534100  54.8013070  38.5973316  75.2411498
  54.6738864  37.1232487  74.9206459  54.2124016  39.8081618  79.3007134
  54.8396055  39.4258695  79.9144659  53.3551935  39.5895820  79.6662827
  64.6118125  50.2144593  80.9060870  65.1558029  50.8274551  80.4115825
  64.0304970  50.7724171  81.4227883  50.9889559  41.6158047  65.2325489
  51.2843000  40.7068725  65.1792543  50.0877595  41.5945786  64.9106492
  62.8975638  53.3365311  72.0375898  62.7726777  52.5355051  71.5286843
  63.5554729  53.8311504  71.5489868  54.5183806  39.6914044  71.2153038
  53.7970392  40.3050011  71.0760511  55.3077062  40.2271808  71.1369684
  64.9610546  51.1374331  73.6655448  64.0140882  51.0179682  73.5933774
  65.3093319  50.2496829  73.7481709  57.3210120  37.0268470  77.4893690
  57.8444521  37.2730767  78.2519999  57.1022453  37.8588505  77.0696827
  52.7177401  39.2972145  65.3564814  52.3890107  38.4169524  65.1739920
  53.0716771  39.2419813  66.2441204  61.9656980  50.9327047  69.8659800
  61.8181942  50.0043755  70.0467370  62.7910473  50.9547138  69.3816875
  55.8319224  39.5845114  65.7240292  56.1715296  40.1131036  65.0018900
  56.2791344  39.9225521  66.4998859  65.5691101  51.7555606  70.9524673
  66.4937649  51.5498467  70.8149124  65.4006405  51.5072007  71.8614014
  58.5262665  37.9682165  75.1743360  58.1859485  37.1689978  75.5764040
  57.8201671  38.2683876  74.6020193  59.1779136  35.0531478  73.6270683
  60.0005206  34.5791956  73.5049573  59.4217200  35.8321961  74.1269369
  57.8187371  38.0819736  63.9233585  58.5395733  38.4600989  63.4197302
  57.1952675  38.8008613  64.0268563  61.9618494  38.7864885  64.8591917
  62.1782108  39.6689523  64.5580745  61.4812561  38.3951098  64.1297559
  56.7017715  41.7450598  71.4362662  56.5562296  42.0590901  72.3286943
  56.2242919  42.3635499  70.8833560  58.5614098  38.7353146  71.4843551
  58.5475667  37.8394239  71.1475849  59.2786526  38.7423810  72.1181837
  60.4140229  39.1690486  73.5296679  60.1558007  40.0907557  73.5281009
  59.8825269  38.7720921  74.2197143  65.3586418  52.2741273  66.3086764
  65.5323295  51.7087696  65.5560617  65.8515309  53.0742168  66.1266254
  51.1763377  44.2855943  74.3750323  50.6316845  45.0615751  74.5070597
  52.0542727  44.6326747  74.2169444  57.9650994  37.6167526  66.7531121
  58.0866905  36.6884173  66.9522009  57.6753036  37.6306212  65.8409437
  60.8342184  35.3022437  69.8897841  60.8563881  35.3661770  68.9349821
  61.2510243  34.4626946  70.0838347  71.2125809  45.0377696  67.9277064
  71.6556955  44.2885022  67.5296187  70.3352319  45.0287833  67.5450796
  66.3461590  51.5908038  63.4083662  67.0412495  52.2114731  63.6270977
  66.6884740  50.7403389  63.6836040  51.9629399  43.4125839  77.2680480
  51.2211135  43.5608474  77.8545110  51.6422144  43.6734104  76.4047229
  68.2453013  49.0407743  64.9370993  68.7704337  49.3795016  64.2120313
  68.1575366  48.1054759  64.7534128  59.9073062  52.9541817  77.0660870
  60.2160188  52.7090964  77.9383569  60.7048544  53.1588456  76.5779740
  59.9293674  55.1079727  69.2966246  59.4898664  54.6156105  69.9899103
  60.6801791  54.5652694  69.0558322  52.4086013  51.2991268  69.2990874
  53.2344033  50.9995039  68.9189518  52.0580065  50.5298890  69.7480663
  57.3767546  50.6517736  71.3688548  56.7547555  49.9888441  71.0690776
  58.0472413  50.6778868  70.6862196  50.6094618  49.2177594  70.2579808
  49.7726526  48.7899768  70.0763809  50.5818263  49.4110037  71.1950599
  57.4492074  39.1299524  80.9621054  57.4980229  40.0061647  80.5798824
  57.9914588  38.5876917  80.3892697  67.9346919  49.6740647  80.2422191
  67.1442463  49.6564786  79.7026691  67.6980274  50.2128941  80.9971228
  68.0544794  46.5233113  77.5554920  68.1042799  46.3583121  78.4970442
  67.9458718  45.6560372  77.1652800  56.9381053  49.2021659  64.8447009
  57.0869173  49.8857124  64.1913681  57.7447496  49.1826749  65.3596464
  65.3448557  42.5064041  78.8714226  66.2458419  42.3670506  78.5798224
  65.4196531  42.6718496  79.8112404  59.6791362  39.8830896  77.7167413
  58.8094671  40.1764462  77.4450001  59.9150842  40.4671341  78.4374676
  69.5562991  48.9430055  77.7996941  69.2647799  49.3060036  78.6360402
  68.9435122  48.2297063  77.6210273  70.7558673  46.5082935  70.3199511
  71.5905565  46.9472739  70.4837072  70.8917802  46.0321588  69.5007757
  67.8050179  44.0662670  76.2676999  68.2804301  44.2590316  75.4595851
  66.8815745  44.1221855  76.0220383  54.6933686  45.2286837  65.8508078
  54.4479728  44.3249167  66.0488288  54.8629601  45.2303987  64.9087556
  62.3830396  36.1010513  75.2332833  62.9012340  36.8371540  74.9079322
  62.0285529  36.4074506  76.0679592  53.9629333  40.9615194  63.3494239
  53.2698578  41.0359549  62.6934275  53.7181085  40.1975538  63.8715756
  62.6342990  32.5210796  70.7533730  62.9144744  31.8533985  71.3794156
  63.4193597  32.7139891  70.2408394  66.5051848  40.9428430  74.5005305
  67.4569271  41.0426527  74.5217529  66.3355299  40.1506698  75.0103389
  64.5266228  38.0284013  74.6864706  63.9316160  38.3089026  73.9911194
  64.2415925  38.5177914  75.4581447  63.6573718  51.9806940  63.4467338
  64.5904391  51.9152501  63.6500214  63.5696931  52.8163207  62.9881871
  66.2861735  51.2972810  60.4071286  66.2075366  50.9632674  61.3007044
  67.1071402  51.7894578  60.4062758  68.9839926  44.1634549  73.6147604
  68.9516246  43.2250550  73.8007288  69.5940550  44.2418586  72.8813429
  60.8223257  43.0330602  59.6574809  61.7682362  42.9036810  59.7263227
  60.4437502  42.2945264  60.1344237  69.1334415  40.9545593  73.6605888
  68.6173463  40.1704049  73.4735817  70.0174363  40.6264309  73.8252407
  66.7945142  34.6986608  69.6201700  66.5969963  34.3901697  70.5045032
  67.4044847  35.4248247  69.7499630  74.8016476  45.2250556  72.7553641
  75.5319864  44.9635844  73.3161345  74.1923421  44.4879278  72.7955709
  72.8831773  43.3658419  73.3528092  72.1564937  43.2314384  72.7444584
  72.4679060  43.6735247  74.1584811  60.7061950  47.0848348  81.1175465
  61.6264959  47.2626947  81.3115512  60.6711533  46.1404394  80.9655165
  59.0066174  40.9580579  59.5929694  58.0997630  40.6613691  59.6692407
  59.2842155  40.6610397  58.7263980  49.9244115  42.2786942  70.0428740
  49.6046899  41.4252250  69.7503114  49.3777543  42.4935520  70.7986707
  53.7024022  44.9949383  73.7598247  53.9210032  45.9266491  73.7786280
  54.1149796  44.6357358  74.5453050  60.6228240  35.5017468  65.7473935
  59.8128968  35.1564553  66.1229181  61.3112657  35.1925012  66.3361547
  62.5518788  34.5795515  67.3698232  63.1049827  34.9990969  68.0288255
  62.7888875  33.6531263  67.4121188  58.5751887  40.5682589  83.1500996
  58.4748614  41.5176946  83.0813087  58.3573429  40.2400828  82.2777066
  57.7764959  37.8167514  59.7341673  58.6384123  38.1422412  59.9937490
  57.9615303  37.0299010  59.2214739  49.7932375  45.8989854  72.0121862
  49.0995846  45.4843806  71.4991816  50.5405366  45.9410390  71.4155281
  65.9297595  36.6896040  66.8776896  65.3496264  37.3480844  66.4954948
  65.6633528  35.8673385  66.4664313  64.3801162  36.0901098  69.0798216
  64.8800940  36.2017633  68.2712535  65.0236770  35.7862151  69.7199025
  58.4383157  43.9979728  81.9666057  57.9550239  44.7980088  82.1729946
  58.5244096  44.0087673  81.0133501  51.7069117  45.8308107  69.8887877
  51.6839805  45.9295795  68.9369760  52.0169754  46.6773258  70.2105043
  54.3656495  47.8884262  74.0034491  55.3199748  47.8568205  73.9364423
  54.1669019  47.4274886  74.8184717  54.9555877  46.4585378  76.5705289
  55.7748766  46.9529457  76.5940126  55.2292685  45.5417347  76.5422856
  64.7122473  38.8496131  65.9333244  63.8248328  39.1345781  65.7153439
  65.1276462  38.6889894  65.0860521  68.0637009  38.8742652  69.6487583
  68.8397400  39.3639104  69.9212200  67.3385144  39.3000706  70.1059453
  70.5009568  39.5870271  70.7061524  71.0954059  39.3466007  69.9954832
  70.5736152  38.8677402  71.3335060  52.7206724  53.4303882  71.0204689
  52.5861192  52.6704283  70.4542687  52.3038786  54.1544782  70.5533478
  63.8565687  48.6140805  60.0281264  64.5601537  48.8190808  60.6438920
  63.1328336  49.1817567  60.2930348  64.6863497  44.3650667  66.1483534
  64.6298698  44.8219218  65.3091167  65.2391839  43.6041351  65.9706377
  68.4968303  40.1540399  66.9733654  68.2405237  39.7537034  67.8041862
  67.8721171  40.8684193  66.8483793  72.8080641  42.8936472  69.4804945
  72.2480199  42.9629661  70.2536507  72.2024144  42.7177456  68.7604442
  55.8775850  54.3273199  71.2323132  55.7608234  55.2718631  71.1301822
  55.0568296  54.0246761  71.6208931  65.7652384  49.0523335  62.0779724
  66.5997988  48.6204533  61.8957199  65.6036727  48.8805348  63.0056619
  65.4198276  45.5555448  63.4436064  65.3647080  45.3899719  62.5024508
  64.7944332  46.2631481  63.5998253  50.2090791  40.7923512  77.2697486
  50.8549655  40.2822466  77.7584711  50.0007942  41.5292194  77.8440911
  62.7344184  47.8604360  82.7689626  63.6035343  48.0345012  82.4076261
  62.2550935  48.6798777  82.6465356  58.7294402  35.0563557  63.0221382
  58.7173072  36.0005397  63.1789653  59.6217824  34.8733702  62.7280843
  56.9030364  54.9801461  74.4479060  57.8057610  55.0125071  74.7645555
  56.6767734  54.0501912  74.4625396  58.6583966  53.7332447  71.1089139
  57.7079597  53.7334309  70.9953511  58.9616452  52.9865182  70.5925173
  62.5446521  31.6506334  67.2767319  61.7778917  31.0964820  67.4224001
  62.9557226  31.7228202  68.1381470  54.5488282  37.9391129  81.3672500
  55.4119744  37.5827934  81.5775825  53.9753693  37.6005024  82.0547904
  74.3936659  59.5692986  72.1734901  75.0315069  59.4499733  71.4698241
  74.2757502  60.5173830  72.2322853  71.2026366  59.5220414  72.1096426
  70.8644877  59.4061479  71.2216961  72.0716134  59.1211579  72.0897432
  67.0613181  61.3755890  68.0993317  66.4978046  61.2845827  67.3309604
  66.9465576  60.5555795  68.5795809  64.6077613  62.8707082  70.9377537
  65.3998905  62.5297907  70.5223836  64.8474263  62.9802057  71.8579690
  72.6412740  65.0426858  63.4107782  71.9900720  65.6280938  63.0241795
  73.4357103  65.5733053  63.4702819  66.5668367  62.1315995  63.8094916
  67.3399243  61.5844982  63.6707792  66.9193766  62.9960244  64.0209377
  69.3309617  60.8369226  73.6063175  69.9273189  60.6125248  72.8920138
  69.3884588  60.0953971  74.2088623  68.9034645  58.2908661  61.4413366
  69.1560166  57.7690183  60.6796829  67.9659204  58.1274807  61.5440049
  73.9477928  57.2944440  69.2488109  74.7341017  56.8763863  68.8978526
  74.2116632  58.1990532  69.4169757  74.1188005  62.7317290  63.9476766
  73.4833838  62.8051916  64.6597670  73.7885411  63.3210889  63.2695845
  79.3486355  57.2319673  70.1521088  80.0811527  56.6618890  70.3858917
  78.5925711  56.8441273  70.5927593  68.6230934  60.1936767  63.6437741
  68.5067192  59.5181671  64.3118825  68.7333194  59.7069141  62.8269894
  70.9662475  59.6546914  67.3484430  70.6020682  59.1277535  68.0597351
  71.8229590  59.2645383  67.1750915  76.8711775  50.9441247  74.6115696
  76.5395100  51.8136658  74.3876911  76.2757389  50.6277531  75.2909727
  70.6067962  54.6836814  62.3445779  70.7742364  55.5517050  62.7116250
  70.4165131  54.8464096  61.4207068  73.3643295  63.1453793  74.0111609
  73.0644018  64.0478832  73.9027416  73.0194354  62.8785976  74.8632762
  66.8155776  59.5967590  70.0448313  65.8906273  59.4643804  70.2526005
  67.0640189  60.3761809  70.5418256  76.7640439  55.6636333  71.6909046
  75.8557316  55.5951742  71.3967807  76.7128034  56.1408278  72.5190872
  70.5857182  57.1394472  63.3292445  70.4656808  57.5851522  64.1677926
  69.8909771  57.4879789  62.7705983  64.1764587  59.2400863  70.8792102
  64.3056968  59.4935342  71.7931514  63.4962039  59.8328571  70.5596757
  68.3464075  69.9098113  66.9782577  68.2688104  70.8605938  67.0571057
  67.7425718  69.5643986  67.6357503  78.6302085  53.8652772  73.4686920
  77.9876465  54.1585305  72.8226715  78.1257013  53.7505692  74.2740117
  76.2842249  57.6115945  64.1572779  77.1960105  57.8443331  63.9820477
  75.7751896  58.1952989  63.5947858  70.9214086  56.9713179  75.1667629
  71.7675282  57.3952593  75.3102278  70.8612724  56.3146804  75.8606192
  74.8911831  62.5941763  71.5486361  74.2620693  62.7587477  70.8462429
  74.5037493  63.0083373  72.3197325  78.7701063  63.5296201  68.9030725
  78.0852101  63.9095102  68.3527758  78.8544912  64.1391528  69.6362672
  74.0713532  54.6317548  76.8248803  73.8274464  55.3859608  76.2883078
  74.3473462  55.0102895  77.6596050  73.6278223  53.7873981  72.4062640
  72.7662702  54.0855234  72.6979378  73.6540658  54.0044380  71.4743673
  70.4439793  62.3316171  68.8136446  70.9078138  62.6103874  68.0241068
  70.1796591  61.4299616  68.6309537  67.3363874  61.8787653  71.7516209
  67.9065231  62.3074921  71.1133694  67.9271986  61.5970237  72.4500395
  69.3808679  58.4539324  65.6226011  70.0832722  58.9060367  66.0899937
  69.0489307  57.8123142  66.2505904  67.8289040  57.0451080  79.9977220
  67.1987701  57.7267361  80.2312617  67.7225128  56.9334162  79.0530359
  63.1234013  56.7122876  70.9243145  62.3333067  56.9680405  70.4483255
  63.6145260  57.5271214  71.0295185  65.0748758  57.0767456  67.8826621
  64.2779921  57.1886150  68.4010117  64.8474350  57.4154108  67.0167512
  61.4071716  56.9653367  73.3558135  61.6579754  57.8500377  73.6215711
  61.9431264  56.7857968  72.5833227  85.2303815  60.3966864  70.0233397
  84.4767524  59.8274262  69.8677401  85.3651357  60.3629528  70.9704032
  70.6202443  65.2680266  65.6988116  70.4848118  66.1131802  66.1272964
  71.1612256  65.4699544  64.9354050  67.1069783  51.3471846  82.3602472
  66.7136729  50.7938045  83.0350116  67.9235923  51.6582425  82.7508989
  64.0731841  62.7855704  66.2716041  64.5856361  63.5798955  66.4221606
  64.7254554  62.0881995  66.2049643  65.8826726  65.9021461  68.3538795
  66.0593354  66.8239425  68.1659778  66.6783559  65.5879880  68.7833174
  70.0237744  52.7629725  79.9522728  70.7647457  53.3636878  79.8727191
  70.2555667  52.0207363  79.3940771  65.1679082  57.9486092  78.2300958
  65.0532597  57.0471350  78.5308057  64.3123600  58.1949789  77.8785774
  67.0058041  67.4199634  74.3549137  67.5565466  67.2916698  73.5826131
  66.1669517  67.7194523  74.0044030  73.9694907  48.7910828  74.2287010
  73.6259176  49.6812470  74.1526120  74.3373870  48.6012486  73.3656595
  62.0380758  61.1144359  67.0475612  62.8755980  61.5241367  66.8309320
  62.2159025  60.1743801  67.0175806  73.9345190  58.7819439  62.7359445
  73.4191813  59.5524044  62.9747832  73.6622498  58.1084575  63.3592506
  71.5192301  53.6269140  67.7944683  70.6633897  53.2375990  67.6150322
  71.9319253  53.7061101  66.9344469  73.0491447  51.1615483  72.1936243
  72.5456243  51.1245618  71.3804048  73.3422054  52.0708226  72.2532900
  69.2934333  51.2454213  71.2002425  70.1587330  51.0497022  70.8408314
  69.3611842  51.0164565  72.1271781  78.9079464  61.5351794  64.6712618
  78.1308907  61.1962953  64.2267780  79.5870945  61.5404417  63.9967583
  73.7231493  56.6546531  64.5619226  73.4181628  56.9692680  65.4129369
  74.6761935  56.7327951  64.6046559  72.1677925  62.8136755  66.2112180
  71.6399286  62.0789514  65.8985417  71.6665427  63.5911431  65.9652148
  77.1470771  61.0085775  71.3279226  76.4894445  61.6985037  71.4159355
  77.9511170  61.3982207  71.6713213  66.8996652  53.4756421  68.5718792
  67.4740404  53.2531602  67.8391985  67.4867635  53.5445115  69.3247393
  75.9576230  59.3630148  69.3783168  76.4708111  59.9960140  69.8804878
  76.6077453  58.7631343  69.0126528  67.2266239  55.5060882  62.5914677
  66.3903552  55.8435568  62.9123952  67.0871009  55.3709862  61.6541814
  69.2019320  50.3497670  67.2993861  68.5483732  50.0346687  66.6750476
  69.1599794  49.7273410  68.0253684  70.3130525  60.6316965  59.2147153
  69.4057587  60.4006218  59.4138302  70.8101557  59.8354584  59.4021135
  73.2198604  69.3414472  62.1343839  72.5460303  69.6446169  62.7428797
  73.6064426  70.1443552  61.7849296  72.4357060  56.8379603  71.6241509
  71.5179622  57.0594550  71.4663197  72.8517204  56.9125914  70.7653216
  73.2192108  58.2371019  66.7544189  73.9663927  58.7492416  66.4451311
  73.4883698  57.9155072  67.6148582  71.4918758  60.7329560  63.7371143
  70.5829978  60.4488593  63.8343613  71.5213842  61.1528638  62.8774450
  76.7238026  64.3436149  67.5062311  76.2700353  63.5027059  67.5627501
  76.0931993  64.9797548  67.8437091  75.6670945  55.2728135  68.7362978
  74.9293702  54.7605522  69.0673221  75.9197719  54.8328517  67.9246255
  75.1670965  66.1812646  68.4412129  75.4593939  66.7417703  67.7224494
  75.6769586  66.4741207  69.1965288  75.7682573  48.0504387  69.3304747
  76.0741449  47.1901751  69.0430663  76.4935177  48.6422007  69.1303741
  62.0606929  58.4535074  67.7186345  61.8631329  57.8604435  66.9937412
  61.5053593  58.1487284  68.4362284  70.0403652  58.3458180  69.8380939
  70.0952262  57.3932017  69.7623415  69.2294854  58.5017619  70.3222237
  71.1894846  62.2738303  61.0759222  70.7514276  61.5574162  60.6164859
  71.9305287  62.5014418  60.5144313  67.9796012  56.9635240  67.5971317
  67.1663878  57.2629411  68.0036510  68.4755007  56.5690929  68.3145800
  70.1304590  66.9592997  69.5305582  70.0880769  67.1853843  68.6014114
  71.0467289  66.7256372  69.6791383  73.5770224  57.4277065  76.4286211
  73.9319612  57.6548538  77.2880677  74.2242355  57.7595441  75.8063467
  79.3067961  60.5495500  67.1335540  79.1685860  60.7397096  66.2056730
  78.9504180  61.3114883  67.5903591  67.4710087  54.5353596  73.2132552
  68.1109466  54.3942355  72.5155516  66.6387618  54.2488109  72.8371154
  79.3337341  62.6172027  72.1446812  79.7673847  62.5247317  72.9929866
  80.0468921  62.5929528  71.5066828  68.2470391  63.8356026  69.3267545
  69.0410990  63.3406346  69.1250120  67.5362083  63.3073889  68.9635250
  64.5553154  57.9799108  65.4027297  63.6250743  57.9183563  65.6197260
  64.6510626  57.4575061  64.6063939  64.4738704  54.5053921  67.9905539
  64.7345521  55.4199254  67.8814700  65.2955876  54.0378363  68.1402152
  65.9463629  55.9191678  75.1604364  66.6186682  55.7109040  74.5117013
  65.1193415  55.7213764  74.7209596  71.8489201  52.5453619  77.1770025
  71.2017116  53.2443568  77.0834501  72.6190216  52.9789763  77.5446273
  72.0253335  60.3834384  75.2366844  72.9545395  60.5345543  75.0635812
  71.6044365  60.4718404  74.3815491  70.8241667  64.4085048  73.0065382
  70.6852753  64.0403832  73.8791320  70.0356263  64.9232687  72.8349340
  71.4189819  69.5094145  64.3490918  71.5941575  69.0382188  65.1636541
  70.7322607  70.1359911  64.5772179  72.3746882  63.7866651  70.3954220
  72.0396715  63.7467421  71.2911870  71.8750828  63.1211367  69.9224630
  66.3491126  59.1934281  75.9206801  66.2110924  58.4614520  76.5218340
  67.2596050  59.1043181  75.6390989  75.3106074  61.1322685  60.6691279
  74.6935244  60.4069513  60.5724332  74.8422562  61.8932045  60.3258354
  68.9773427  58.9054240  75.4090480  69.6873045  58.2647432  75.3677099
  68.9342735  59.1567135  76.3316661  67.6902361  55.8919458  77.2286120
  67.1539718  55.4410196  77.8807716  67.1019069  56.0265367  76.4856584
  65.9850904  72.6583507  71.1230779  66.2247502  73.2902031  71.8009797
  65.1420101  72.3071547  71.4096138  67.1004620  55.3508109  59.7912584
  66.2234086  55.2296910  59.4274830  67.5762373  54.5594188  59.5391472
  58.6206760  60.1385269  69.8854091  59.3077800  59.8246999  69.2975106
  58.4654889  61.0426634  69.6121342  63.4241482  55.0275466  74.3139114
  63.3399671  54.4201135  73.5789524  62.6024188  55.5184484  74.3148611
  70.2868546  67.7034400  67.0375104  69.5036068  68.2456080  67.1313329
  70.9861291  68.2208379  67.4369345  73.5965196  53.5129029  69.6809310
  74.0933895  52.7598992  69.3610380  72.8252177  53.5493346  69.1152519
  81.4494953  59.2169395  71.3227601  81.4384830  60.0994110  70.9521534
  80.5812333  58.8640946  71.1282138  74.6794977  62.2700716  67.2547733
  73.7451255  62.3902179  67.0852437  74.8571645  61.3673183  66.9907743
  70.1800165  55.6546412  69.4080994  69.8097952  55.1017453  70.0961900
  70.6759257  55.0504546  68.8555994  78.0667528  58.1118036  67.7897767
  78.5327980  58.9446027  67.7158070  78.5175028  57.6463017  68.4943026
  76.1343759  64.4561857  64.7883919  76.4103603  64.3418452  65.6977793
  75.2648258  64.0579342  64.7496092  76.0384191  50.4798623  71.8288668
  75.1247270  50.7102850  71.9970875  76.4677292  50.5637067  72.6802701
  75.8090649  58.6688515  74.3288562  75.1562099  58.9164422  73.6741015
  76.1871029  57.8552653  73.9951040  72.7697823  68.7048208  68.4316733
  72.9520218  67.8869864  68.8944485  73.5930809  68.9215900  67.9941623
  73.1039989  67.6316393  65.6931781  73.6327755  67.1208848  65.0801943
  73.3668208  67.3158923  66.5577314  63.6057081  65.6480262  73.4367115
  64.1910518  64.9023950  73.5695019  63.4081920  65.9584219  74.3203779
  66.4595736  68.6831510  68.4529557  65.7906112  69.1677637  67.9693597
  66.3208606  68.9300730  69.3672936  58.1974736  58.2185862  72.1571558
  58.2358835  57.6849453  72.9508676  57.6915029  57.6921068  71.5382535
  65.5765498  53.0650403  75.6534100  65.6406825  53.9265234  75.2411498
  65.5132619  52.4524405  74.9206459  65.0517771  55.1373536  79.3007134
  65.6789810  54.7550613  79.9144659  64.1945690  54.9187737  79.6662827
  61.8283314  56.9449965  65.2325489  62.1236755  56.0360643  65.1792543
  60.9271349  56.9237704  64.9106492  65.3577561  55.0205961  71.2153038
  64.6364146  55.6341929  71.0760511  66.1470816  55.5563726  71.1369684
  68.1603874  52.3560388  77.4893690  68.6838276  52.6022684  78.2519999
  67.9416207  53.1880423  77.0696827  63.5571155  54.6264062  65.3564814
  63.2283861  53.7461441  65.1739920  63.9110526  54.5711731  66.2441204
  72.8050734  66.2618965  69.8659800  72.6575696  65.3335672  70.0467370
  73.6304228  66.2839056  69.3816875  66.6712978  54.9137032  65.7240292
  67.0109051  55.4422953  65.0018900  67.1185099  55.2517438  66.4998859
  76.4084856  67.0847524  70.9524673  77.3331403  66.8790385  70.8149124
  76.2400159  66.8363925  71.8614014  69.3656419  53.2974083  75.1743360
  69.0253239  52.4981896  75.5764040  68.6595425  53.5975794  74.6020193
  70.0172891  50.3823395  73.6270683  70.8398960  49.9083873  73.5049573
  70.2610954  51.1613879  74.1269369  68.6581125  53.4111654  63.9233585
  69.3789488  53.7892906  63.4197302  68.0346430  54.1300530  64.0268563
  72.8012248  54.1156803  64.8591917  73.0175863  54.9981441  64.5580745
  72.3206315  53.7243016  64.1297559  67.5411470  57.0742516  71.4362662
  67.3956050  57.3882819  72.3286943  67.0636673  57.6927416  70.8833560
  69.4007853  54.0645064  71.4843551  69.3869421  53.1686157  71.1475849
  70.1180281  54.0715728  72.1181837  71.2533983  54.4982404  73.5296679
  70.9951761  55.4199475  73.5281009  70.7219024  54.1012839  74.2197143
  76.1980172  67.6033191  66.3086764  76.3717050  67.0379614  65.5560617
  76.6909063  68.4034086  66.1266254  62.0157132  59.6147860  74.3750323
  61.4710600  60.3907668  74.5070597  62.8936482  59.9618665  74.2169444
  68.8044749  52.9459444  66.7531121  68.9260660  52.0176090  66.9522009
  68.5146791  52.9598130  65.8409437  71.6735939  50.6314355  69.8897841
  71.6957636  50.6953688  68.9349821  72.0903998  49.7918863  70.0838347
  82.0519563  60.3669614  67.9277064  82.4950709  59.6176939  67.5296187
  81.1746074  60.3579750  67.5450796  77.1855345  66.9199956  63.4083662
  77.8806249  67.5406648  63.6270977  77.5278495  66.0695307  63.6836040
  62.8023154  58.7417757  77.2680480  62.0604890  58.8900392  77.8545110
  62.4815898  59.0026022  76.4047229  79.0846768  64.3699661  64.9370993
  79.6098092  64.7086934  64.2120313  78.9969120  63.4346676  64.7534128
  70.7687428  70.4371644  69.2966246  70.3292419  69.9448023  69.9899103
  71.5195545  69.8944612  69.0558322  63.2479767  66.6283185  69.2990874
  64.0737787  66.3286957  68.9189518  62.8973819  65.8590808  69.7480663
  68.2161301  65.9809653  71.3688548  67.5941310  65.3180359  71.0690776
  68.8866167  66.0070785  70.6862196  61.4488372  64.5469512  70.2579808
  60.6120281  64.1191686  70.0763809  61.4212018  64.7401955  71.1950599
  68.2885828  54.4591442  80.9621054  68.3373984  55.3353564  80.5798824
  68.8308342  53.9168835  80.3892697  67.7774807  64.5313577  64.8447009
  67.9262928  65.2149041  64.1913681  68.5841251  64.5118667  65.3596464
  70.5185116  55.2122814  77.7167413  69.6488426  55.5056380  77.4450001
  70.7544597  55.7963259  78.4374676  81.5952428  61.8374852  70.3199511
  82.4299319  62.2764656  70.4837072  81.7311557  61.3613506  69.5007757
  65.5327440  60.5578754  65.8508078  65.2873482  59.6541084  66.0488288
  65.7023355  60.5595905  64.9087556  73.2224150  51.4302431  75.2332833
  73.7406094  52.1663458  74.9079322  72.8679283  51.7366424  76.0679592
  64.8023088  56.2907112  63.3494239  64.1092333  56.3651467  62.6934275
  64.5574840  55.5267456  63.8715756  73.4736744  47.8502713  70.7533730
  73.7538498  47.1825902  71.3794156  74.2587351  48.0431809  70.2408394
  71.2770213  67.0261707  62.3158756  70.7044180  67.6451894  61.8629228
  71.8503007  67.5761069  62.8498678  77.3445603  56.2720347  74.5005305
  78.2963026  56.3718445  74.5217529  77.1749053  55.4798616  75.0103389
  75.3659982  53.3575931  74.6864706  74.7709914  53.6380943  73.9911194
  75.0809679  53.8469832  75.4581447  74.4967473  67.3098857  63.4467338
  75.4298146  67.2444419  63.6500214  74.4090686  68.1455124  62.9881871
  77.1255489  66.6264728  60.4071286  77.0469121  66.2924591  61.3007044
  77.9465156  67.1186496  60.4062758  79.8233681  59.4926467  73.6147604
  79.7910001  58.5542468  73.8007288  80.4334304  59.5710504  72.8813429
  79.9728169  56.2837510  73.6605888  79.4567218  55.4995967  73.4735817
  80.8568118  55.9556227  73.8252407  77.6338896  50.0278526  69.6201700
  77.4363717  49.7193614  70.5045032  78.2438602  50.7540165  69.7499630
  69.8459929  56.2872496  59.5929694  68.9391384  55.9905609  59.6692407
  70.1235910  55.9902314  58.7263980  60.7637869  57.6078860  70.0428740
  60.4440653  56.7544168  69.7503114  60.2171297  57.8227438  70.7986707
  64.5417777  60.3241301  73.7598247  64.7603786  61.2558409  73.7786280
  64.9543550  59.9649275  74.5453050  71.4621994  50.8309386  65.7473935
  70.6522723  50.4856471  66.1229181  72.1506411  50.5216930  66.3361547
  73.3912543  49.9087433  67.3698232  73.9443581  50.3282886  68.0288255
  73.6282629  48.9823181  67.4121188  68.6158713  53.1459432  59.7341673
  69.4777877  53.4714330  59.9937490  68.8009057  52.3590928  59.2214739
  60.6326129  61.2281771  72.0121862  59.9389600  60.8135724  71.4991816
  61.3799120  61.2702308  71.4155281  76.7691350  52.0187958  66.8776896
  76.1890019  52.6772762  66.4954948  76.5027282  51.1965303  66.4664313
  75.2194916  51.4193016  69.0798216  75.7194694  51.5309550  68.2712535
  75.8630524  51.1154069  69.7199025  62.5462872  61.1600025  69.8887877
  62.5233560  61.2587712  68.9369760  62.8563508  62.0065176  70.2105043
  65.2050249  63.2176180  74.0034491  66.1593503  63.1860122  73.9364423
  65.0062773  62.7566804  74.8184717  65.7949632  61.7877296  76.5705289
  66.6142521  62.2821375  76.5940126  66.0686439  60.8709264  76.5422856
  75.5516228  54.1788048  65.9333244  74.6642083  54.4637699  65.7153439
  75.9670217  54.0181812  65.0860521  78.9030764  54.2034569  69.6487583
  79.6791154  54.6931022  69.9212200  78.1778898  54.6292624  70.1059453
  81.3403323  54.9162189  70.7061524  81.9347813  54.6757925  69.9954832
  81.4129906  54.1969319  71.3335060  63.5600478  68.7595800  71.0204689
  63.4254946  67.9996200  70.4542687  63.1432540  69.4836699  70.5533478
  74.6959441  63.9432723  60.0281264  75.3995291  64.1482726  60.6438920
  73.9722090  64.5109485  60.2930348  75.5257252  59.6942584  66.1483534
  75.4692453  60.1511136  65.3091167  76.0785594  58.9333269  65.9706377
  79.3362057  55.4832316  66.9733654  79.0798992  55.0828952  67.8041862
  78.7114925  56.1976110  66.8483793  83.6474395  58.2228390  69.4804945
  83.0873953  58.2921579  70.2536507  83.0417899  58.0469374  68.7604442
  66.7169604  69.6565117  71.2323132  66.6001988  70.6010549  71.1301822
  65.8962050  69.3538678  71.6208931  76.6046139  64.3815252  62.0779724
  77.4391743  63.9496451  61.8957199  76.4430482  64.2097266  63.0056619
  76.2592031  60.8847366  63.4436064  76.2040835  60.7191637  62.5024508
  75.6338086  61.5923399  63.5998253  61.0484546  56.1215430  77.2697486
  61.6943409  55.6114384  77.7584711  60.8401697  56.8584112  77.8440911
  69.5688156  50.3855475  63.0221382  69.5566826  51.3297315  63.1789653
  70.4611578  50.2025620  62.7280843  69.4977720  69.0624365  71.1089139
  68.5473351  69.0626227  70.9953511  69.8010206  68.3157100  70.5925173
  73.3840276  46.9798251  67.2767319  72.6172672  46.4256738  67.4224001
  73.7950981  47.0520120  68.1381470  65.3882037  53.2683047  81.3672500
  66.2513498  52.9119852  81.5775825  64.8147447  52.9296942  82.0547904
  77.4062122  77.4607913  63.8094916  78.1792998  76.9136900  63.6707792
  77.7587520  78.3252162  64.0209377  79.7428399  73.6200579  61.4413366
  79.9953920  73.0982100  60.6796829  78.8052958  73.4566724  61.5440049
  79.4624688  75.5228685  63.6437741  79.3460946  74.8473588  64.3118825
  79.5726948  75.0361059  62.8269894  81.4461716  70.0128732  62.3445779
  81.6136118  70.8808968  62.7116250  81.2558885  70.1756013  61.4207068
  81.4250937  72.4686389  63.3292445  81.3050562  72.9143440  64.1677926
  80.7303525  72.8171707  62.7705983  75.9142513  72.4059373  67.8826621
  75.1173676  72.5178067  68.4010117  75.6868105  72.7446025  67.0167512
  72.8774512  76.4436276  67.0475612  73.7149734  76.8533285  66.8309320
  73.0552780  75.5035718  67.0175806  84.7738944  74.1111357  62.7359445
  84.2585568  74.8815962  62.9747832  84.5016253  73.4376493  63.3592506
  82.3586055  68.9561058  67.7944683  81.5027652  68.5667908  67.6150322
  82.7713007  69.0353018  66.9344469  84.5625247  71.9838449  64.5619226
  84.2575383  72.2984598  65.4129369  85.5155690  72.0619869  64.6046559
  77.7390407  68.8048339  68.5718792  78.3134159  68.5823520  67.8391985
  78.3261389  68.8737033  69.3247393  78.0659994  70.8352800  62.5914677
  77.2297306  71.1727486  62.9123952  77.9264764  70.7001779  61.6541814
  80.0413075  65.6789587  67.2993861  79.3877487  65.3638605  66.6750476
  79.9993549  65.0565328  68.0253684  81.1524279  75.9608883  59.2147153
  80.2451341  75.7298136  59.4138302  81.6495311  75.1646502  59.4021135
  82.3312513  76.0621477  63.7371143  81.4223732  75.7780510  63.8343613
  82.3607597  76.4820556  62.8774450  86.6076327  63.3796305  69.3304747
  86.9135204  62.5193668  69.0430663  87.3328932  63.9713925  69.1303741
  72.9000683  73.7826992  67.7186345  72.7025083  73.1896352  66.9937412
  72.3447347  73.4779202  68.4362284  82.0288601  77.6030221  61.0759222
  81.5908031  76.8866080  60.6164859  82.7699042  77.8306336  60.5144313
  75.3946909  73.3091025  65.4027297  74.4644497  73.2475481  65.6197260
  75.4904381  72.7866978  64.6063939  75.3132458  69.8345838  67.9905539
  75.5739275  70.7491172  67.8814700  76.1349630  69.3670281  68.1402152
  86.1499828  76.4614603  60.6691279  85.5328999  75.7361431  60.5724332
  85.6816317  77.2223963  60.3258354  77.9398374  70.6800027  59.7912584
  77.0627841  70.5588828  59.4274830  78.4156127  69.8886105  59.5391472
  72.6677068  72.2741882  65.2325489  72.9630509  71.3652561  65.1792543
  71.7665104  72.2529622  64.9106492  74.3964910  69.9555980  65.3564814
  74.0677616  69.0753359  65.1739920  74.7504280  69.9003649  66.2441204
  77.5106733  70.2428950  65.7240292  77.8502805  70.7714871  65.0018900
  77.9578853  70.5809356  66.4998859  79.4974880  68.7403571  63.9233585
  80.2183242  69.1184824  63.4197302  78.8740184  69.4592448  64.0268563
  83.6406003  69.4448720  64.8591917  83.8569617  70.3273358  64.5580745
  83.1600070  69.0534934  64.1297559  79.6438503  68.2751362  66.7531121
  79.7654414  67.3468008  66.9522009  79.3540545  68.2890048  65.8409437
  82.5129693  65.9606272  69.8897841  82.5351390  66.0245605  68.9349821
  82.9297752  65.1210781  70.0838347  76.3721195  75.8870672  65.8508078
  76.1267237  74.9833002  66.0488288  76.5417109  75.8887823  64.9087556
  75.6416842  71.6199030  63.3494239  74.9486087  71.6943385  62.6934275
  75.3968594  70.8559373  63.8715756  82.5010766  73.6914438  59.6574809
  83.4469871  73.5620646  59.7263227  82.1225011  72.9529100  60.1344237
  80.6853683  71.6164414  59.5929694  79.7785139  71.3197527  59.6692407
  80.9629664  71.3194232  58.7263980  82.3015749  66.1601304  65.7473935
  81.4916477  65.8148389  66.1229181  82.9900166  65.8508848  66.3361547
  84.2306297  65.2379351  67.3698232  84.7837336  65.6574804  68.0288255
  84.4676384  64.3115099  67.4121188  79.4552468  68.4751349  59.7341673
  80.3171632  68.8006248  59.9937490  79.6402812  67.6882845  59.2214739
  87.6085104  67.3479876  66.8776896  87.0283773  68.0064680  66.4954948
  87.3421037  66.5257220  66.4664313  86.3909982  69.5079966  65.9333244
  85.5035837  69.7929617  65.7153439  86.8063971  69.3473730  65.0860521
  80.4081911  65.7147392  63.0221382  80.3960581  66.6589232  63.1789653
  81.3005333  65.5317538  62.7280843  84.2234030  62.3090169  67.2767319
  83.4566426  61.7548656  67.4224001  84.6344735  62.3812038  68.1381470
  35.8282812   0.9284483  53.7027883  35.7506842   1.8792308  53.7816364
  35.2244456   0.5830355  54.3602810  38.1021181  -3.7133364  52.4233423
  37.9666856  -2.8681828  52.8518271  38.6430994  -3.5114087  51.6599357
  33.3645463  -3.0792170  55.0784101  33.5412092  -2.1574205  54.8905085
  34.1602297  -3.3933751  55.5078481  39.7289658  -3.0909798  66.5533765
  39.2853512  -3.8773419  66.2354670  40.3906871  -2.9030647  65.8877656
  34.4876779  -1.5613996  61.0794444  35.0384204  -1.6896933  60.3071437
  33.6488255  -1.2619107  60.7289336  40.7017342   0.3600842  48.8589146
  40.0279040   0.6632538  49.4674104  41.0883164   1.1629922  48.5094603
  42.6489703  -2.8000984  55.1657436  42.9412677  -2.2395927  54.4469801
  43.1588323  -2.5072423  55.9210595  37.6123328  -2.0220633  56.2550889
  37.5699507  -1.7959787  55.3259421  38.5286027  -2.2557259  56.4036690
  40.5483973  -2.7639509  60.4025219  40.6020996  -2.1948573  61.1702935
  39.6798755  -2.5937624  60.0379256  38.9008557   0.5280514  51.0736225
  39.0760312   0.0568557  51.8881848  38.2141345   1.1546280  51.3017486
  33.4669642   3.6769877  57.8476085  33.7066240   4.3088401  58.5255104
  32.6238839   3.3257917  58.1341444  37.9797504  -0.5151001  60.2517589
  37.9067675   0.2903971  60.7636894  37.5374897  -0.3159035  59.4265611
  37.7687284  -1.2779231  53.7620411  36.9854805  -0.7357551  53.8558635
  38.4680029  -0.7605251  54.1614652  40.4396187  -0.6164167  62.4075748
  41.1524160   0.0183298  62.3351649  39.9486216  -0.5200301  61.5915750
  35.4908101  -2.8669723  63.2281319  36.1917560  -2.2333240  63.3810713
  35.0203216  -2.5254992  62.4676958  40.2516561  -0.2765423  55.1562039
  40.4338955  -1.0943767  55.6189792  41.0749547  -0.0597730  54.7186929
  40.5858726  -1.3497237  52.4177088  41.1146493  -1.8604783  51.8047250
  40.8486946  -1.6654707  53.2822621  31.0875819  -3.3333368  60.1612421
  31.6729256  -4.0789680  60.2940326  30.8900657  -3.0229411  61.0449085
  33.9414474  -0.2982121  55.1774864  33.2724850   0.1864007  54.6938904
  33.8027344  -0.0512900  56.0918242  38.0819743   1.7361623  61.7757522
  38.6338051   1.8993244  62.5406607  38.4225936   2.3266061  61.1037547
  41.2188130  -0.3156402  58.7621204  41.0939270  -1.1166662  58.2532150
  41.8767221   0.1789792  58.2735174  40.2869472  -2.7194665  56.5905107
  40.1394434  -3.6477958  56.7712677  41.1122965  -2.6974575  56.1062182
  43.8903594  -1.8966107  57.6769979  44.8150141  -2.1023245  57.5394430
  43.7218897  -2.1449706  58.5859321  43.6798910  -1.3780439  53.0332071
  43.8535787  -1.9434017  52.2805923  44.1727801  -0.5779544  52.8511561
  38.2285554  -0.6979896  63.7906176  38.5372681  -0.9430749  64.6628876
  39.0261036  -0.4933257  63.3025047  38.2506166   1.4558014  56.0211553
  37.8111156   0.9634393  56.7144410  39.0014283   0.9130982  55.7803628
  30.7298505  -2.3530445  56.0236181  31.5556525  -2.6526673  55.6434825
  30.3792557  -3.1222823  56.4725970  35.6980038  -3.0003977  58.0933855
  35.0760048  -3.6633272  57.7936083  36.3684905  -2.9742845  57.4107502
  28.9307110  -4.4344119  56.9825115  28.0939019  -4.8621944  56.8009116
  28.9030756  -4.2411675  57.9195906  35.2593545  -4.4500054  51.5692315
  35.4081666  -3.7664589  50.9158988  36.0659989  -4.4694964  52.0841771
  38.7588951  -1.9551923  49.0404063  38.1862918  -1.3361736  48.5874535
  39.3321744  -1.4052561  49.5743985  41.9786211  -1.6714773  50.1712645
  42.9116884  -1.7369211  50.3745520  41.8909423  -0.8358506  49.7127178
  32.6868987  -5.7637450  60.7279798  33.6412241  -5.7953508  60.6609729
  32.4881511  -6.2246827  61.5430024  31.0419216  -0.2217831  57.7449996
  30.9073684  -0.9817430  57.1787994  30.6251278   0.5023069  57.2778784
  34.1988342   0.6751486  57.9568438  34.0820726   1.6196919  57.8547128
  33.3780788   0.3725048  58.3454237  35.2242856   1.3279748  61.1724367
  36.1270103   1.3603358  61.4890862  34.9980226   0.3980199  61.1870702
  36.9796458   0.0810735  57.8334445  36.0292089   0.0812596  57.7198818
  37.2828944  -0.6656531  57.3170480  52.7149152   5.9171273  58.8980208
  53.3527561   5.7978020  58.1943548  52.5969994   6.8652117  58.9568160
  49.5238858   5.8698701  58.8341732  49.1857369   5.7539766  57.9462267
  50.3928626   5.4689866  58.8142738  45.3825673   7.7234178  54.8238623
  44.8190539   7.6324114  54.0554911  45.2678069   6.9034082  55.3041116
  50.0058641   7.0233553  64.7927938  49.9947282   6.6286351  63.9208442
  50.1679280   6.2899625  65.3861709  42.9290105   9.2185369  57.6622844
  43.7211397   8.8776194  57.2469143  43.1686756   9.3280344  58.5824997
  50.9625232  11.3905145  50.1353088  50.3113212  11.9759226  49.7487102
  51.7569595  11.9211340  50.1948126  44.8880859   8.4794282  50.5340223
  45.6611735   7.9323269  50.3953098  45.2406258   9.3438532  50.7454684
  46.7265902   9.8070665  63.7407122  46.4355768  10.7116296  63.6253788
  47.3622886   9.8487192  64.4551191  47.6522109   7.1847513  60.3308481
  48.2485681   6.9603536  59.6165444  47.7097080   6.4432259  60.9333929
  47.2247137   4.6386949  48.1658672  47.4772658   4.1168470  47.4042135
  46.2871696   4.4753094  48.2685356  52.2690420   3.6422727  55.9733416
  53.0553509   3.2242150  55.6223833  52.5329124   4.5468819  56.1415064
  52.4400497   9.0795577  50.6722072  51.8046330   9.1530204  51.3842977
  52.1097904   9.6689176  49.9941152  57.6698847   3.5797960  56.8766394
  58.4024019   3.0097177  57.1104224  56.9138203   3.1919561  57.3172900
  46.9443426   6.5415054  50.3683047  46.8279684   5.8659958  51.0364132
  47.0545686   6.0547428  49.5515200  49.2874967   6.0025202  54.0729737
  48.9233174   5.4755823  54.7842658  50.1442083   5.6123671  53.8996222
  48.9280454   1.0315101  49.0691085  49.0954856   1.8995338  49.4361556
  48.7377623   1.1942383  48.1452374  51.6855787   9.4932080  60.7356916
  51.3856510  10.3957119  60.6272723  51.3406847   9.2264263  61.5878068
  45.1368268   5.9445877  56.7693620  44.2118765   5.8122091  56.9771312
  45.3852682   6.7240096  57.2663562  55.0852931   2.0114620  58.4154353
  54.1769808   1.9430029  58.1213114  55.0340527   2.4886565  59.2436178
  48.9069675   3.4872759  50.0537752  48.7869300   3.9329810  50.8923232
  48.2122263   3.8358076  49.4951290  42.4977080   5.5879151  57.6037409
  42.6269461   5.8413629  58.5176821  41.8174531   6.1806859  57.2842064
  46.6676567  16.2576401  53.7027883  46.5900597  17.2084226  53.7816364
  46.0638210  15.9122273  54.3602810  49.1593797   3.4304266  66.3589250
  48.3827131   3.9898186  66.3492115  49.7984360   3.9161049  66.8804120
  54.6054741   3.9594232  50.8818086  55.5172597   4.1921619  50.7065784
  54.0964388   4.5431276  50.3193165  47.4140169   6.2389719  65.9207217
  48.1554853   6.7774763  65.6442041  46.7077154   6.8656008  66.0778769
  52.8895509   8.3818860  64.5179379  53.2978865   7.9401270  63.7734011
  52.1672770   7.8071487  64.7713571  49.2426579   3.3191467  61.8912936
  50.0887774   3.7430880  62.0347585  49.1825216   2.6625091  62.5851499
  53.2124323   8.9420050  58.2731667  52.5833186   9.1065765  57.5707735
  52.8249985   9.3561660  59.0442632  57.0913555   9.8774488  55.6276031
  56.4064593  10.2573390  55.0773065  57.1757404  10.4869815  56.3607979
  52.3926024   0.9795835  63.5494109  52.1486956   1.7337895  63.0128385
  52.6685954   1.3581183  64.3841356  54.3464487   7.5234447  62.2271375
  54.5581382   8.1666207  61.5505756  54.2994235   6.6896764  61.7593305
  48.7652285   8.6794458  55.5381753  49.2290631   8.9582161  54.7486375
  48.5009083   7.7777903  55.3554843  45.6576366   8.2265940  58.4761516
  46.2277723   8.6553208  57.8379000  46.2484478   7.9448525  59.1745701
  47.7021171   4.8017611  52.3471318  48.4045214   5.2538655  52.8145244
  47.3701800   4.1601430  52.9751211  46.1501533   3.3929367  66.7222527
  45.5200193   4.0745648  66.9557924  46.0437621   3.2812449  65.7775665
  41.4446505   3.0601164  57.6488451  40.6545559   3.3158692  57.1728562
  41.9357752   3.8749501  57.7540492  55.4610315  10.4006403  60.3993732
  56.2827758   9.9986590  60.1176414  55.4572717  10.2974637  61.3509848
  43.3961250   3.4245743  54.6071928  42.5992414   3.5364437  55.1255424
  43.1686843   3.7632395  53.7412819  49.2266918   9.9490446  62.5554443
  49.2911351  10.4110853  63.3912614  48.5177842   9.3187811  62.6836752
  39.7284208   3.3131654  60.0803442  39.9792246   4.1978664  60.3461018
  40.2643756   3.1336255  59.3078534  63.5516308   6.7445151  56.7478704
  62.7980016   6.1752549  56.5922708  63.6863849   6.7107816  57.6949338
  48.9414936  11.6158553  52.4233423  48.8060611  12.4610089  52.8518271
  49.4824748  11.8177831  51.6599357  42.3944333   9.1333992  52.9961348
  42.9068854   9.9277242  53.1466913  43.0467046   8.4360282  52.9294949
  44.2039218  12.2499748  55.0784101  44.3805846  13.1717712  54.8905085
  44.9996051  11.9358167  55.5078481  43.4891574   4.2964380  64.9546264
  43.3745090   3.3949637  65.2553363  42.6336092   4.5428076  64.6031081
  50.5683412  12.2382120  66.5533765  50.1247266  11.4518499  66.2354670
  51.2300626  12.4261270  65.8877656  45.3270533  13.7677922  61.0794444
  45.8777958  13.6394985  60.3071437  44.4882009  14.0672811  60.7289336
  52.6664650  12.5184920  64.5815166  52.6483126  13.3393801  64.0895435
  53.5884570  12.3938995  64.8065307  49.1237704  10.0329049  65.4238675
  49.6566041   9.2717338  65.1937983  48.5951785   9.7402701  66.1662829
  40.3593250   7.4622646  53.7720919  41.1968472   7.8719654  53.5554626
  40.5371518   6.5222088  53.7421112  52.2557682   5.1297726  49.4604752
  51.7404305   5.9002331  49.6993139  51.9834990   4.4562863  50.0837813
  49.8404793  -0.0252573  54.5189990  48.9846389  -0.4145722  54.3395629
  50.2531745   0.0539388  53.6589775  57.2291956   7.8830081  51.3957925
  56.4521399   7.5441241  50.9513087  57.9083437   7.8882704  50.7212890
  52.0443985   3.0024819  51.2864533  51.7394121   3.3170968  52.1374676
  52.9974427   3.0806238  51.3291866  50.4890417   9.1615042  52.9357487
  49.9611779   8.4267801  52.6230724  49.9877920   9.9389718  52.6897455
  55.4683263   7.3564062  58.0524533  54.8106937   8.0463324  58.1404662
  56.2723662   7.7460494  58.3958519  45.2209145  -0.1765292  55.2964098
  45.7952897  -0.3990110  54.5637291  45.8080127  -0.1076597  56.0492699
  54.2788722   5.7108435  56.1028475  54.7920604   6.3438427  56.6050184
  54.9289946   5.1109631  55.7371835  45.5478732   1.8539169  49.3159983
  44.7116044   2.1913856  49.6369258  45.4083501   1.7188149  48.3787120
  48.6343017   6.9795252  45.9392460  47.7270079   6.7484506  46.1383609
  49.1314049   6.1832871  46.1266441  51.5411096  15.6892759  48.8589146
  50.8672795  15.9924456  49.4674104  51.9276918  16.4921840  48.5094603
  50.7569553   3.1857891  58.3486815  49.8392114   3.4072838  58.1908503
  51.1729696   3.2604201  57.4898523  51.5404600   4.5849306  53.4789496
  52.2876419   5.0970703  53.1696618  51.8096190   4.2633359  54.3393889
  49.8131251   7.0807847  50.4616450  48.9042470   6.7966880  50.5588920
  49.8426334   7.5006926  49.6019757  55.0450518  10.6914437  54.2307617
  54.5912845   9.8505346  54.2872808  54.4144485  11.3275835  54.5682398
  53.4883457  12.5290933  55.1657436  53.7806432  13.0895990  54.4469801
  53.9982078  12.8219494  55.9210595  40.3819421   4.8013361  54.4431652
  40.1843821   4.2082722  53.7182719  39.8266085   4.4965571  55.1607591
  48.3616145   4.6936468  56.5626245  48.4164754   3.7410304  56.4868722
  47.5507347   4.8495907  57.0467544  49.5107338   8.6216591  47.8004528
  49.0726768   7.9052450  47.3410166  50.2517779   8.8492705  47.2389620
  46.3008505   3.3113527  54.3216624  45.4876370   3.6107698  54.7281816
  46.7967499   2.9169216  55.0391106  48.4517083  13.3071284  56.2550889
  48.4093261  13.5332131  55.3259421  49.3679781  13.0734659  56.4036690
  51.8982716   3.7755352  63.1531518  52.2532104   4.0026825  64.0125984
  52.5454848   4.1073729  62.5308773  57.6280453   6.8973788  53.8580847
  57.4898352   7.0875384  52.9302036  57.2716672   7.6593171  54.3148898
  45.7922579   0.8831883  59.9377859  46.4321959   0.7420642  59.2400822
  44.9600110   0.5966396  59.5616461  57.6549833   8.9650315  58.8692118
  58.0886340   8.8725604  59.7175172  58.3681414   8.9407815  58.2312134
  46.5682883  10.1834313  56.0512851  47.3623482   9.6884633  55.8495426
  45.8574576   9.6552176  55.6880557  51.3877728  12.5652409  60.4025219
  51.4414750  13.1343345  61.1702935  50.5192509  12.7354294  60.0379256
  42.8765647   4.3277395  52.1272604  41.9463235   4.2661851  52.3442566
  42.9723119   3.8053348  51.3309245  42.7951196   0.8532208  54.7150846
  43.0558013   1.7677541  54.6060006  43.6168368   0.3856650  54.8647459
  44.2676121   2.2669965  61.8849670  44.9399175   2.0587327  61.2362319
  43.4405908   2.0692051  61.4454903  58.5165382   9.0074015  61.4025004
  58.7101272   9.9119826  61.6484279  58.4166001   8.5481434  62.2363589
  53.5780491   9.1580758  66.9765884  53.4265997   8.9291310  66.0595968
  53.5685171  10.1151360  66.9897229  50.3465827   6.7312671  61.9612151
  51.2757887   6.8823830  61.7881118  49.9256858   6.8196692  61.1060797
  49.1454159  10.7563335  59.7310689  49.0065245  10.3882120  60.6036627
  48.3568756  11.2710975  59.5594646  49.7402311  15.8572432  51.0736225
  49.9154067  15.3860475  51.8881848  49.0535099  16.4838198  51.3017486
  50.6959374  10.1344938  57.1199526  50.3609207  10.0945708  58.0157176
  50.1963320   9.4689654  56.6469937  44.6703618   5.5412568  62.6452107
  44.5323416   4.8092807  63.2463647  45.5808542   5.4521468  62.3636295
  53.6318566   7.4800972  47.3936586  53.0147737   6.7547800  47.2969639
  53.1635055   8.2410333  47.0503660  47.2985919   5.2532527  62.1335787
  48.0085538   4.6125720  62.0922406  47.2555227   5.5045422  63.0561968
  55.2872698  12.1899881  65.0542366  55.2285244  11.5059101  64.3872949
  55.6892216  12.9318871  64.6022992  46.0114853   2.2397745  63.9531427
  45.4752210   1.7888484  64.6053023  45.4231561   2.3743654  63.2101891
  44.3063397  19.0061795  57.8476085  44.5459995  19.6380319  58.5255104
  43.4632593  18.6549835  58.1341444  45.4217112   1.6986397  46.5157890
  44.5446578   1.5775197  46.1520137  45.8974865   0.9072475  46.2636779
  55.2890105  10.1539465  63.2856346  54.4016884   9.8165386  63.4082745
  55.8588656   9.4222496  63.5225111  36.9419252   6.4863556  56.6099397
  37.6290292   6.1725286  56.0220413  36.7867381   7.3904921  56.3366649
  41.7453974   1.3753753  61.0384421  41.6612163   0.7679422  60.3034831
  40.9236681   1.8662771  61.0393917  48.8191258  14.8140917  60.2517589
  48.7461430  15.6195888  60.7636894  48.3768652  15.0132883  59.4265611
  48.6081038  14.0512687  53.7620411  47.8248560  14.5934367  53.8558635
  49.3073783  14.5686667  54.1614652  59.7707446   5.5647682  58.0472908
  59.7597322   6.4472397  57.6766841  58.9024825   5.2119233  57.8527445
  51.2789942  14.7127751  62.4075748  51.9917914  15.3475216  62.3351649
  50.7879971  14.8091617  61.5915750  53.0007469   8.6179004  53.9793040
  52.0663748   8.7380466  53.8097744  53.1784137   7.7151470  53.7153049
  48.5012657   2.0024699  56.1326301  48.1310444   1.4495740  56.8207206
  48.9971749   1.3982833  55.5801301  56.3880020   4.4596323  54.5143074
  56.8540472   5.2924315  54.4403376  56.8387521   3.9941305  55.2188332
  46.3301855  12.4622194  63.2281319  47.0311315  13.0958677  63.3810713
  45.8596970  12.8036926  62.4676958  54.4556251  10.8040144  51.5129226
  54.7316095  10.6896739  52.4223100  53.5860750  10.4057629  51.4741399
  54.1303141   5.0166802  61.0533869  53.4774592   5.2642709  60.3986322
  54.5083521   4.2030940  60.7196346  51.0910315  15.0526495  55.1562039
  51.2732710  14.2348151  55.6189792  51.9143301  15.2694187  54.7186929
  51.4252481  13.9794680  52.4177088  51.9540247  13.4687135  51.8047250
  51.6880700  13.6637210  53.2822621  50.1790714   5.7586613  67.5399906
  49.5031351   5.6580742  68.2102281  51.0018348   5.6025827  68.0035903
  41.9269574  11.9958549  60.1612421  42.5123010  11.2502237  60.2940326
  41.7294412  12.3062506  61.0449085  44.7808229  15.0309797  55.1774864
  44.1118604  15.5155925  54.6938904  44.6421098  15.2779017  56.0918242
  36.5187228   4.5664150  58.8816865  36.5571328   4.0327740  59.6753983
  36.0127521   4.0399355  58.2627842  48.9213497  17.0653540  61.7757522
  49.4731805  17.2285162  62.5406607  49.2619691  17.6557978  61.1037547
  43.8977991  -0.5871310  62.3779407  43.9619317   0.2743521  61.9656805
  43.8345111  -1.1997308  61.6451765  43.3730263   1.4851823  66.0252441
  44.0002302   1.1028900  66.6389965  42.5158182   1.2666025  66.3908134
  53.7724372  11.8914798  67.6306177  54.3164276  12.5044756  67.1361131
  53.1911216  12.4494376  68.1473190  40.1495806   3.2928252  51.9570796
  40.4449247   2.3838930  51.9037850  39.2483842   3.2715991  51.6351798
  52.0581885  15.0135516  58.7621204  51.9333024  14.2125256  58.2532150
  52.7160976  15.5081709  58.2735174  43.6790053   1.3684248  57.9398345
  42.9576639   1.9820216  57.8005818  44.4683309   1.9042013  57.8614990
  54.1216793  12.8144536  60.3900754  53.1747129  12.6949887  60.3179081
  54.4699566  11.9267034  60.4727016  46.4816366  -1.2961325  64.2138996
  47.0050768  -1.0499029  64.9765306  46.2628700  -0.4641290  63.7942134
  41.8783647   0.9742350  52.0810121  41.5496354   0.0939728  51.8985227
  42.2323018   0.9190018  52.9686510  51.1263226  12.6097252  56.5905107
  50.9788189  11.6813960  56.7712677  51.9516720  12.6317343  56.1062182
  44.9925471   1.2615319  52.4485599  45.3321543   1.7901241  51.7264207
  45.4397591   1.5995725  53.2244165  54.7297348  13.4325811  57.6769979
  55.6543896  13.2268672  57.5394430  54.5612651  13.1842212  58.5859321
  47.6868911  -0.3547630  61.8988667  47.3465732  -1.1539817  62.3009347
  46.9807918  -0.0545919  61.3265500  46.9793618  -0.2410059  50.6478891
  47.7001980   0.1371194  50.1442608  46.3558922   0.4778818  50.7513869
  51.1224741   0.4635090  51.5837224  51.3388355   1.3459728  51.2826052
  50.6418808   0.0721303  50.8542866  45.8623962   3.4220803  58.1607968
  45.7168543   3.7361106  59.0532250  45.3849166   4.0405703  57.6078867
  47.7220345   0.4123351  58.2088858  47.7081914  -0.4835556  57.8721156
  48.4392773   0.4194015  58.8427144  49.5746476   0.8460691  60.2541985
  49.3164253   1.7677762  60.2526316  49.0431516   0.4491126  60.9442450
  54.5192664  13.9511478  53.0332071  54.6929542  13.3857901  52.2805923
  55.0121556  14.7512373  52.8511561  40.3369624   5.9626148  61.0995630
  39.7923092   6.7385955  61.2315904  41.2148974   6.3096952  60.9414751
  60.3732056   6.7147901  54.6522371  60.8163202   5.9655227  54.2541494
  59.4958566   6.7058038  54.2696103  55.5067837  13.2678243  50.1328969
  56.2018741  13.8884936  50.3516284  55.8490987  12.4173594  50.4081347
  41.1235646   5.0896044  63.9925786  40.3817382   5.2378679  64.5790417
  40.8028390   5.3504309  63.1292536  57.4059260  10.7177948  51.6616300
  57.9310584  11.0565221  50.9365620  57.3181612   9.7824964  51.4779434
  49.0679309  14.6312022  63.7906176  49.3766435  14.3861169  64.6628876
  49.8654791  14.8358660  63.3025047  49.0899921  16.7849932  56.0211553
  48.6504911  16.2926310  56.7144410  49.8408038  16.2422899  55.7803628
  41.5692260  12.9761472  56.0236181  42.3950280  12.6765244  55.6434825
  41.2186312  12.2069095  56.4725970  46.5373793  12.3287941  58.0933855
  45.9153802  11.6658646  57.7936083  47.2078660  12.3549073  57.4107502
  39.7700865  10.8947799  56.9825115  38.9332773  10.4669973  56.8009116
  39.7424510  11.0880242  57.9195906  46.6098320   0.8069729  67.6866361
  46.6586476   1.6831852  67.3044130  47.1520835   0.2647122  67.1138004
  57.0953166  11.3510852  66.9667498  56.3048710  11.3334991  66.4271997
  56.8586521  11.8899146  67.7216534  57.2151041   8.2003318  64.2800226
  57.2649046   8.0353326  65.2215749  57.1064964   7.3330577  63.8898107
  46.0987300  10.8791864  51.5692315  46.2475420  11.5627328  50.9158988
  46.9053743  10.8596954  52.0841771  54.5054803   4.1834246  65.5959533
  55.4064666   4.0440711  65.3043531  54.5802778   4.3488701  66.5357710
  48.8397609   1.5601101  64.4412719  47.9700918   1.8534667  64.1695308
  49.0757089   2.1441546  65.1619983  58.7169238  10.6200260  64.5242248
  58.4254046  10.9830240  65.3605709  58.1041369   9.9067268  64.3455580
  59.9164920   8.1853140  57.0444818  60.7511812   8.6242944  57.2082378
  60.0524049   7.7091793  56.2253064  56.9656426   5.7432875  62.9922306
  57.4410548   5.9360521  62.1841157  56.0421992   5.7992060  62.7465690
  43.8539933   6.9057042  52.5753384  43.6085975   6.0019372  52.7733594
  44.0235847   6.9074192  51.6332862  43.1235580   2.6385399  50.0739546
  42.4304825   2.7129754  49.4179582  42.8787332   1.8745743  50.5961063
  49.5982705  13.3739994  49.0404063  49.0256672  13.9930182  48.5874535
  50.1715499  13.9239356  49.5743985  55.6658095   2.6198635  61.2250611
  56.6175518   2.7196732  61.2462836  55.4961546   1.8276903  61.7348696
  52.8179965  13.6577145  50.1712645  53.7510638  13.5922706  50.3745520
  52.7303178  14.4933411  49.7127178  55.4467982  12.9743015  47.1316593
  55.3681613  12.6402879  48.0252350  56.2677649  13.4664783  47.1308065
  58.1446173   5.8404754  60.3392911  58.1122493   4.9020755  60.5252595
  58.7546797   5.9188791  59.6058736  49.9829504   4.7100807  46.3820115
  50.9288609   4.5807015  46.4508533  49.6043749   3.9715469  46.8589543
  63.9622723   6.9020761  59.4798948  64.6926111   6.6406049  60.0406651
  63.3529668   6.1649483  59.5201016  62.0438020   5.0428624  60.0773399
  61.3171183   4.9084589  59.4689891  61.6285307   5.3505452  60.8830117
  49.8668196   8.7618553  67.8420772  50.7871206   8.9397152  68.0360819
  49.8317779   7.8174599  67.6900471  48.1672421   2.6350784  46.3175000
  47.2603876   2.3383896  46.3937714  48.4448402   2.3380602  45.4509287
  39.0850361   3.9557147  56.7674047  38.7653146   3.1022455  56.4748421
  38.5383789   4.1705725  57.5232014  42.8630269   6.6719588  60.4843553
  43.0816279   7.6036696  60.5031587  43.2756043   6.3127562  61.2698357
  47.7358134   2.2452794  69.8746302  47.6354861   3.1947151  69.8058393
  47.5179676   1.9171033  69.0022372  38.9538621   7.5760059  58.7367168
  38.2602093   7.1614011  58.2237123  39.7011612   7.6180595  58.1400587
  47.5989404   5.6749933  68.6911364  47.1156486   6.4750293  68.8975253
  47.6850343   5.6857878  67.7378808  40.8675364   7.5078312  56.6133183
  40.8446052   7.6066000  55.6615066  41.1776000   8.3543463  56.9350349
  43.5262742   9.5654467  60.7279798  44.4805995   9.5338410  60.6609729
  43.3275265   9.1045091  61.5430024  44.1162124   8.1355583  63.2950595
  44.9355013   8.6299662  63.3185433  44.3898932   7.2187552  63.2668163
  41.8812971  15.1074087  57.7449996  41.7467438  14.3474488  57.1787994
  41.4645033  15.8314987  57.2778784  53.0171934  10.2911010  46.7526571
  53.7207784  10.4961013  47.3684226  52.2934582  10.8587772  47.0175654
  53.8469744   6.0420872  52.8728841  53.7904945   6.4989423  52.0336473
  54.3998086   5.2811556  52.6951684  61.9686888   4.5706677  56.2050252
  61.4086446   4.6399866  56.9781814  61.3630391   4.3947661  55.4849748
  45.0382096  16.0043404  57.9568438  44.9214481  16.9488836  57.8547128
  44.2174543  15.7016965  58.3454237  54.9258631  10.7293540  48.8025031
  55.7604235  10.2974738  48.6202506  54.7642974  10.5575553  49.7301925
  54.5804523   7.2325653  50.1681370  54.5253327   7.0669924  49.2269814
  53.9550578   7.9401686  50.3243560  39.3697038   2.4693717  63.9942792
  40.0155902   1.9592671  64.4830018  39.1614189   3.2062399  64.5686218
  51.8950430   9.5374565  69.4934933  52.7641590   9.7115217  69.1321568
  51.4157182  10.3568982  69.3710662  46.0636611  16.6571666  61.1724367
  46.9663857  16.6895276  61.4890862  45.8373981  15.7272117  61.1870702
  47.8190213  15.4102652  57.8334445  46.8685844  15.4104514  57.7198818
  48.1222699  14.6635387  57.3170480  43.7094529  -0.3838666  68.0917807
  44.5725991  -0.7401861  68.3021131  43.1359940  -0.7224771  68.7793211
  63.5542906  21.2463191  58.8980208  64.1921316  21.1269938  58.1943548
  63.4363749  22.1944035  58.9568160  60.3632612  21.1990619  58.8341732
  60.0251124  21.0831683  57.9462267  61.2322380  20.7981784  58.8142738
  56.2219428  23.0526095  54.8238623  55.6584293  22.9616032  54.0554911
  56.1071823  22.2326000  55.3041116  60.8452395  22.3525471  64.7927938
  60.8341036  21.9578269  63.9208442  61.0073035  21.6191543  65.3861709
  53.7683860  24.5477287  57.6622844  54.5605152  24.2068111  57.2469143
  54.0080510  24.6572262  58.5824997  55.7274614  23.8086200  50.5340223
  56.5005490  23.2615187  50.3953098  56.0800013  24.6730449  50.7454684
  57.5659656  25.1362582  63.7407122  57.2749522  26.0408213  63.6253788
  58.2016641  25.1779110  64.4551191  58.4915863  22.5139431  60.3308481
  59.0879436  22.2895453  59.6165444  58.5490835  21.7724176  60.9333929
  58.0640892  19.9678866  48.1658672  58.3166412  19.4460387  47.4042135
  57.1265451  19.8045012  48.2685356  63.1084174  18.9714645  55.9733416
  63.8947264  18.5534068  55.6223833  63.3722879  19.8760737  56.1415064
  63.2794252  24.4087495  50.6722072  62.6440085  24.4822121  51.3842977
  62.9491658  24.9981094  49.9941152  68.5092602  18.9089878  56.8766394
  69.2417774  18.3389095  57.1104224  67.7531957  18.5211478  57.3172900
  57.7837180  21.8706972  50.3683047  57.6673439  21.1951876  51.0364132
  57.8939440  21.3839346  49.5515200  60.1268721  21.3317119  54.0729737
  59.7626929  20.8047740  54.7842658  60.9835837  20.9415588  53.8996222
  66.0318022  12.6211452  61.3361003  65.7001347  13.4906863  61.1122218
  65.4363635  12.3047736  62.0155033  59.7674208  16.3607019  49.0691085
  59.9348611  17.2287255  49.4361556  59.5771377  16.5234301  48.1452374
  62.5249542  24.8223998  60.7356916  62.2250265  25.7249037  60.6272723
  62.1800601  24.5556181  61.5878068  55.9762023  21.2737795  56.7693620
  55.0512519  21.1414009  56.9771312  56.2246436  22.0532014  57.2663562
  65.9246685  17.3406538  58.4154353  65.0163563  17.2721946  58.1213114
  65.8734281  17.8178483  59.2436178  59.7463429  18.8164676  50.0537752
  59.6263054  19.2621727  50.8923232  59.0516018  19.1649994  49.4951290
  53.3370834  20.9171068  57.6037409  53.4663215  21.1705547  58.5176821
  52.6568285  21.5098776  57.2842064  57.5070321  31.5868318  53.7027883
  57.4294351  32.5376143  53.7816364  56.9031965  31.2414191  54.3602810
  59.9987551  18.7596184  66.3589250  59.2220885  19.3190104  66.3492115
  60.6378114  19.2452967  66.8804120  67.7908332  15.5422976  60.1932227
  67.1482712  15.8355510  59.5472021  67.2863260  15.4275897  60.9985423
  65.4448495  19.2886150  50.8818086  66.3566351  19.5213536  50.7065784
  64.9358142  19.8723194  50.3193165  58.2533923  21.5681637  65.9207217
  58.9948608  22.1066681  65.6442041  57.5470909  22.1947926  66.0778769
  63.7289263  23.7110777  64.5179379  64.1372619  23.2693188  63.7734011
  63.0066525  23.1363405  64.7713571  60.0820333  18.6483384  61.8912936
  60.9281528  19.0722798  62.0347585  60.0218971  17.9917009  62.5851499
  64.0518078  24.2711968  58.2731667  63.4226940  24.4357682  57.5707735
  63.6643740  24.6853578  59.0442632  67.9307310  25.2066406  55.6276031
  67.2458348  25.5865307  55.0773065  68.0151159  25.8161733  56.3607979
  63.2319778  16.3087753  63.5494109  62.9880710  17.0629813  63.0128385
  63.5079709  16.6873100  64.3841356  65.1858241  22.8526365  62.2271375
  65.3975136  23.4958125  61.5505756  65.1387989  22.0188682  61.7593305
  62.7884470  15.4644186  59.1307947  61.9268949  15.7625439  59.4224684
  62.8146905  15.6814584  58.1988980  59.6046040  24.0086376  55.5381753
  60.0684385  24.2874079  54.7486375  59.3402838  23.1069821  55.3554843
  56.4970121  23.5557858  58.4761516  57.0671478  23.9845126  57.8379000
  57.0878232  23.2740442  59.1745701  58.5414926  20.1309529  52.3471318
  59.2438969  20.5830572  52.8145244  58.2095554  19.4893347  52.9751211
  56.9895287  18.7221285  66.7222527  56.3593948  19.4037566  66.9557924
  56.8831375  18.6104367  65.7775665  52.2840260  18.3893081  57.6488451
  51.4939314  18.6450610  57.1728562  52.7751507  19.2041419  57.7540492
  66.3004069  25.7298320  60.3993732  67.1221513  25.3278508  60.1176414
  66.2966472  25.6266555  61.3509848  54.2355005  18.7537660  54.6071928
  53.4386168  18.8656355  55.1255424  54.0080597  19.0924313  53.7412819
  60.0660673  25.2782364  62.5554443  60.1305105  25.7402771  63.3912614
  59.3571596  24.6479729  62.6836752  50.5677963  18.6423572  60.0803442
  50.8186001  19.5270582  60.3461018  51.1037511  18.4628173  59.3078534
  74.3910062  22.0737069  56.7478704  73.6373771  21.5044467  56.5922708
  74.5257603  22.0399733  57.6949338  59.7808690  26.9450471  52.4233423
  59.6454365  27.7902007  52.8518271  60.3218503  27.1469749  51.6599357
  56.2676030  13.0242051  69.0847778  55.8742975  12.4708250  69.7595422
  57.0842170  13.3352629  69.4754296  53.2338088  24.4625909  52.9961348
  53.7462608  25.2569159  53.1466913  53.8860800  23.7652200  52.9294949
  55.0432972  27.5791665  55.0784101  55.2199601  28.5009630  54.8905085
  55.8389806  27.2650085  55.5078481  59.1843991  14.4399930  66.6768035
  59.9253704  15.0407083  66.5972497  59.4161914  13.6977568  66.1186077
  54.3285329  19.6256297  64.9546264  54.2138844  18.7241555  65.2553363
  53.4729847  19.8719994  64.6031081  61.4077167  27.5674038  66.5533765
  60.9641021  26.7810416  66.2354670  62.0694380  27.7553188  65.8877656
  56.1664288  29.0969839  61.0794444  56.7171713  28.9686903  60.3071437
  55.3275764  29.3964728  60.7289336  63.5058405  27.8476838  64.5815166
  63.4876880  28.6685719  64.0895435  64.4278325  27.7230913  64.8065307
  59.9631459  25.3620967  65.4238675  60.4959796  24.6009255  65.1937983
  59.4345540  25.0694619  66.1662829  63.1301154  10.4681033  60.9532316
  62.7865423  11.3582675  60.8771427  63.4980116  10.2782691  60.0901901
  51.1987004  22.7914563  53.7720919  52.0362226  23.2011572  53.5554626
  51.3765272  21.8514006  53.7421112  63.0951437  20.4589644  49.4604752
  62.5798060  21.2294249  49.6993139  62.8228745  19.7854780  50.0837813
  60.6798548  15.3039345  54.5189990  59.8240144  14.9146195  54.3395629
  61.0925499  15.3831306  53.6589775  62.2097694  12.8385688  58.9181550
  61.7062490  12.8015823  58.1049355  62.5028301  13.7478431  58.9778206
  58.4540580  12.9224418  57.9247731  59.3193577  12.7267227  57.5653621
  58.5218089  12.6934770  58.8517088  68.0685711  23.2121999  51.3957925
  67.2915153  22.8733158  50.9513087  68.7477192  23.2174622  50.7212890
  62.8837740  18.3316736  51.2864533  62.5787875  18.6462885  52.1374676
  63.8368182  18.4098156  51.3291866  61.3284172  24.4906960  52.9357487
  60.8005533  23.7559719  52.6230724  60.8271674  25.2681636  52.6897455
  66.3077018  22.6855980  58.0524533  65.6500692  23.3755241  58.1404662
  67.1117417  23.0752412  58.3958519  56.0602899  15.1526626  55.2964098
  56.6346651  14.9301807  54.5637291  56.6473882  15.2215320  56.0492699
  65.1182476  21.0400353  56.1028475  65.6314358  21.6730345  56.6050184
  65.7683700  20.4401548  55.7371835  56.3872486  17.1831087  49.3159983
  55.5509799  17.5205773  49.6369258  56.2477256  17.0480067  48.3787120
  58.3625567  12.0267875  54.0239168  57.7089979  11.7116892  53.3995782
  58.3206041  11.4043615  54.7498991  59.4736772  22.3087170  45.9392460
  58.5663833  22.0776423  46.1383609  59.9707804  21.5124789  46.1266441
  61.5963307  18.5149808  58.3486815  60.6785869  18.7364755  58.1908503
  62.0123451  18.5896119  57.4898523  62.3798355  19.9141224  53.4789496
  63.1270174  20.4262621  53.1696618  62.6489945  19.5925277  54.3393889
  60.6525005  22.4099765  50.4616450  59.7436224  22.1258797  50.5588920
  60.6820089  22.8298843  49.6019757  65.8844273  26.0206354  54.2307617
  65.4306600  25.1797264  54.2872808  65.2538239  26.6567753  54.5682398
  64.8277192  16.9498340  55.4608285  64.0899949  16.4375726  55.7918527
  65.0803966  16.5098722  54.6491562  64.3277212  27.8582851  55.1657436
  64.6200186  28.4187908  54.4469801  64.8375832  28.1511412  55.9210595
  64.9288819   9.7274592  56.0550054  65.2347696   8.8671956  55.7675969
  65.6541424  10.3192212  55.8549048  51.2213176  20.1305279  54.4431652
  51.0237575  19.5374640  53.7182719  50.6659840  19.8257489  55.1607591
  59.2009899  20.0228385  56.5626245  59.2558509  19.0702222  56.4868722
  58.3901101  20.1787824  57.0467544  60.3501093  23.9508508  47.8004528
  59.9120523  23.2344367  47.3410166  61.0911534  24.1784623  47.2389620
  57.1402259  18.6405445  54.3216624  56.3270125  18.9399616  54.7281816
  57.6361253  18.2461134  55.0391106  59.2910837  28.6363202  56.2550889
  59.2487016  28.8624048  55.3259421  60.2073536  28.4026577  56.4036690
  62.7376471  19.1047270  63.1531518  63.0925859  19.3318743  64.0125984
  63.3848602  19.4365646  62.5308773  68.4674208  22.2265705  53.8580847
  68.3292106  22.4167301  52.9302036  68.1110427  22.9885088  54.3148898
  56.6316334  16.2123801  59.9377859  57.2715713  16.0712560  59.2400822
  55.7993864  15.9258314  59.5616461  68.4943587  24.2942232  58.8692118
  68.9280094  24.2017521  59.7175172  69.2075168  24.2699733  58.2312134
  57.4076638  25.5126231  56.0512851  58.2017236  25.0176551  55.8495426
  56.6968330  24.9844094  55.6880557  62.2271482  27.8944327  60.4025219
  62.2808505  28.4635263  61.1702935  61.3586264  28.0646212  60.0379256
  53.7159401  19.6569313  52.1272604  52.7856989  19.5953768  52.3442566
  53.8116873  19.1345265  51.3309245  53.6344950  16.1824126  54.7150846
  53.8951768  17.0969459  54.6060006  54.4562123  15.7148568  54.8647459
  55.1069876  17.5961883  61.8849670  55.7792929  17.3879245  61.2362319
  54.2799662  17.3983969  61.4454903  69.3559137  24.3365933  61.4025004
  69.5495027  25.2411744  61.6484279  69.2559755  23.8773352  62.2363589
  61.0095448  14.2223824  63.9015331  60.3623363  14.9213773  63.8079808
  61.7796463  14.6559968  64.2691579  64.4174246  24.4872676  66.9765884
  64.2659752  24.2583227  66.0595968  64.4078925  25.4443277  66.9897229
  61.1859582  22.0604589  61.9612151  62.1151642  22.2115748  61.7881118
  60.7650612  22.1488609  61.1060797  59.9847914  26.0855253  59.7310689
  59.8458999  25.7174037  60.6036627  59.1962510  26.6002892  59.5594646
  60.5796066  31.1864349  51.0736225  60.7547821  30.7152393  51.8881848
  59.8928854  31.8130116  51.3017486  61.5353129  25.4636856  57.1199526
  61.2002962  25.4237626  58.0157176  61.0357075  24.7981572  56.6469937
  55.5097373  20.8704486  62.6452107  55.3717171  20.1384725  63.2463647
  56.4202296  20.7813386  62.3636295  64.4712321  22.8092890  47.3936586
  63.8541491  22.0839718  47.2969639  64.0028809  23.5702250  47.0503660
  58.1379674  20.5824445  62.1335787  58.8479292  19.9417637  62.0922406
  58.0948982  20.8337340  63.0561968  66.1266452  27.5191798  65.0542366
  66.0678998  26.8351018  64.3872949  66.5285971  28.2610788  64.6022992
  56.8508608  17.5689663  63.9531427  56.3145965  17.1180401  64.6053023
  56.2625316  17.7035572  63.2101891  55.1457151  34.3353712  57.8476085
  55.3853749  34.9672236  58.5255104  54.3026348  33.9841752  58.1341444
  56.2610866  17.0278314  46.5157890  55.3840333  16.9067115  46.1520137
  56.7368620  16.2364393  46.2636779  66.1283859  25.4831382  63.2856346
  65.2410638  25.1457304  63.4082745  66.6982411  24.7514414  63.5225111
  47.7813007  21.8155474  56.6099397  48.4684046  21.5017204  56.0220413
  47.6261135  22.7196839  56.3366649  52.5847729  16.7045671  61.0384421
  52.5005917  16.0971340  60.3034831  51.7630435  17.1954689  61.0393917
  59.6585013  30.1432835  60.2517589  59.5855184  30.9487806  60.7636894
  59.2162406  30.3424800  59.4265611  59.4474793  29.3804605  53.7620411
  58.6642314  29.9226285  53.8558635  60.1467538  29.8978584  54.1614652
  62.7571443  15.1899234  56.4054616  63.2540142  14.4369196  56.0855686
  61.9858424  15.2263551  55.8397825  70.6101200  20.8939600  58.0472908
  70.5991076  21.7764315  57.6766841  69.7418579  20.5411150  57.8527445
  62.1183696  30.0419669  62.4075748  62.8311669  30.6767133  62.3351649
  61.6273725  30.1383535  61.5915750  63.8401223  23.9470921  53.9793040
  62.9057502  24.0672384  53.8097744  64.0177892  23.0443388  53.7153049
  59.3406411  17.3316617  56.1326301  58.9704199  16.7787657  56.8207206
  59.8365504  16.7274751  55.5801301  67.2273775  19.7888241  54.5143074
  67.6934227  20.6216232  54.4403376  67.6781275  19.3233222  55.2188332
  57.1695610  27.7914112  63.2281319  57.8705069  28.4250595  63.3810713
  56.6990725  28.1328844  62.4676958  65.2950006  26.1332062  51.5129226
  65.5709850  26.0188656  52.4223100  64.4254505  25.7349547  51.4741399
  65.1990437  12.1568828  58.5533975  64.2853517  12.3873054  58.7216182
  65.6283539  12.2407272  59.4048007  64.9696896  20.3458720  61.0533869
  64.3168346  20.5934627  60.3986322  65.3477276  19.5322858  60.7196346
  61.9304070  30.3818413  55.1562039  62.1126464  29.5640069  55.6189792
  62.7537056  30.5986105  54.7186929  62.2646235  29.3086598  52.4177088
  62.7934002  28.7979052  51.8047250  62.5274455  28.9929128  53.2822621
  61.0184469  21.0878531  67.5399906  60.3425106  20.9872660  68.2102281
  61.8412103  20.9317744  68.0035903  52.7663328  27.3250467  60.1612421
  53.3516765  26.5794155  60.2940326  52.5688166  27.6354424  61.0449085
  55.6201983  30.3601715  55.1774864  54.9512358  30.8447842  54.6938904
  55.4814853  30.6070935  56.0918242  47.3580983  19.8956067  58.8816865
  47.3965082  19.3619658  59.6753983  46.8521276  19.3691273  58.2627842
  59.7607252  32.3945458  61.7757522  60.3125560  32.5577080  62.5406607
  60.1013445  32.9849896  61.1037547  54.7371745  14.7420608  62.3779407
  54.8013072  15.6035439  61.9656805  54.6738865  14.1294610  61.6451765
  54.2124018  16.8143740  66.0252441  54.8396056  16.4320818  66.6389965
  53.3551936  16.5957942  66.3908134  64.6118126  27.2206716  67.6306177
  65.1558030  27.8336674  67.1361131  64.0304971  27.7786294  68.1473190
  50.9889560  18.6220170  51.9570796  51.2843001  17.7130848  51.9037850
  50.0877596  18.6007909  51.6351798  62.8975639  30.3427434  58.7621204
  62.7726779  29.5417173  58.2532150  63.5554730  30.8373627  58.2735174
  54.5183807  16.6976166  57.9398345  53.7970393  17.3112134  57.8005818
  55.3077063  17.2333931  57.8614990  64.9610547  28.1436454  60.3900754
  64.0140883  28.0241805  60.3179081  65.3093321  27.2558952  60.4727016
  57.3210121  14.0330593  64.2138996  57.8444523  14.2792889  64.9765306
  57.1022454  14.8650627  63.7942134  52.7177402  16.3034267  52.0810121
  52.3890108  15.4231646  51.8985227  53.0716773  16.2481936  52.9686510
  61.9656981  27.9389170  56.5905107  61.8181943  27.0105877  56.7712677
  62.7910474  27.9609261  56.1062182  55.8319225  16.5907237  52.4485599
  56.1715298  17.1193158  51.7264207  56.2791346  16.9287643  53.2244165
  65.5691103  28.7617729  57.6769979  66.4937650  28.5560590  57.5394430
  65.4006406  28.5134130  58.5859321  58.5262666  14.9744288  61.8988667
  58.1859486  14.1752101  62.3009347  57.8201672  15.2745999  61.3265500
  59.1779138  12.0593600  60.3515990  60.0005207  11.5854078  60.2294880
  59.4217201  12.8384084  60.8514676  57.8187372  15.0881859  50.6478891
  58.5395735  15.4663111  50.1442608  57.1952676  15.8070735  50.7513869
  61.9618495  15.7927008  51.5837224  62.1782109  16.6751645  51.2826052
  61.4812562  15.4013221  50.8542866  56.7017716  18.7512721  58.1607968
  56.5562297  19.0653024  59.0532250  56.2242920  19.3697621  57.6078867
  58.5614099  15.7415269  58.2088858  58.5475668  14.8456362  57.8721156
  59.2786527  15.7485933  58.8427144  60.4140230  16.1752609  60.2541985
  60.1558008  17.0969680  60.2526316  59.8825270  15.7783044  60.9442450
  65.3586419  29.2803396  53.0332071  65.5323296  28.7149819  52.2805923
  65.8515310  30.0804291  52.8511561  51.1763379  21.2918065  61.0995630
  50.6316847  22.0677873  61.2315904  52.0542728  21.6388870  60.9414751
  57.9650995  14.6229649  53.4776428  58.0866906  13.6946295  53.6767316
  57.6753038  14.6368335  52.5654744  60.8342186  12.3084559  56.6143148
  60.8563882  12.3723893  55.6595128  61.2510245  11.4689068  56.8083654
  71.2125810  22.0439819  54.6522371  71.6556956  21.2947144  54.2541494
  70.3352320  22.0349955  54.2696103  51.9629400  20.4187961  63.9925786
  51.2211137  20.5670597  64.5790417  51.6422145  20.6796227  63.1292536
  68.2453014  26.0469866  51.6616300  68.7704339  26.3857139  50.9365620
  68.1575367  25.1116881  51.4779434  59.9073063  29.9603940  63.7906176
  60.2160190  29.7153086  64.6628876  60.7048545  30.1650578  63.3025047
  59.9293675  32.1141849  56.0211553  59.4898665  31.6218228  56.7144410
  60.6801792  31.5714817  55.7803628  52.4086014  28.3053390  56.0236181
  53.2344034  28.0057162  55.6434825  52.0580066  27.5361013  56.4725970
  57.3767547  27.6579858  58.0933855  56.7547557  26.9950563  57.7936083
  58.0472414  27.6840990  57.4107502  50.6094619  26.2239717  56.9825115
  49.7726528  25.7961891  56.8009116  50.5818265  26.4172160  57.9195906
  57.4492075  16.1361646  67.6866361  57.4980230  17.0123769  67.3044130
  57.9914589  15.5939039  67.1138004  67.9346921  26.6802770  66.9667498
  67.1442464  26.6626909  66.4271997  67.6980275  27.2191063  67.7216534
  68.0544796  23.5295236  64.2800226  68.1042800  23.3645243  65.2215749
  67.9458719  22.6622495  63.8898107  56.9381054  26.2083782  51.5692315
  57.0869175  26.8919246  50.9158988  57.7447498  26.1888872  52.0841771
  65.3448558  19.5126164  65.5959533  66.2458421  19.3732629  65.3043531
  65.4196532  19.6780619  66.5357710  59.6791363  16.8893019  64.4412719
  58.8094673  17.1826585  64.1695308  59.9150844  17.4733464  65.1619983
  69.5562992  25.9492178  64.5242248  69.2647801  26.3122158  65.3605709
  68.9435124  25.2359186  64.3455580  70.7558675  23.5145057  57.0444818
  71.5905566  23.9534861  57.2082378  70.8917803  23.0383711  56.2253064
  67.8050181  21.0724792  62.9922306  68.2804302  21.2652438  62.1841157
  66.8815746  21.1283978  62.7465690  54.6933687  22.2348959  52.5753384
  54.4479729  21.3311289  52.7733594  54.8629602  22.2366110  51.6332862
  62.3830397  13.1072636  61.9578140  62.9012341  13.8433663  61.6324628
  62.0285530  13.4136629  62.7924899  53.9629335  17.9677317  50.0739546
  53.2698580  18.0421672  49.4179582  53.7181087  17.2037661  50.5961063
  62.6342991   9.5272918  57.4779036  62.9144745   8.8596107  58.1039463
  63.4193598   9.7202014  56.9653700  66.5051850  17.9490552  61.2250611
  67.4569273  18.0488650  61.2462836  66.3355300  17.1568821  61.7348696
  64.5266229  15.0346135  61.4110012  63.9316161  15.3151148  60.7156501
  64.2415926  15.5240036  62.1826753  68.9839927  21.1696672  60.3392911
  68.9516248  20.2312673  60.5252595  69.5940551  21.2480709  59.6058736
  60.8223258  20.0392725  46.3820115  61.7682363  19.9098933  46.4508533
  60.4437503  19.3007387  46.8589543  69.1334416  17.9607715  60.3851194
  68.6173465  17.1766172  60.1981123  70.0174364  17.6326432  60.5497714
  66.7945143  11.7048731  56.3447007  66.5969964  11.3963819  57.2290339
  67.4044848  12.4310370  56.4744937  74.8016477  22.2312679  59.4798948
  75.5319866  21.9697967  60.0406651  74.1923423  21.4941401  59.5201016
  72.8831774  20.3720541  60.0773399  72.1564938  20.2376506  59.4689891
  72.4679061  20.6797370  60.8830117  60.7061951  24.0910471  67.8420772
  61.6264960  24.2689070  68.0360819  60.6711534  23.1466516  67.6900471
  59.0066175  17.9642701  46.3175000  58.0997631  17.6675814  46.3937714
  59.2842156  17.6672519  45.4509287  49.9244116  19.2849065  56.7674047
  49.6046900  18.4314373  56.4748421  49.3777544  19.4997643  57.5232014
  53.7024023  22.0011506  60.4843553  53.9210033  22.9328614  60.5031587
  54.1149797  21.6419480  61.2698357  60.6228241  12.5079591  52.4719242
  59.8128969  12.1626676  52.8474488  61.3112658  12.1987135  53.0606853
  62.5518789  11.5857638  54.0943538  63.1049828  12.0053091  54.7533561
  62.7888876  10.6593386  54.1366494  58.5751889  17.5744711  69.8746302
  58.4748616  18.5239068  69.8058393  58.3573431  17.2462950  69.0022372
  57.7764960  14.8229637  46.4586980  58.6384124  15.1484535  46.7182797
  57.9615304  14.0361132  45.9460045  49.7932376  22.9051976  58.7367168
  49.0995847  22.4905929  58.2237123  50.5405367  22.9472513  58.1400587
  65.9297597  13.6958163  53.6022203  65.3496266  14.3542967  53.2200255
  65.6633529  12.8735508  53.1909620  64.3801163  13.0963221  55.8043523
  64.8800941  13.2079755  54.9957842  65.0236771  12.7924274  56.4444331
  58.4383159  21.0041850  68.6911364  57.9550240  21.8042210  68.8975253
  58.5244098  21.0149795  67.7378808  51.7069118  22.8370230  56.6133183
  51.6839806  22.9357917  55.6615066  52.0169755  23.6835381  56.9350349
  54.3656496  24.8946385  60.7279798  55.3199750  24.8630327  60.6609729
  54.1669020  24.4337009  61.5430024  54.9555878  23.4647501  63.2950595
  55.7748767  23.9591580  63.3185433  55.2292686  22.5479469  63.2668163
  64.7122475  15.8558253  52.6578551  63.8248330  16.1407904  52.4398746
  65.1276464  15.6952017  51.8105828  68.0637011  15.8804774  56.3732890
  68.8397401  16.3701227  56.6457507  67.3385145  16.3062829  56.8304760
  70.5009569  16.5932394  57.4306831  71.0954060  16.3528130  56.7200139
  70.5736153  15.8739524  58.0580367  52.7206725  30.4366005  57.7449996
  52.5861193  29.6766405  57.1787994  52.3038787  31.1606904  57.2778784
  63.8565688  25.6202928  46.7526571  64.5601538  25.8252931  47.3684226
  63.1328337  26.1879690  47.0175654  64.6863498  21.3712789  52.8728841
  64.6298700  21.8281341  52.0336473  65.2391841  20.6103474  52.6951684
  68.4968304  17.1602521  53.6978960  68.2405238  16.7599157  54.5287168
  67.8721172  17.8746315  53.5729100  72.8080642  19.8998594  56.2050252
  72.2480200  19.9691784  56.9781814  72.2024145  19.7239579  55.4849748
  55.8775851  31.3335322  57.9568438  55.7608235  32.2780754  57.8547128
  55.0568297  31.0308883  58.3454237  65.4198278  22.5617571  50.1681370
  65.3647081  22.3961842  49.2269814  64.7944333  23.2693603  50.3243560
  50.2090793  17.7985635  63.9942792  50.8549656  17.2884589  64.4830018
  50.0007944  18.5354317  64.5686218  62.7344185  24.8666482  69.4934933
  63.6035344  25.0407135  69.1321568  62.2550936  25.6860899  69.3710662
  58.7294403  12.0625680  49.7466689  58.7173073  13.0067519  49.9034959
  59.6217825  11.8795825  49.4526150  56.9030365  31.9863583  61.1724367
  57.8057612  32.0187194  61.4890862  56.6767735  31.0564034  61.1870702
  58.6583967  30.7394570  57.8334445  57.7079598  30.7396432  57.7198818
  58.9616453  29.9927305  57.3170480  62.5446523   8.6568456  54.0012625
  61.7778918   8.1026943  54.1469308  62.9557227   8.7290325  54.8626777
  54.5488284  14.9453252  68.0917807  55.4119745  14.5890057  68.3021131
  53.9753694  14.6067147  68.7793211  74.3936660  36.5755108  58.8980208
  75.0315070  36.4561856  58.1943548  74.2757503  37.5235952  58.9568160
  71.2026367  36.5282536  58.8341732  70.8644878  36.4123601  57.9462267
  72.0716135  36.1273702  58.8142738  67.0613182  38.3818013  54.8238623
  66.4978048  38.2907950  54.0554911  66.9465578  37.5617917  55.3041116
  71.6846150  37.6817388  64.7927938  71.6734791  37.2870186  63.9208442
  71.8466789  36.9483461  65.3861709  64.6077614  39.8769204  57.6622844
  65.3998906  39.5360029  57.2469143  64.8474265  39.9864180  58.5824997
  72.6412741  42.0488981  50.1353088  71.9900721  42.6343061  49.7487102
  73.4357104  42.5795176  50.1948126  68.4053411  40.4654500  63.7407122
  68.1143277  41.3700131  63.6253788  69.0410395  40.5071028  64.4551191
  69.3309618  37.8431349  60.3308481  69.9273190  37.6187371  59.6165444
  69.3884589  37.1016094  60.9333929  73.9477929  34.3006562  55.9733416
  74.7341018  33.8825985  55.6223833  74.2116633  35.2052654  56.1415064
  74.1188006  39.7379413  50.6722072  73.4833839  39.8114039  51.3842977
  73.7885413  40.3273011  49.9941152  79.3486356  34.2381795  56.8766394
  80.0811528  33.6681012  57.1104224  78.5925712  33.8503396  57.3172900
  70.9662476  36.6609037  54.0729737  70.6020683  36.1339658  54.7842658
  71.8229592  36.2707506  53.8996222  76.8711776  27.9503370  61.3361003
  76.5395101  28.8198780  61.1122218  76.2757390  27.6339654  62.0155033
  73.3643296  40.1515916  60.7356916  73.0644019  41.0540954  60.6272723
  73.0194356  39.8848099  61.5878068  66.8155777  36.6029712  56.7693620
  65.8906274  36.4705926  56.9771312  67.0640191  37.3823932  57.2663562
  76.7640440  32.6698456  58.4154353  75.8557317  32.6013864  58.1213114
  76.7128036  33.1470401  59.2436178  64.1764589  36.2462986  57.6037409
  64.3056970  36.4997465  58.5176821  63.4962040  36.8390694  57.2842064
  68.3464076  46.9160236  53.7027883  68.2688105  47.8668061  53.7816364
  67.7425719  46.5706108  54.3602810  70.8381306  34.0888101  66.3589250
  70.0614640  34.6482021  66.3492115  71.4771869  34.5744884  66.8804120
  78.6302086  30.8714894  60.1932227  77.9876466  31.1647427  59.5472021
  78.1257015  30.7567814  60.9985423  76.2842250  34.6178067  50.8818086
  77.1960106  34.8505454  50.7065784  75.7751897  35.2015112  50.3193165
  69.0927678  36.8973555  65.9207217  69.8342362  37.4358599  65.6442041
  68.3864663  37.5239843  66.0778769  74.5683018  39.0402695  64.5179379
  74.9766374  38.5985106  63.7734011  73.8460279  38.4655323  64.7713571
  70.9214088  33.9775302  61.8912936  71.7675283  34.4014715  62.0347585
  70.8612725  33.3208926  62.5851499  74.8911832  39.6003886  58.2731667
  74.2620695  39.7649600  57.5707735  74.5037494  40.0145495  59.0442632
  78.7701064  40.5358324  55.6276031  78.0852102  40.9157225  55.0773065
  78.8544913  41.1453650  56.3607979  74.0713533  31.6379670  63.5494109
  73.8274465  32.3921731  63.0128385  74.3473463  32.0165018  64.3841356
  76.0251996  38.1818283  62.2271375  76.2368891  38.8250043  61.5505756
  75.9781744  37.3480599  61.7593305  73.6278225  30.7936103  59.1307947
  72.7662704  31.0917357  59.4224684  73.6540659  31.0106502  58.1988980
  70.4439794  39.3378294  55.5381753  70.9078140  39.6165997  54.7486375
  70.1796592  38.4361738  55.3554843  67.3363875  38.8849775  58.4761516
  67.9065232  39.3137044  57.8379000  67.9271987  38.6032360  59.1745701
  67.8289042  34.0513203  66.7222527  67.1987702  34.7329484  66.9557924
  67.7225130  33.9396284  65.7775665  63.1234014  33.7184999  57.6488451
  62.3333068  33.9742527  57.1728562  63.6145261  34.5333337  57.7540492
  77.1397824  41.0590238  60.3993732  77.9615267  40.6570425  60.1176414
  77.1360226  40.9558472  61.3509848  65.0748759  34.0829578  54.6071928
  64.2779923  34.1948272  55.1255424  64.8474352  34.4216230  53.7412819
  70.9054427  40.6074281  62.5554443  70.9698860  41.0694689  63.3912614
  70.1965351  39.9771646  62.6836752  61.4071717  33.9715489  60.0803442
  61.6579755  34.8562499  60.3461018  61.9431265  33.7920091  59.3078534
  85.2303817  37.4028987  56.7478704  84.4767525  36.8336385  56.5922708
  85.3651358  37.3691651  57.6949338  70.6202445  42.2742389  52.4233423
  70.4848119  43.1193925  52.8518271  71.1612257  42.4761666  51.6599357
  67.1069784  28.3533969  69.0847778  66.7136730  27.8000167  69.7595422
  67.9235925  28.6644547  69.4754296  64.0731842  39.7917827  52.9961348
  64.5856363  40.5861077  53.1466913  64.7254555  39.0944117  52.9294949
  70.0237745  29.7691848  66.6768035  70.7647459  30.3699001  66.5972497
  70.2555668  29.0269486  66.1186077  65.1679083  34.9548215  64.9546264
  65.0532598  34.0533472  65.2553363  64.3123601  35.2011912  64.6031081
  72.2470921  42.8965955  66.5533765  71.8034775  42.1102334  66.2354670
  72.9088135  43.0845106  65.8877656  67.0058042  44.4261757  61.0794444
  67.5565467  44.2978820  60.3071437  66.1669518  44.7256646  60.7289336
  74.3452159  43.1768755  64.5815166  74.3270635  43.9977636  64.0895435
  75.2672079  43.0522830  64.8065307  70.8025213  40.6912885  65.4238675
  71.3353550  39.9301173  65.1937983  70.2739294  40.3986537  66.1662829
  73.9694908  25.7972951  60.9532316  73.6259178  26.6874592  60.8771427
  74.3373871  25.6074608  60.0901901  62.0380759  38.1206481  53.7720919
  62.8755981  38.5303490  53.5554626  62.2159027  37.1805923  53.7421112
  73.9345191  35.7881562  49.4604752  73.4191814  36.5586166  49.6993139
  73.6622499  35.1146698  50.0837813  71.5192302  30.6331263  54.5189990
  70.6633898  30.2438113  54.3395629  71.9319254  30.7123223  53.6589775
  73.0491449  28.1677606  58.9181550  72.5456244  28.1307741  58.1049355
  73.3422056  29.0770349  58.9778206  69.2934335  28.2516336  57.9247731
  70.1587331  28.0559144  57.5653621  69.3611843  28.0226687  58.8517088
  78.9079465  38.5413916  51.3957925  78.1308908  38.2025076  50.9513087
  79.5870946  38.5466540  50.7212890  73.7231494  33.6608654  51.2864533
  73.4181630  33.9754803  52.1374676  74.6761936  33.7390074  51.3291866
  72.1677926  39.8198877  52.9357487  71.6399288  39.0851637  52.6230724
  71.6665429  40.5973554  52.6897455  77.1470772  38.0147898  58.0524533
  76.4894446  38.7047159  58.1404662  77.9511171  38.4044330  58.3958519
  66.8996654  30.4818544  55.2964098  67.4740406  30.2593725  54.5637291
  67.4867636  30.5507238  56.0492699  75.9576231  36.3692270  56.1028475
  76.4708113  37.0022262  56.6050184  76.6077455  35.7693466  55.7371835
  69.2019321  27.3559792  54.0239168  68.5483734  27.0408810  53.3995782
  69.1599795  26.7335533  54.7498991  73.2198605  46.3476595  48.8589146
  72.5460304  46.6508291  49.4674104  73.6064427  47.1505675  48.5094603
  72.4357062  33.8441726  58.3486815  71.5179623  34.0656673  58.1908503
  72.8517205  33.9188036  57.4898523  73.2192109  35.2433142  53.4789496
  73.9663928  35.7554539  53.1696618  73.4883699  34.9217194  54.3393889
  71.4918760  37.7391682  50.4616450  70.5829979  37.4550715  50.5588920
  71.5213843  38.1590761  49.6019757  76.7238027  41.3498272  54.2307617
  76.2700354  40.5089182  54.2872808  76.0931994  41.9859670  54.5682398
  75.6670947  32.2790258  55.4608285  74.9293703  31.7667644  55.7918527
  75.9197720  31.8390639  54.6491562  75.1670966  43.1874769  55.1657436
  75.4593941  43.7479826  54.4469801  75.6769587  43.4803330  55.9210595
  75.7682574  25.0566510  56.0550054  76.0741451  24.1963873  55.7675969
  76.4935179  25.6484130  55.8549048  62.0606930  35.4597196  54.4431652
  61.8631330  34.8666557  53.7182719  61.5053594  35.1549407  55.1607591
  70.0403654  35.3520303  56.5626245  70.0952263  34.3994139  56.4868722
  69.2294856  35.5079742  57.0467544  71.1894847  39.2800426  47.8004528
  70.7514277  38.5636285  47.3410166  71.9305288  39.5076541  47.2389620
  67.9796014  33.9697363  54.3216624  67.1663879  34.2691533  54.7281816
  68.4755008  33.5753051  55.0391106  70.1304591  43.9655120  56.2550889
  70.0880770  44.1915966  55.3259421  71.0467290  43.7318494  56.4036690
  73.5770225  34.4339187  63.1531518  73.9319613  34.6610660  64.0125984
  74.2242357  34.7657564  62.5308773  79.3067962  37.5557623  53.8580847
  79.1685861  37.7459219  52.9302036  78.9504181  38.3177006  54.3148898
  67.4710088  31.5415718  59.9377859  68.1109468  31.4004477  59.2400822
  66.6387619  31.2550232  59.5616461  79.3337342  39.6234150  58.8692118
  79.7673848  39.5309439  59.7175172  80.0468923  39.5991651  58.2312134
  68.2470392  40.8418149  56.0512851  69.0410991  40.3468469  55.8495426
  67.5362085  40.3136012  55.6880557  73.0665237  43.2236244  60.4025219
  73.1202259  43.7927180  61.1702935  72.1980018  43.3938129  60.0379256
  64.4738705  31.5116043  54.7150846  64.7345522  32.4261376  54.6060006
  65.2955877  31.0440486  54.8647459  65.9463630  32.9253800  61.8849670
  66.6186684  32.7171163  61.2362319  65.1193417  32.7275886  61.4454903
  80.1952891  39.6657851  61.4025004  80.3888781  40.5703661  61.6484279
  80.0953510  39.2065270  62.2363589  71.8489202  29.5515741  63.9015331
  71.2017117  30.2505691  63.8079808  72.6190218  29.9851885  64.2691579
  75.2568000  39.8164593  66.9765884  75.1053506  39.5875145  66.0595968
  75.2472680  40.7735195  66.9897229  72.0253336  37.3896506  61.9612151
  72.9545396  37.5407666  61.7881118  71.6044366  37.4780527  61.1060797
  70.8241668  41.4147171  59.7310689  70.6852754  41.0465955  60.6036627
  70.0356264  41.9294810  59.5594646  71.4189820  46.5156267  51.0736225
  71.5941576  46.0444310  51.8881848  70.7322608  47.1422033  51.3017486
  72.3746883  40.7928773  57.1199526  72.0396716  40.7529543  58.0157176
  71.8750829  40.1273489  56.6469937  66.3491127  36.1996403  62.6452107
  66.2110925  35.4676642  63.2463647  67.2596051  36.1105303  62.3636295
  75.3106075  38.1384808  47.3936586  74.6935246  37.4131636  47.2969639
  74.8422564  38.8994168  47.0503660  68.9773428  35.9116363  62.1335787
  69.6873047  35.2709555  62.0922406  68.9342736  36.1629258  63.0561968
  76.9660207  42.8483716  65.0542366  76.9072753  42.1642936  64.3872949
  77.3679725  43.5902706  64.6022992  67.6902362  32.8981581  63.9531427
  67.1539719  32.4472319  64.6053023  67.1019070  33.0327489  63.2101891
  65.9850906  49.6645630  57.8476085  66.2247504  50.2964154  58.5255104
  65.1420102  49.3133670  58.1341444  76.9677614  40.8123300  63.2856346
  76.0804393  40.4749222  63.4082745  77.5376165  40.0806331  63.5225111
  58.6206761  37.1447392  56.6099397  59.3077801  36.8309122  56.0220413
  58.4654890  38.0488756  56.3366649  63.4241483  32.0337588  61.0384421
  63.3399672  31.4263258  60.3034831  62.6024190  32.5246607  61.0393917
  70.4978767  45.4724752  60.2517589  70.4248939  46.2779724  60.7636894
  70.0556160  45.6716718  59.4265611  70.2868547  44.7096522  53.7620411
  69.5036069  45.2518203  53.8558635  70.9861292  45.2270502  54.1614652
  73.5965197  30.5191152  56.4054616  74.0933897  29.7661114  56.0855686
  72.8252179  30.5555468  55.8397825  81.4494955  36.2231517  58.0472908
  81.4384831  37.1056233  57.6766841  80.5812334  35.8703068  57.8527445
  72.9577451  45.3711586  62.4075748  73.6705423  46.0059051  62.3351649
  72.4667480  45.4675452  61.5915750  74.6794978  39.2762839  53.9793040
  73.7451257  39.3964301  53.8097744  74.8571646  38.3735306  53.7153049
  70.1800166  32.6608535  56.1326301  69.8097953  32.1079575  56.8207206
  70.6759258  32.0566668  55.5801301  78.0667529  35.1180158  54.5143074
  78.5327981  35.9508150  54.4403376  78.5175030  34.6525140  55.2188332
  68.0089364  43.1206030  63.2281319  68.7098824  43.7542513  63.3810713
  67.5384479  43.4620761  62.4676958  76.1343760  41.4623980  51.5129226
  76.4103604  41.3480574  52.4223100  75.2648259  41.0641464  51.4741399
  76.0384192  27.4860745  58.5533975  75.1247272  27.7164972  58.7216182
  76.4677293  27.5699189  59.4048007  75.8090650  35.6750637  61.0533869
  75.1562101  35.9226545  60.3986322  76.1871030  34.8614775  60.7196346
  72.7697824  45.7110330  55.1562039  72.9520219  44.8931986  55.6189792
  73.5930810  45.9278023  54.7186929  73.1039990  44.6378516  52.4177088
  73.6327756  44.1270970  51.8047250  73.3668209  44.3221046  53.2822621
  71.8578223  36.4170448  67.5399906  71.1818860  36.3164578  68.2102281
  72.6805857  36.2609662  68.0035903  63.6057082  42.6542385  60.1612421
  64.1910519  41.9086073  60.2940326  63.4081921  42.9646342  61.0449085
  66.4595738  45.6893632  55.1774864  65.7906113  46.1739760  54.6938904
  66.3208607  45.9362853  56.0918242  58.1974737  35.2247985  58.8816865
  58.2358837  34.6911576  59.6753983  57.6915030  34.6983191  58.2627842
  70.6001006  47.7237376  61.7757522  71.1519314  47.8868997  62.5406607
  70.9407200  48.3141814  61.1037547  65.5765500  30.0712526  62.3779407
  65.6406826  30.9327356  61.9656805  65.5132620  29.4586527  61.6451765
  65.0517772  32.1435658  66.0252441  65.6789811  31.7612735  66.6389965
  64.1945691  31.9249860  66.3908134  75.4511881  42.5498633  67.6306177
  75.9951785  43.1628592  67.1361131  74.8698725  43.1078212  68.1473190
  61.8283315  33.9512087  51.9570796  62.1236756  33.0422766  51.9037850
  60.9271351  33.9299827  51.6351798  73.7369394  45.6719351  58.7621204
  73.6120533  44.8709091  58.2532150  74.3948485  46.1665545  58.2735174
  65.3577562  32.0268084  57.9398345  64.6364148  32.6404052  57.8005818
  66.1470818  32.5625849  57.8614990  75.8004302  43.4728371  60.3900754
  74.8534637  43.3533723  60.3179081  76.1487075  42.5850869  60.4727016
  68.1603875  29.3622510  64.2138996  68.6838277  29.6084807  64.9765306
  67.9416209  30.1942545  63.7942134  72.8050735  43.2681088  56.5905107
  72.6575698  42.3397795  56.7712677  73.6304229  43.2901178  56.1062182
  76.4084857  44.0909646  57.6769979  77.3331405  43.8852508  57.5394430
  76.2400160  43.8426047  58.5859321  69.3656420  30.3036205  61.8988667
  69.0253241  29.5044018  62.3009347  68.6595427  30.6037916  61.3265500
  70.0172892  27.3885518  60.3515990  70.8398962  26.9145996  60.2294880
  70.2610956  28.1676002  60.8514676  72.8012250  31.1218925  51.5837224
  73.0175864  32.0043563  51.2826052  72.3206317  30.7305139  50.8542866
  67.5411471  34.0804638  58.1607968  67.3956052  34.3944942  59.0532250
  67.0636675  34.6989539  57.6078867  69.4007854  31.0707186  58.2088858
  69.3869423  30.1748280  57.8721156  70.1180282  31.0777850  58.8427144
  71.2533985  31.5044527  60.2541985  70.9951762  32.4261597  60.2526316
  70.7219025  31.1074961  60.9442450  76.1980173  44.6095314  53.0332071
  76.3717051  44.0441736  52.2805923  76.6909065  45.4096209  52.8511561
  62.0157133  36.6209983  61.0995630  61.4710601  37.3969791  61.2315904
  62.8936483  36.9680787  60.9414751  68.8044750  29.9521567  53.4776428
  68.9260661  29.0238213  53.6767316  68.5146792  29.9660253  52.5654744
  71.6735940  27.6376477  56.6143148  71.6957637  27.7015810  55.6595128
  72.0903999  26.7980986  56.8083654  82.0519564  37.3731737  54.6522371
  82.4950711  36.6239062  54.2541494  81.1746075  37.3641873  54.2696103
  77.1855346  43.9262078  50.1328969  77.8806250  44.5468771  50.3516284
  77.5278496  43.0757429  50.4081347  62.8023155  35.7479879  63.9925786
  62.0604891  35.8962514  64.5790417  62.4815899  36.0088145  63.1292536
  79.0846769  41.3761784  51.6616300  79.6098093  41.7149056  50.9365620
  78.9969121  40.4408799  51.4779434  70.7466818  45.2895857  63.7906176
  71.0553944  45.0445004  64.6628876  71.5442300  45.4942496  63.3025047
  70.7687430  47.4433767  56.0211553  70.3292420  46.9510146  56.7144410
  71.5195547  46.9006735  55.7803628  63.2479769  43.6345308  56.0236181
  64.0737789  43.3349080  55.6434825  62.8973821  42.8652930  56.4725970
  68.2161302  42.9871776  58.0933855  67.5941311  42.3242481  57.7936083
  68.8866169  43.0132908  57.4107502  61.4488374  41.5531634  56.9825115
  60.6120282  41.1253809  56.8009116  61.4212019  41.7464078  57.9195906
  68.2885829  31.4653564  67.6866361  68.3373985  32.3415687  67.3044130
  68.8308344  30.9230957  67.1138004  78.7740675  42.0094687  66.9667498
  77.9836219  41.9918826  66.4271997  78.5374030  42.5482981  67.7216534
  78.8938550  38.8587154  64.2800226  78.9436555  38.6937161  65.2215749
  78.7852473  37.9914413  63.8898107  67.7774809  41.5375699  51.5692315
  67.9262929  42.2211164  50.9158988  68.5841252  41.5180789  52.0841771
  76.1842312  34.8418082  65.5959533  77.0852175  34.7024547  65.3043531
  76.2590287  35.0072537  66.5357710  70.5185118  32.2184937  64.4412719
  69.6488427  32.5118503  64.1695308  70.7544598  32.8025382  65.1619983
  80.3956747  41.2784095  64.5242248  80.1041555  41.6414076  65.3605709
  79.7828878  40.5651104  64.3455580  81.5952429  38.8436975  57.0444818
  82.4299321  39.2826779  57.2082378  81.7311558  38.3675628  56.2253064
  78.6443935  36.4016710  62.9922306  79.1198057  36.5944356  62.1841157
  77.7209500  36.4575896  62.7465690  65.5327442  37.5640877  52.5753384
  65.2873484  36.6603207  52.7733594  65.7023356  37.5658027  51.6332862
  73.2224152  28.4364553  61.9578140  73.7406095  29.1725580  61.6324628
  72.8679284  28.7428547  62.7924899  73.4736746  24.8564836  57.4779036
  73.7538500  24.1888025  58.1039463  74.2587353  25.0493932  56.9653700
  71.2770214  44.0323830  49.0404063  70.7044181  44.6514017  48.5874535
  71.8503008  44.5823192  49.5743985  77.3445604  33.2782470  61.2250611
  78.2963027  33.3780568  61.2462836  77.1749055  32.4860739  61.7348696
  75.3659984  30.3638053  61.4110012  74.7709916  30.6443066  60.7156501
  75.0809680  30.8531954  62.1826753  74.4967474  44.3160980  50.1712645
  75.4298147  44.2506542  50.3745520  74.4090687  45.1517247  49.7127178
  77.1255491  43.6326850  47.1316593  77.0469122  43.2986714  48.0252350
  77.9465158  44.1248618  47.1308065  79.8233682  36.4988590  60.3392911
  79.7910002  35.5604590  60.5252595  80.4334306  36.5772626  59.6058736
  79.9728170  33.2899633  60.3851194  79.4567219  32.5058090  60.1981123
  80.8568119  32.9618350  60.5497714  77.6338897  27.0340649  56.3447007
  77.4363718  26.7255737  57.2290339  78.2438603  27.7602288  56.4744937
  85.6410232  37.5604596  59.4798948  86.3713620  37.2989885  60.0406651
  85.0317177  36.8233318  59.5201016  83.7225529  35.7012459  60.0773399
  82.9958692  35.5668424  59.4689891  83.3072816  36.0089288  60.8830117
  71.5455705  39.4202389  67.8420772  72.4658715  39.5980988  68.0360819
  71.5105288  38.4758434  67.6900471  60.7637870  34.6140982  56.7674047
  60.4440655  33.7606291  56.4748421  60.2171298  34.8289561  57.5232014
  64.5417778  37.3303423  60.4843553  64.7603788  38.2620531  60.5031587
  64.9543552  36.9711398  61.2698357  71.4621996  27.8371509  52.4719242
  70.6522724  27.4918594  52.8474488  72.1506413  27.5279052  53.0606853
  73.3912544  26.9149556  54.0943538  73.9443583  27.3345009  54.7533561
  73.6282630  25.9885304  54.1366494  69.4145643  32.9036629  69.8746302
  69.3142370  33.8530986  69.8058393  69.1967185  32.5754868  69.0022372
  60.6326130  38.2343894  58.7367168  59.9389602  37.8197847  58.2237123
  61.3799121  38.2764430  58.1400587  76.7691351  29.0250081  53.6022203
  76.1890020  29.6834885  53.2200255  76.5027284  28.2027425  53.1909620
  75.2194917  28.4255138  55.8043523  75.7194696  28.5371673  54.9957842
  75.8630525  28.1216191  56.4444331  69.2776913  36.3333768  68.6911364
  68.7943995  37.1334128  68.8975253  69.3637852  36.3441713  67.7378808
  62.5462873  38.1662148  56.6133183  62.5233561  38.2649835  55.6615066
  62.8563509  39.0127298  56.9350349  65.2050251  40.2238303  60.7279798
  66.1593504  40.1922245  60.6609729  65.0062774  39.7628926  61.5430024
  65.7949633  38.7939419  63.2950595  66.6142522  39.2883497  63.3185433
  66.0686441  37.8771387  63.2668163  75.5516229  31.1850171  52.6578551
  74.6642084  31.4699822  52.4398746  75.9670218  31.0243934  51.8105828
  78.9030765  31.2096692  56.3732890  79.6791155  31.6993144  56.6457507
  78.1778899  31.6354746  56.8304760  81.3403324  31.9224311  57.4306831
  81.9347815  31.6820047  56.7200139  81.4129907  31.2031442  58.0580367
  63.5600479  45.7657922  57.7449996  63.4254947  45.0058323  57.1787994
  63.1432542  46.4898822  57.2778784  74.6959442  40.9494846  46.7526571
  75.3995293  41.1544848  47.3684226  73.9722091  41.5171608  47.0175654
  75.5257253  36.7004707  52.8728841  75.4692454  37.1573258  52.0336473
  76.0785595  35.9395392  52.6951684  79.3362059  32.4894439  53.6978960
  79.0798993  32.0891075  54.5287168  78.7114927  33.2038233  53.5729100
  83.6474397  35.2290512  56.2050252  83.0873955  35.2983701  56.9781814
  83.0417900  35.0531497  55.4849748  66.7169605  46.6627239  57.9568438
  66.6001990  47.6072672  57.8547128  65.8962052  46.3600801  58.3454237
  76.6046140  41.3877375  48.8025031  77.4391744  40.9558573  48.6202506
  76.4430483  41.2159389  49.7301925  76.2592032  37.8909488  50.1681370
  76.2040836  37.7253760  49.2269814  75.6338087  38.5985521  50.3243560
  61.0484547  33.1277553  63.9942792  61.6943411  32.6176507  64.4830018
  60.8401698  33.8646234  64.5686218  73.5737939  40.1958400  69.4934933
  74.4429099  40.3699052  69.1321568  73.0944691  41.0152817  69.3710662
  69.5688158  27.3917597  49.7466689  69.5566827  28.3359437  49.9034959
  70.4611579  27.2087743  49.4526150  67.7424119  47.3155501  61.1724367
  68.6451366  47.3479111  61.4890862  67.5161490  46.3855952  61.1870702
  69.4977722  46.0686488  57.8334445  68.5473353  46.0688349  57.7198818
  69.8010208  45.3219222  57.3170480  73.3840277  23.9860374  54.0012625
  72.6172673  23.4318861  54.1469308  73.7950982  24.0582243  54.8626777
  65.3882038  30.2745170  68.0917807  66.2513500  29.9181975  68.3021131
  64.8147449  29.9359065  68.7793211  85.2330415  51.9047026  58.8980208
  85.8708825  51.7853773  58.1943548  85.1151258  52.8527870  58.9568160
  82.0420121  51.8574454  58.8341732  81.7038633  51.7415519  57.9462267
  82.9109889  51.4565619  58.8142738  77.9006937  53.7109931  54.8238623
  77.3371802  53.6199868  54.0554911  77.7859332  52.8909835  55.3041116
  82.5239904  53.0109306  64.7927938  82.5128545  52.6162104  63.9208442
  82.6860544  52.2775378  65.3861709  75.4471369  55.2061122  57.6622844
  76.2392661  54.8651947  57.2469143  75.6868019  55.3156097  58.5824997
  83.4806496  57.3780898  50.1353088  82.8294475  57.9634979  49.7487102
  84.2750858  57.9087093  50.1948126  77.4062123  54.4670035  50.5340223
  78.1792999  53.9199023  50.3953098  77.7587522  55.3314285  50.7454684
  79.2447165  55.7946418  63.7407122  78.9537031  56.6992049  63.6253788
  79.8804150  55.8362945  64.4551191  80.1703372  53.1723266  60.3308481
  80.7666945  52.9479289  59.6165444  80.2278344  52.4308012  60.9333929
  79.7428401  50.6262702  48.1658672  79.9953921  50.1044223  47.4042135
  78.8052960  50.4628847  48.2685356  84.7871683  49.6298480  55.9733416
  85.5734773  49.2117903  55.6223833  85.0510388  50.5344572  56.1415064
  84.9581761  55.0671330  50.6722072  84.3227594  55.1405957  51.3842977
  84.6279167  55.6564929  49.9941152  79.4624689  52.5290807  50.3683047
  79.3460947  51.8535711  51.0364132  79.5726949  52.0423181  49.5515200
  81.8056230  51.9900955  54.0729737  81.4414438  51.4631576  54.7842658
  82.6623346  51.5999424  53.8996222  87.7105531  43.2795287  61.3361003
  87.3788856  44.1490698  61.1122218  87.1151144  42.9631571  62.0155033
  81.4461717  47.0190854  49.0691085  81.6136120  47.8871091  49.4361556
  81.2558886  47.1818136  48.1452374  84.2037050  55.4807833  60.7356916
  83.9037774  56.3832872  60.6272723  83.8588110  55.2140016  61.5878068
  77.6549532  51.9321630  56.7693620  76.7300028  51.7997844  56.9771312
  77.9033945  52.7115849  57.2663562  87.6034194  47.9990373  58.4154353
  86.6951072  47.9305782  58.1213114  87.5521790  48.4762318  59.2436178
  81.4250938  49.4748512  50.0537752  81.3050563  49.9205563  50.8923232
  80.7303527  49.8233829  49.4951290  75.0158343  51.5754904  57.6037409
  75.1450724  51.8289383  58.5176821  74.3355794  52.1682612  57.2842064
  79.1857830  62.2452154  53.7027883  79.1081860  63.1959979  53.7816364
  78.5819474  61.8998026  54.3602810  81.6775060  49.4180019  66.3589250
  80.9008394  49.9773939  66.3492115  82.3165623  49.9036802  66.8804120
  87.1236004  49.9469985  50.8818086  88.0353860  50.1797372  50.7065784
  86.6145651  50.5307029  50.3193165  79.9321432  52.2265472  65.9207217
  80.6736117  52.7650516  65.6442041  79.2258418  52.8531761  66.0778769
  85.4076772  54.3694613  64.5179379  85.8160128  53.9277023  63.7734011
  84.6854034  53.7947240  64.7713571  81.7607842  49.3067220  61.8912936
  82.6069037  49.7306633  62.0347585  81.7006480  48.6500844  62.5851499
  85.7305587  54.9295803  58.2731667  85.1014449  55.0941518  57.5707735
  85.3431249  55.3437413  59.0442632  84.9107287  46.9671588  63.5494109
  84.6668219  47.7213648  63.0128385  85.1867218  47.3456936  64.3841356
  86.8645750  53.5110200  62.2271375  87.0762645  54.1541960  61.5505756
  86.8175498  52.6772517  61.7593305  84.4671979  46.1228021  59.1307947
  83.6056458  46.4209275  59.4224684  84.4934414  46.3398420  58.1988980
  81.2833549  54.6670212  55.5381753  81.7471894  54.9457915  54.7486375
  81.0190347  53.7653656  55.3554843  78.1757630  54.2141693  58.4761516
  78.7458987  54.6428961  57.8379000  78.7665741  53.9324278  59.1745701
  80.2202435  50.7893364  52.3471318  80.9226478  51.2414408  52.8145244
  79.8883063  50.1477183  52.9751211  78.6682796  49.3805121  66.7222527
  78.0381457  50.0621401  66.9557924  78.5618884  49.2688202  65.7775665
  73.9627769  49.0476917  57.6488451  73.1726823  49.3034445  57.1728562
  74.4539016  49.8625254  57.7540492  75.9142514  49.4121496  54.6071928
  75.1173677  49.5240190  55.1255424  75.6868106  49.7508148  53.7412819
  81.7448182  55.9366199  62.5554443  81.8092614  56.3986606  63.3912614
  81.0359105  55.3063564  62.6836752  72.2465472  49.3007407  60.0803442
  72.4973510  50.1854417  60.3461018  72.7825020  49.1212009  59.3078534
  81.4596199  57.6034307  52.4233423  81.3241874  58.4485842  52.8518271
  82.0006012  57.8053584  51.6599357  77.9463539  43.6825886  69.0847778
  77.5530484  43.1292085  69.7595422  78.7629679  43.9936465  69.4754296
  74.9125597  55.1209745  52.9961348  75.4250117  55.9152995  53.1466913
  75.5648309  54.4236035  52.9294949  76.7220481  58.2375501  55.0784101
  76.8987110  59.1593466  54.8905085  77.5177315  57.9233920  55.5078481
  80.8631500  45.0983765  66.6768035  81.6041213  45.6990919  66.5972497
  81.0949423  44.3561403  66.1186077  76.0072838  50.2840133  64.9546264
  75.8926353  49.3825390  65.2553363  75.1517356  50.5303829  64.6031081
  83.0864676  58.2257873  66.5533765  82.6428530  57.4394252  66.2354670
  83.7481889  58.4137024  65.8877656  77.8451797  59.7553675  61.0794444
  78.3959222  59.6270738  60.3071437  77.0063273  60.0548564  60.7289336
  85.1845914  58.5060673  64.5815166  85.1664389  59.3269554  64.0895435
  86.1065834  58.3814748  64.8065307  81.6418968  56.0204802  65.4238675
  82.1747305  55.2593091  65.1937983  81.1133049  55.7278454  66.1662829
  84.8088663  41.1264868  60.9532316  84.4652932  42.0166510  60.8771427
  85.1767625  40.9366526  60.0901901  72.8774513  53.4498399  53.7720919
  73.7149735  53.8595407  53.5554626  73.0552781  52.5097841  53.7421112
  84.7738945  51.1173479  49.4604752  84.2585569  51.8878084  49.6993139
  84.5016254  50.4438616  50.0837813  82.3586057  45.9623180  54.5189990
  81.5027653  45.5730031  54.3395629  82.7713008  46.0415141  53.6589775
  83.8885203  43.4969524  58.9181550  83.3849999  43.4599659  58.1049355
  84.1815810  44.4062266  58.9778206  80.1328089  43.5808253  57.9247731
  80.9981086  43.3851062  57.5653621  80.2005598  43.3518605  58.8517088
  84.5625249  48.9900572  51.2864533  84.2575384  49.3046721  52.1374676
  85.5155691  49.0681991  51.3291866  83.0071681  55.1490795  52.9357487
  82.4793042  54.4143554  52.6230724  82.5059183  55.9265471  52.6897455
  77.7390408  45.8110461  55.2964098  78.3134160  45.5885643  54.5637291
  78.3261391  45.8799156  56.0492699  86.7969985  51.6984188  56.1028475
  87.3101867  52.3314180  56.6050184  87.4471209  51.0985384  55.7371835
  78.0659995  47.8414922  49.3159983  77.2297307  48.1789609  49.6369258
  77.9264765  47.7063902  48.3787120  80.0413076  42.6851710  54.0239168
  79.3877488  42.3700727  53.3995782  79.9993550  42.0627451  54.7498991
  81.1524281  52.9671005  45.9392460  80.2451342  52.7360259  46.1383609
  81.6495313  52.1708624  46.1266441  84.0592360  61.6768512  48.8589146
  83.3854058  61.9800209  49.4674104  84.4458182  62.4797593  48.5094603
  83.2750816  49.1733644  58.3486815  82.3573378  49.3948591  58.1908503
  83.6910960  49.2479954  57.4898523  84.0585864  50.5725059  53.4789496
  84.8057683  51.0846457  53.1696618  84.3277454  50.2509112  54.3393889
  82.3312514  53.0683600  50.4616450  81.4223733  52.7842633  50.5588920
  82.3607598  53.4882679  49.6019757  87.5631782  56.6790190  54.2307617
  87.1094109  55.8381099  54.2872808  86.9325748  57.3151588  54.5682398
  86.5064701  47.6082176  55.4608285  85.7687458  47.0959562  55.7918527
  86.7591475  47.1682557  54.6491562  86.0064721  58.5166686  55.1657436
  86.2987695  59.0771743  54.4469801  86.5163341  58.8095247  55.9210595
  86.6076328  40.3858428  56.0550054  86.9135205  39.5255791  55.7675969
  87.3328933  40.9776048  55.8549048  72.9000685  50.7889114  54.4431652
  72.7025084  50.1958475  53.7182719  72.3447349  50.4841324  55.1607591
  80.8797408  50.6812221  56.5626245  80.9346018  49.7286057  56.4868722
  80.0688610  50.8371660  57.0467544  82.0288602  54.6092344  47.8004528
  81.5908032  53.8928203  47.3410166  82.7699043  54.8368459  47.2389620
  78.8189768  49.2989280  54.3216624  78.0057634  49.5983451  54.7281816
  79.3148762  48.9044969  55.0391106  80.9698346  59.2947037  56.2550889
  80.9274525  59.5207884  55.3259421  81.8861045  59.0610412  56.4036690
  84.4163980  49.7631105  63.1531518  84.7713367  49.9902578  64.0125984
  85.0636111  50.0949482  62.5308773  78.3103843  46.8707636  59.9377859
  78.9503222  46.7296395  59.2400822  77.4781373  46.5842149  59.5616461
  79.0864147  56.1710066  56.0512851  79.8804745  55.6760386  55.8495426
  78.3755839  55.6427929  55.6880557  83.9058991  58.5528162  60.4025219
  83.9596014  59.1219098  61.1702935  83.0373773  58.7230047  60.0379256
  75.3946910  50.3153148  52.1272604  74.4644498  50.2537604  52.3442566
  75.4904382  49.7929101  51.3309245  75.3132459  46.8407961  54.7150846
  75.5739277  47.7553294  54.6060006  76.1349632  46.3732403  54.8647459
  76.7857385  48.2545718  61.8849670  77.4580438  48.0463080  61.2362319
  75.9587171  48.0567804  61.4454903  82.6882957  44.8807659  63.9015331
  82.0410872  45.5797609  63.8079808  83.4583972  45.3143803  64.2691579
  86.0961755  55.1456511  66.9765884  85.9447261  54.9167063  66.0595968
  86.0866434  56.1027113  66.9897229  82.8647091  52.7188424  61.9612151
  83.7939151  52.8699584  61.7881118  82.4438121  52.8072445  61.1060797
  81.6635423  56.7439088  59.7310689  81.5246508  56.3757873  60.6036627
  80.8750019  57.2586728  59.5594646  82.2583575  61.8448185  51.0736225
  82.4335330  61.3736228  51.8881848  81.5716363  62.4713951  51.3017486
  83.2140638  56.1220691  57.1199526  82.8790471  56.0821461  58.0157176
  82.7144584  55.4565407  56.6469937  77.1884882  51.5288321  62.6452107
  77.0504680  50.7968560  63.2463647  78.0989805  51.4397221  62.3636295
  86.1499830  53.4676725  47.3936586  85.5329000  52.7423554  47.2969639
  85.6816318  54.2286086  47.0503660  79.8167183  51.2408280  62.1335787
  80.5266801  50.6001473  62.0922406  79.7736491  51.4921175  63.0561968
  87.8053961  58.1775634  65.0542366  87.7466507  57.4934854  64.3872949
  88.2073480  58.9194624  64.6022992  78.5296117  48.2273498  63.9531427
  77.9933474  47.7764237  64.6053023  77.9412825  48.3619407  63.2101891
  76.8244660  64.9937548  57.8476085  77.0641258  65.6256072  58.5255104
  75.9813856  64.6425588  58.1341444  77.9398375  47.6862150  46.5157890
  77.0627842  47.5650950  46.1520137  78.4156129  46.8948228  46.2636779
  69.4600516  52.4739309  56.6099397  70.1471555  52.1601039  56.0220413
  69.3048644  53.3780674  56.3366649  74.2635238  47.3629506  61.0384421
  74.1793426  46.7555176  60.3034831  73.4417944  47.8538524  61.0393917
  81.3372522  60.8016670  60.2517589  81.2642693  61.6071641  60.7636894
  80.8949915  61.0008636  59.4265611  81.1262301  60.0388440  53.7620411
  80.3429823  60.5810120  53.8558635  81.8255047  60.5562420  54.1614652
  84.4358952  45.8483069  56.4054616  84.9327651  45.0953032  56.0855686
  83.6645933  45.8847386  55.8397825  83.7971205  60.7003504  62.4075748
  84.5099178  61.3350969  62.3351649  83.3061234  60.7967370  61.5915750
  85.5188732  54.6054757  53.9793040  84.5845011  54.7256219  53.8097744
  85.6965401  53.7027223  53.7153049  81.0193920  47.9900452  56.1326301
  80.6491708  47.4371493  56.8207206  81.5153013  47.3858586  55.5801301
  78.8483119  58.4497947  63.2281319  79.5492578  59.0834430  63.3810713
  78.3778234  58.7912679  62.4676958  86.9737515  56.7915897  51.5129226
  87.2497359  56.6772492  52.4223100  86.1042013  56.3933382  51.4741399
  86.8777946  42.8152663  58.5533975  85.9641026  43.0456890  58.7216182
  87.3071048  42.8991107  59.4048007  86.6484405  51.0042555  61.0533869
  85.9955855  51.2518462  60.3986322  87.0264785  50.1906693  60.7196346
  83.6091579  61.0402248  55.1562039  83.7913973  60.2223904  55.6189792
  84.4324565  61.2569940  54.7186929  83.9433744  59.9670433  52.4177088
  84.4721511  59.4562888  51.8047250  84.2061964  59.6512963  53.2822621
  82.6971978  51.7462366  67.5399906  82.0212615  51.6456495  68.2102281
  83.5199612  51.5901580  68.0035903  74.4450837  57.9834303  60.1612421
  75.0304274  57.2377990  60.2940326  74.2475675  58.2938259  61.0449085
  77.2989492  61.0185550  55.1774864  76.6299867  61.5031678  54.6938904
  77.1602362  61.2654770  56.0918242  69.0368492  50.5539903  58.8816865
  69.0752591  50.0203493  59.6753983  68.5308785  50.0275108  58.2627842
  81.4394761  63.0529293  61.7757522  81.9913069  63.2160915  62.5406607
  81.7800954  63.6433731  61.1037547  76.4159254  45.4004443  62.3779407
  76.4800581  46.2619274  61.9656805  76.3526374  44.7878445  61.6451765
  75.8911527  47.4727576  66.0252441  76.5183565  47.0904653  66.6389965
  75.0339445  47.2541778  66.3908134  86.2905635  57.8790551  67.6306177
  86.8345539  58.4920509  67.1361131  85.7092480  58.4370129  68.1473190
  72.6677069  49.2804005  51.9570796  72.9630510  48.3714683  51.9037850
  71.7665105  49.2591744  51.6351798  84.5763148  61.0011269  58.7621204
  84.4514288  60.2001009  58.2532150  85.2342239  61.4957462  58.2735174
  76.1971316  47.3560001  57.9398345  75.4757902  47.9695969  57.8005818
  76.9864572  47.8917766  57.8614990  86.6398056  58.8020289  60.3900754
  85.6928392  58.6825640  60.3179081  86.9880830  57.9142787  60.4727016
  78.9997630  44.6914428  64.2138996  79.5232032  44.9376725  64.9765306
  78.7809963  45.5234463  63.7942134  74.3964911  46.9618103  52.0810121
  74.0677617  46.0815481  51.8985227  74.7504282  46.9065771  52.9686510
  83.6444490  58.5973005  56.5905107  83.4969452  57.6689713  56.7712677
  84.4697983  58.6193096  56.1062182  77.5106734  47.2491072  52.4485599
  77.8502807  47.7776994  51.7264207  77.9578855  47.5871478  53.2244165
  87.2478612  59.4201564  57.6769979  88.1725159  59.2144425  57.5394430
  87.0793915  59.1717965  58.5859321  80.2050175  45.6328123  61.8988667
  79.8646995  44.8335936  62.3009347  79.4989181  45.9329834  61.3265500
  80.8566647  42.7177435  60.3515990  81.6792716  42.2437914  60.2294880
  81.1004710  43.4967919  60.8514676  79.4974881  45.7465694  50.6478891
  80.2183244  46.1246947  50.1442608  78.8740185  46.4654571  50.7513869
  83.6406004  46.4510843  51.5837224  83.8569618  47.3335481  51.2826052
  83.1600071  46.0597056  50.8542866  78.3805225  49.4096556  58.1607968
  78.2349806  49.7236859  59.0532250  77.9030429  50.0281456  57.6078867
  80.2401608  46.3999104  58.2088858  80.2263177  45.5040197  57.8721156
  80.9574036  46.4069768  58.8427144  82.0927739  46.8336444  60.2541985
  81.8345517  47.7553515  60.2526316  81.5612779  46.4366879  60.9442450
  87.0373928  59.9387231  53.0332071  87.2110805  59.3733654  52.2805923
  87.5302819  60.7388126  52.8511561  72.8550888  51.9501901  61.0995630
  72.3104356  52.7261708  61.2315904  73.7330237  52.2972705  60.9414751
  79.6438504  45.2813484  53.4776428  79.7654415  44.3530131  53.6767316
  79.3540547  45.2952170  52.5654744  82.5129695  42.9668395  56.6143148
  82.5351391  43.0307728  55.6595128  82.9297754  42.1272903  56.8083654
  73.6416909  51.0771797  63.9925786  72.8998646  51.2254432  64.5790417
  73.3209654  51.3380062  63.1292536  81.5860572  60.6187775  63.7906176
  81.8947699  60.3736922  64.6628876  82.3836054  60.8234413  63.3025047
  81.6081184  62.7725685  56.0211553  81.1686174  62.2802063  56.7144410
  82.3589301  62.2298652  55.7803628  74.0873523  58.9637226  56.0236181
  74.9131543  58.6640997  55.6434825  73.7367575  58.1944848  56.4725970
  79.0555056  58.3163694  58.0933855  78.4335066  57.6534399  57.7936083
  79.7259923  58.3424826  57.4107502  72.2882128  56.8823552  56.9825115
  71.4514037  56.4545726  56.8009116  72.2605774  57.0755995  57.9195906
  79.1279584  46.7945482  67.6866361  79.1767739  47.6707605  67.3044130
  79.6702098  46.2522875  67.1138004  78.6168563  56.8667617  51.5692315
  78.7656684  57.5503081  50.9158988  79.4235007  56.8472707  52.0841771
  87.0236067  50.1709999  65.5959533  87.9245930  50.0316464  65.3043531
  87.0984041  50.3364454  66.5357710  81.3578872  47.5476854  64.4412719
  80.4882182  47.8410420  64.1695308  81.5938353  48.1317299  65.1619983
  76.3721196  52.8932795  52.5753384  76.1267238  51.9895125  52.7733594
  76.5417111  52.8949945  51.6332862  84.0617906  43.7656471  61.9578140
  84.5799850  44.5017498  61.6324628  83.7073039  44.0720464  62.7924899
  75.6416844  48.6261152  50.0739546  74.9486089  48.7005507  49.4179582
  75.3968596  47.8621496  50.5961063  84.3130500  40.1856754  57.4779036
  84.5932254  39.5179943  58.1039463  85.0981107  40.3785849  56.9653700
  82.1163969  59.3615748  49.0404063  81.5437936  59.9805935  48.5874535
  82.6896762  59.9115109  49.5743985  86.2053738  45.6929971  61.4110012
  85.6103670  45.9734984  60.7156501  85.9203435  46.1823872  62.1826753
  85.3361229  59.6452898  50.1712645  86.2691902  59.5798459  50.3745520
  85.2484441  60.4809165  49.7127178  82.5010767  50.6976560  46.3820115
  83.4469872  50.5682768  46.4508533  82.1225012  49.9591222  46.8589543
  82.3849460  54.7494306  67.8420772  83.3052469  54.9272905  68.0360819
  82.3499043  53.8050352  67.6900471  80.6853684  48.6226537  46.3175000
  79.7785140  48.3259649  46.3937714  80.9629665  48.3256355  45.4509287
  71.6031625  49.9432900  56.7674047  71.2834409  49.0898208  56.4748421
  71.0565053  50.1581478  57.5232014  75.3811532  52.6595341  60.4843553
  75.5997542  53.5912449  60.5031587  75.7937306  52.3003315  61.2698357
  82.3015750  43.1663426  52.4719242  81.4916478  42.8210511  52.8474488
  82.9900167  42.8570970  53.0606853  84.2306298  42.2441473  54.0943538
  84.7837337  42.6636927  54.7533561  84.4676385  41.3177221  54.1366494
  80.2539398  48.2328547  69.8746302  80.1536125  49.1822904  69.8058393
  80.0360940  47.9046786  69.0022372  79.4552469  45.4813472  46.4586980
  80.3171633  45.8068370  46.7182797  79.6402813  44.6944968  45.9460045
  71.4719885  53.5635812  58.7367168  70.7783356  53.1489764  58.2237123
  72.2192876  53.6056348  58.1400587  87.6085105  44.3541998  53.6022203
  87.0283775  45.0126802  53.2200255  87.3421038  43.5319343  53.1909620
  86.0588672  43.7547056  55.8043523  86.5588450  43.8663591  54.9957842
  86.7024280  43.4508109  56.4444331  80.1170668  51.6625686  68.6911364
  79.6337749  52.4626046  68.8975253  80.2031607  51.6733631  67.7378808
  73.3856627  53.4954065  56.6133183  73.3627315  53.5941753  55.6615066
  73.6957264  54.3419216  56.9350349  76.0444005  55.5530220  60.7279798
  76.9987259  55.5214163  60.6609729  75.8456529  55.0920844  61.5430024
  76.6343387  54.1231336  63.2950595  77.4536276  54.6175415  63.3185433
  76.9080195  53.2063305  63.2668163  86.3909984  46.5142089  52.6578551
  85.5035839  46.7991739  52.4398746  86.8063973  46.3535852  51.8105828
  74.3994234  61.0949840  57.7449996  74.2648702  60.3350241  57.1787994
  73.9826296  61.8190740  57.2778784  85.5353197  56.2786763  46.7526571
  86.2389047  56.4836766  47.3684226  84.8115846  56.8463525  47.0175654
  86.3651007  52.0296625  52.8728841  86.3086209  52.4865176  52.0336473
  86.9179350  51.2687309  52.6951684  77.5563360  61.9919157  57.9568438
  77.4395744  62.9364589  57.8547128  76.7355806  61.6892718  58.3454237
  87.4439894  56.7169293  48.8025031  88.2785498  56.2850491  48.6202506
  87.2824237  56.5451306  49.7301925  87.0985787  53.2201406  50.1681370
  87.0434590  53.0545677  49.2269814  86.4731842  53.9277439  50.3243560
  71.8878302  48.4569470  63.9942792  72.5337165  47.9468424  64.4830018
  71.6795453  49.1938152  64.5686218  84.4131694  55.5250318  69.4934933
  85.2822853  55.6990970  69.1321568  83.9338445  56.3444735  69.3710662
  80.4081912  42.7209515  49.7466689  80.3960582  43.6651355  49.9034959
  81.3005334  42.5379660  49.4526150  78.5817874  62.6447419  61.1724367
  79.4845121  62.6771029  61.4890862  78.3555244  61.7147870  61.1870702
  80.3371476  61.3978405  57.8334445  79.3867107  61.3980267  57.7198818
  80.6403962  60.6511140  57.3170480  84.2234031  39.3152292  54.0012625
  83.4566427  38.7610778  54.1469308  84.6344736  39.3874160  54.8626777
  76.2275793  45.6037087  68.0917807  77.0907254  45.2473892  68.3021131
  75.6541203  45.2650982  68.7793211  86.2865123  70.5353040  57.6622844
  87.0786415  70.1943864  57.2469143  86.5261774  70.6448015  58.5824997
  85.8552097  66.9046821  57.6037409  85.9844479  67.1581300  58.5176821
  85.1749549  67.4974529  57.2842064  84.8021523  64.3768834  57.6488451
  84.0120577  64.6326363  57.1728562  85.2932770  65.1917172  57.7540492
  86.7536268  64.7413413  54.6071928  85.9567432  64.8532108  55.1255424
  86.5261861  65.0800066  53.7412819  83.0859226  64.6299325  60.0803442
  83.3367264  65.5146335  60.3461018  83.6218774  64.4503926  59.3078534
  85.7519351  70.4501662  52.9961348  86.2643872  71.2444912  53.1466913
  86.4042064  69.7527953  52.9294949  86.8466592  65.6132050  64.9546264
  86.7320107  64.7117308  65.2553363  85.9911110  65.8595747  64.6031081
  83.7168268  68.7790317  53.7720919  84.5543490  69.1887325  53.5554626
  83.8946536  67.8389759  53.7421112  83.7394439  66.1181032  54.4431652
  83.5418839  65.5250393  53.7182719  83.1841103  65.8133242  55.1607591
  86.2340665  65.6445066  52.1272604  85.3038253  65.5829521  52.3442566
  86.3298137  65.1221019  51.3309245  86.1526214  62.1699879  54.7150846
  86.4133031  63.0845212  54.6060006  86.9743386  61.7024321  54.8647459
  87.6251139  63.5837636  61.8849670  88.2974193  63.3754998  61.2362319
  86.7980926  63.3859722  61.4454903  80.2994270  67.8031227  56.6099397
  80.9865310  67.4892957  56.0220413  80.1442399  68.7072592  56.3366649
  85.1028992  62.6921424  61.0384421  85.0187181  62.0847093  60.3034831
  84.2811699  63.1830442  61.0393917  85.2844591  73.3126220  60.1612421
  85.8698028  72.5669908  60.2940326  85.0869430  73.6230177  61.0449085
  79.8762246  65.8831820  58.8816865  79.9146346  65.3495411  59.6753983
  79.3702539  65.3567026  58.2627842  87.2553009  60.7296361  62.3779407
  87.3194335  61.5911192  61.9656805  87.1920129  60.1170363  61.6451765
  86.7305281  62.8019493  66.0252441  87.3577320  62.4196571  66.6389965
  85.8733200  62.5833695  66.3908134  83.5070824  64.6095923  51.9570796
  83.8024265  63.7006601  51.9037850  82.6058860  64.5883662  51.6351798
  87.0365071  62.6851919  57.9398345  86.3151657  63.2987887  57.8005818
  87.8258327  63.2209684  57.8614990  85.2358665  62.2910020  52.0810121
  84.9071372  61.4107399  51.8985227  85.5898036  62.2357689  52.9686510
  83.6944642  67.2793818  61.0995630  83.1498110  68.0553626  61.2315904
  84.5723992  67.6264623  60.9414751  84.4810664  66.4063714  63.9925786
  83.7392400  66.5546350  64.5790417  84.1603408  66.6671980  63.1292536
  84.9267278  74.2929143  56.0236181  85.7525298  73.9932915  55.6434825
  84.5761330  73.5236766  56.4725970  83.1275883  72.2115470  56.9825115
  82.2907791  71.7837644  56.8009116  83.0999528  72.4047913  57.9195906
  87.2114951  68.2224712  52.5753384  86.9660993  67.3187042  52.7733594
  87.3810865  68.2241863  51.6332862  86.4810598  63.9553070  50.0739546
  85.7879843  64.0297425  49.4179582  86.2362350  63.1913414  50.5961063
  82.4425379  65.2724818  56.7674047  82.1228164  64.4190126  56.4748421
  81.8958807  65.4873396  57.5232014  86.2205287  67.9887259  60.4843553
  86.4391297  68.9204367  60.5031587  86.6331061  67.6295233  61.2698357
  82.3113639  68.8927729  58.7367168  81.6177111  68.4781682  58.2237123
  83.0586630  68.9348266  58.1400587  84.2250382  68.8245983  56.6133183
  84.2021070  68.9233670  55.6615066  84.5351018  69.6711134  56.9350349
  86.8837760  70.8822138  60.7279798  87.8381013  70.8506080  60.6609729
  86.6850283  70.4212762  61.5430024  87.4737142  69.4523254  63.2950595
  88.2930031  69.9467333  63.3185433  87.7473950  68.5355222  63.2668163
  85.2387988  76.4241758  57.7449996  85.1042456  75.6642158  57.1787994
  84.8220051  77.1482657  57.2778784  82.7272056  63.7861388  63.9942792
  83.3730920  63.2760342  64.4830018  82.5189207  64.5230070  64.5686218
  87.0669547  60.9329005  68.0917807  87.9301009  60.5765810  68.3021131
  86.4934958  60.5942900  68.7793211  57.5070323   8.5930441  40.4273190
  57.4294352   9.5438266  40.5061670  56.9031966   8.2476313  41.0848116
  59.7808691   3.9512594  39.1478730  59.6454366   4.7964129  39.5763577
  60.3218504   4.1531871  38.3844663  55.0432974   4.5853788  41.8029408
  55.2199602   5.5071753  41.6150392  55.8389807   4.2712207  42.2323788
  61.4077168   4.5736160  53.2779072  60.9641022   3.7872539  52.9599976
  62.0694381   4.7615311  52.6122962  56.1664289   6.1031962  47.8039750
  56.7171714   5.9749025  47.0316744  55.3275765   6.4026851  47.4534643
  62.3804852   8.0246800  35.5834453  61.7066551   8.3278496  36.1919410
  62.7670674   8.8275880  35.2339910  64.3277213   4.8644973  41.8902742
  64.6200187   5.4250031  41.1715108  64.8375834   5.1573534  42.6455901
  59.2910838   5.6425325  42.9796195  59.2487017   5.8686171  42.0504727
  60.2073537   5.4088699  43.1281996  62.2271484   4.9006449  47.1270526
  62.2808506   5.4697385  47.8948242  61.3586265   5.0708334  46.7624563
  60.5796067   8.1926472  37.7981532  60.7547823   7.7214515  38.6127154
  59.8928855   8.8192238  38.0262792  55.1457152  11.3415835  44.5721392
  55.3853751  11.9734359  45.2500410  54.3026349  10.9903875  44.8586751
  59.6585014   7.1494957  46.9762896  59.5855186   7.9549929  47.4882200
  59.2162407   7.3486923  46.1510917  59.4474794   6.3866727  40.4865717
  58.6642316   6.9288407  40.5803942  60.1467539   6.9040707  40.8859959
  62.1183698   7.0481791  49.1321054  62.8311670   7.6829256  49.0596956
  61.6273726   7.1445657  48.3161056  57.1695611   4.7976235  49.9526625
  57.8705071   5.4312718  50.1056020  56.6990726   5.1390966  49.1922265
  61.9304071   7.3880535  41.8807346  62.1126466   6.5702191  42.3435098
  62.7537057   7.6048228  41.4432236  62.2646237   6.3148720  39.1422394
  62.7934003   5.8041175  38.5292557  62.5274456   5.9991251  40.0067927
  52.7663329   4.3312590  46.8857728  53.3516766   3.5856278  47.0185632
  52.5688168   4.6416546  47.7694392  55.6201984   7.3663837  41.9020170
  54.9512360   7.8509965  41.4184210  55.4814854   7.6133058  42.8163549
  59.7607253   9.4007581  48.5002829  60.3125561   9.5639202  49.2651914
  60.1013447   9.9912019  47.8282854  62.8975640   7.3489556  45.4866511
  62.7726780   6.5479296  44.9777456  63.5554731   7.8435750  44.9980481
  61.9656982   4.9451293  43.3150413  61.8181944   4.0168000  43.4957983
  62.7910476   4.9671383  42.8307488  65.5691104   5.7679851  44.4015286
  66.4937651   5.5622713  44.2639737  65.4006407   5.5196252  45.3104627
  65.3586420   6.2865519  39.7577377  65.5323298   5.7211941  39.0051230
  65.8515311   7.0866414  39.5756867  59.9073064   6.9666062  50.5151483
  60.2160191   6.7215209  51.3874183  60.7048546   7.1712701  50.0270353
  59.9293676   9.1203972  42.7456860  59.4898667   8.6280351  43.4389716
  60.6801793   8.5776940  42.5048935  52.4086015   5.3115513  42.7481488
  53.2344035   5.0119285  42.3680131  52.0580067   4.5423135  43.1971276
  57.3767549   4.6641981  44.8179161  56.7547558   4.0012686  44.5181389
  58.0472415   4.6903113  44.1352809  50.6094620   3.2301839  43.7070421
  49.7726529   2.8024014  43.5254423  50.5818266   3.4234283  44.6441213
  56.9381055   3.2145904  38.2937622  57.0869176   3.8981369  37.6404295
  57.7447499   3.1950994  38.8087078  60.4376461   5.7094035  35.7649369
  59.8650428   6.3284222  35.3119841  61.0109255   6.2593396  36.2989291
  63.6573721   5.9931185  36.8957952  64.5904394   5.9276747  37.0990827
  63.5696934   6.8287452  36.4372484  49.7932377  -0.0885901  45.4612475
  49.0995848  -0.5031948  44.9482429  50.5405368  -0.0465365  44.8645894
  54.3656497   1.9008508  47.4525104  55.3199751   1.8692450  47.3855036
  54.1669021   1.4399131  48.2675330  52.7206726   7.4428127  44.4695302
  52.5861194   6.6828528  43.9033300  52.3038789   8.1669027  44.0024091
  55.8775852   8.3397444  44.6813745  55.7608236   9.2842877  44.5792435
  55.0568298   8.0371006  45.0699544  56.9030366   8.9925706  47.8969673
  57.8057613   9.0249316  48.2136168  56.6767736   8.0626157  47.9116009
  58.6583968   7.7456693  44.5579752  57.7079599   7.7458554  44.4444124
  58.9616454   6.9989427  44.0415786  74.3936662  13.5817231  45.6225514
  75.0315072  13.4623978  44.9188854  74.2757505  14.5298075  45.6813466
  71.2026368  13.5344659  45.5587039  70.8644880  13.4185724  44.6707574
  72.0716136  13.1335824  45.5388045  67.0613184  15.3880135  41.5483930
  66.4978049  15.2970072  40.7800218  66.9465579  14.5680040  42.0286422
  71.6846151  14.6879511  51.5173244  71.6734792  14.2932309  50.6453748
  71.8466791  13.9545583  52.1107016  64.6077616  16.8831327  44.3868150
  65.3998908  16.5422152  43.9714450  64.8474266  16.9926302  45.3070304
  72.6412742  19.0551103  36.8598395  71.9900722  19.6405184  36.4732409
  73.4357105  19.5857298  36.9193432  66.5668370  16.1440240  37.2585529
  67.3399246  15.5969227  37.1198405  66.9193768  17.0084490  37.4699991
  68.4053412  17.4716623  50.4652428  68.1143278  18.3762253  50.3499095
  69.0410397  17.5133150  51.1796498  69.3309619  14.8493471  47.0553788
  69.9273191  14.6249494  46.3410751  69.3884591  14.1078217  47.6579236
  68.9034647  12.3032906  34.8903979  69.1560168  11.7814428  34.1287442
  67.9659207  12.1399052  34.9930663  73.9477930  11.3068685  42.6978722
  74.7341019  10.8888108  42.3469139  74.2116635  12.2114777  42.8660371
  74.1188008  16.7441535  37.3967379  73.4833841  16.8176162  38.1088284
  73.7885414  17.3335134  36.7186458  79.3486357  11.2443918  43.6011701
  80.0811529  10.6743135  43.8349530  78.5925713  10.8565518  44.0418206
  68.6230936  14.2061012  37.0928354  68.5067194  13.5305916  37.7609438
  68.7333196  13.7193386  36.2760507  70.9662477  13.6671160  40.7975043
  70.6020684  13.1401780  41.5087965  71.8229593  13.2769629  40.6241529
  70.6067964   8.6961059  35.7936392  70.7742366   9.5641296  36.1606863
  70.4165133   8.8588341  34.8697681  73.3643297  17.1578038  47.4602222
  73.0644020  18.0603077  47.3518029  73.0194357  16.8910221  48.3123375
  66.8155779  13.6091835  43.4938927  65.8906275  13.4768049  43.7016618
  67.0640192  14.3886054  43.9908869  76.7640441   9.6760578  45.1399659
  75.8557318   9.6075987  44.8458420  76.7128037  10.1532523  45.9681485
  70.5857185  11.1518717  36.7783059  70.4656810  11.5975767  37.6168539
  69.8909773  11.5004034  36.2196597  64.1764590  13.2525109  44.3282716
  64.3056971  13.5059587  45.2422127  63.4962041  13.8452817  44.0087371
  68.3464077  23.9222358  40.4273190  68.2688107  24.8730184  40.5061670
  67.7425721  23.5768231  41.0848116  70.8381307  11.0950224  53.0834557
  70.0614641  11.6544144  53.0737421  71.4771870  11.5807007  53.6049427
  76.2842251  11.6240190  37.6063393  77.1960107  11.8567577  37.4311090
  75.7751898  12.2077234  37.0438471  69.0927679  13.9035677  52.6452524
  69.8342364  14.4420721  52.3687347  68.3864665  14.5301966  52.8024076
  74.5683019  16.0464818  51.2424685  74.9766375  15.6047228  50.4979318
  73.8460280  15.4717445  51.4958878  70.9214089  10.9837424  48.6158242
  71.7675284  11.4076838  48.7592891  70.8612726  10.3271049  49.3096805
  74.8911833  16.6066008  44.9976974  74.2620696  16.7711722  44.2953042
  74.5037496  17.0207618  45.7687938  78.7701065  17.5420446  42.3521338
  78.0852103  17.9219348  41.8018371  78.8544915  18.1515773  43.0853286
  74.0713534   8.6441793  50.2739416  73.8274466   9.3983853  49.7373692
  74.3473465   9.0227140  51.1086663  76.0251997  15.1880405  48.9516681
  76.2368892  15.8312165  48.2751062  75.9781745  14.3542722  48.4838611
  70.4439795  16.3440416  42.2627059  70.9078141  16.6228119  41.4731682
  70.1796593  15.4423861  42.0800150  67.3363876  15.8911898  45.2006822
  67.9065233  16.3199166  44.5624307  67.9271988  15.6094483  45.8991008
  69.3808681  12.4663569  39.0716624  70.0832725  12.9184612  39.5390551
  69.0489310  11.8247388  39.6996517  67.8289043  11.0575325  53.4467834
  67.1987703  11.7391606  53.6803231  67.7225131  10.9458407  52.5020972
  63.1234015  10.7247121  44.3733758  62.3333069  10.9804650  43.8973869
  63.6145263  11.5395459  44.4785798  77.1397825  18.0652361  47.1239039
  77.9615269  17.6632548  46.8421720  77.1360228  17.9620595  48.0755155
  65.0748761  11.0891701  41.3317235  64.2779924  11.2010395  41.8500730
  64.8474353  11.4278353  40.4658125  70.9054428  17.6136404  49.2799749
  70.9698861  18.0756811  50.1157921  70.1965352  16.9833769  49.4082059
  61.4071718  10.9777612  46.8048749  61.6579757  11.8624622  47.0706325
  61.9431267  10.7982213  46.0323841  85.2303818  14.4091109  43.4724010
  84.4767526  13.8398507  43.3168015  85.3651359  14.3753774  44.4194645
  70.6202446  19.2804511  39.1478730  70.4848121  20.1256047  39.5763577
  71.1612258  19.4823789  38.3844663  64.0731843  16.7979949  39.7206655
  64.5856364  17.5923200  39.8712219  64.7254556  16.1006240  39.6540256
  65.8826728  19.9145706  41.8029408  66.0593356  20.8363670  41.6150392
  66.6783562  19.6004125  42.2323788  65.1679085  11.9610338  51.6791571
  65.0532600  11.0595595  51.9798670  64.3123602  12.2074034  51.3276388
  72.2470922  19.9028078  53.2779072  71.8034777  19.1164456  52.9599976
  72.9088136  20.0907228  52.6122962  67.0058044  21.4323880  47.8039750
  67.5565469  21.3040943  47.0316744  66.1669519  21.7318769  47.4534643
  74.3452160  20.1830878  51.3060473  74.3270636  21.0039759  50.8140742
  75.2672080  20.0584953  51.5310614  70.8025215  17.6975007  52.1483981
  71.3353551  16.9363296  51.9183289  70.2739296  17.4048659  52.8908136
  62.0380760  15.1268604  40.4966225  62.8755982  15.5365612  40.2799933
  62.2159028  14.1868046  40.4666419  73.9345192  12.7943684  36.1850058
  73.4191816  13.5648289  36.4238446  73.6622501  12.1208821  36.8083120
  71.5192303   7.6393385  41.2435297  70.6633900   7.2500236  41.0640935
  71.9319255   7.7185346  40.3835082  78.9079466  15.5476039  38.1203232
  78.1308909  15.2087199  37.6758394  79.5870947  15.5528662  37.4458197
  73.7231495  10.6670777  38.0109839  73.4181631  10.9816926  38.8619983
  74.6761938  10.7452196  38.0537172  72.1677927  16.8261000  39.6602793
  71.6399289  16.0913759  39.3476031  71.6665430  17.6035676  39.4142762
  77.1470773  15.0210020  44.7769840  76.4894448  15.7109282  44.8649968
  77.9511173  15.4106452  45.1203826  66.8996655   7.4880666  42.0209405
  67.4740407   7.2655848  41.2882598  67.4867637   7.5569361  42.7738006
  75.9576232  13.3754393  42.8273781  76.4708114  14.0084385  43.3295491
  76.6077456  12.7755589  42.4617141  67.2266242   9.5185127  36.0405290
  66.3903554   9.8559814  36.3614565  67.0871012   9.3834107  35.1032427
  70.3130527  14.6441210  32.6637766  69.4057589  14.4130464  32.8628915
  70.8101559  13.8478829  32.8511748  73.2198606  23.3538717  35.5834453
  72.5460305  23.6570414  36.1919410  73.6064428  24.1567798  35.2339910
  72.4357063  10.8503849  45.0732122  71.5179624  11.0718796  44.9153810
  72.8517207  10.9250159  44.2143829  73.2192111  12.2495264  40.2034802
  73.9663930  12.7616661  39.8941924  73.4883700  11.9279317  41.0639196
  71.4918761  14.7453805  37.1861756  70.5829980  14.4612838  37.2834226
  71.5213845  15.1652884  36.3265063  76.7238028  18.3560394  40.9552924
  76.2700355  17.5151304  41.0118114  76.0931995  18.9921793  41.2927704
  75.1670968  20.1936891  41.8902742  75.4593942  20.7541948  41.1715108
  75.6769588  20.4865452  42.6455901  62.0606931  12.4659319  41.1676959
  61.8631331  11.8728680  40.4428025  61.5053595  12.1611529  41.8852897
  70.0403655  12.3582426  43.2871552  70.0952265  11.4056262  43.2114028
  69.2294857  12.5141865  43.7712850  71.1894849  16.2862549  34.5249835
  70.7514279  15.5698408  34.0655472  71.9305290  16.5138663  33.9634926
  67.9796015  10.9759485  41.0461931  67.1663880  11.2753656  41.4527123
  68.4755009  10.5815174  41.7636413  70.1304593  20.9717242  42.9796195
  70.0880772  21.1978089  42.0504727  71.0467292  20.7380617  43.1281996
  73.5770227  11.4401310  49.8776825  73.9319614  11.6672783  50.7371290
  74.2242358  11.7719687  49.2554080  79.3067963  14.5619746  40.5826154
  79.1685862  14.7521342  39.6547343  78.9504182  15.3239128  41.0394205
  67.4710090   8.5477841  46.6623166  68.1109469   8.4066600  45.9646129
  66.6387620   8.2612354  46.2861768  79.3337343  16.6296273  45.5937425
  79.7673850  16.5371562  46.4420479  80.0468924  16.6053773  44.9557441
  68.2470394  17.8480271  42.7758158  69.0410992  17.3530591  42.5740733
  67.5362086  17.3198134  42.4125864  73.0665238  20.2298367  47.1270526
  73.1202260  20.7989303  47.8948242  72.1980019  20.4000252  46.7624563
  64.5553157  11.9923353  38.8517911  63.6250745  11.9307808  39.0687873
  64.6510629  11.4699306  38.0554552  64.4738706   8.5178166  41.4396152
  64.7345523   9.4323499  41.3305313  65.2955878   8.0502608  41.5892765
  65.9463631   9.9315923  48.6094977  66.6186685   9.7233285  47.9607626
  65.1193418   9.7338009  48.1700209  80.1952893  16.6719973  48.1270310
  80.3888783  17.5765784  48.3729585  80.0953511  16.2127392  48.9608896
  75.2568001  16.8226716  53.7011191  75.1053508  16.5937268  52.7841275
  75.2472681  17.7797317  53.7142536  72.0253338  14.3958629  48.6857458
  72.9545398  14.5469788  48.5126425  71.6044368  14.4842650  47.8306104
  70.8241670  18.4209293  46.4555995  70.6852755  18.0528078  47.3281933
  70.0356266  18.9356933  46.2839953  71.4189821  23.5218390  37.7981532
  71.5941577  23.0506433  38.6127154  70.7322610  24.1484156  38.0262792
  72.3746885  17.7990896  43.8444833  72.0396717  17.7591666  44.7402483
  71.8750830  17.1335612  43.3715243  66.3491129  13.2058526  49.3697414
  66.2110927  12.4738765  49.9708953  67.2596052  13.1167426  49.0881602
  75.3106076  15.1446930  34.1181893  74.6935247  14.4193758  34.0214945
  74.8422565  15.9056291  33.7748967  68.9773429  12.9178485  48.8581094
  69.6873048  12.2771677  48.8167712  68.9342737  13.1691380  49.7807275
  76.9660208  19.8545839  51.7787673  76.9072754  19.1705059  51.1118256
  77.3679726  20.5964829  51.3268299  67.6902363   9.9043703  50.6776733
  67.1539720   9.4534442  51.3298330  67.1019072  10.0389612  49.9347198
  67.1004622   9.3632355  33.2403197  66.2234089   9.2421155  32.8765444
  67.5762375   8.5718433  32.9882086  76.9677615  17.8185423  50.0101653
  76.0804394  17.4811344  50.1328052  77.5376166  17.0868454  50.2470418
  58.6206762  14.1509514  43.3344704  59.3077802  13.8371244  42.7465719
  58.4654891  15.0550879  43.0611955  63.4241485   9.0399711  47.7629728
  63.3399673   8.4325380  47.0280138  62.6024191   9.5308729  47.7639224
  70.4978769  22.4786875  46.9762896  70.4248940  23.2841846  47.4882200
  70.0556162  22.6778841  46.1510917  70.2868548  21.7158645  40.4865717
  69.5036070  22.2580325  40.5803942  70.9861293  22.2332625  40.8859959
  81.4494956  13.2293640  44.7718214  81.4384832  14.1118355  44.4012147
  80.5812335  12.8765191  44.5772751  72.9577452  22.3773709  49.1321054
  73.6705424  23.0121174  49.0596956  72.4667481  22.4737575  48.3161056
  74.6794979  16.2824962  40.7038346  73.7451258  16.4026424  40.5343050
  74.8571648  15.3797428  40.4398356  70.1800167   9.6670657  42.8571607
  69.8097955   9.1141698  43.5452513  70.6759260   9.0628791  42.3046607
  78.0667530  12.1242281  41.2388380  78.5327983  12.9570272  41.1648683
  78.5175031  11.6587262  41.9433639  68.0089366  20.1268152  49.9526625
  68.7098825  20.7604635  50.1056020  67.5384481  20.4682884  49.1922265
  76.1343762  18.4686102  38.2374532  76.4103605  18.3542697  39.1468406
  75.2648260  18.0703587  38.1986705  75.8090652  12.6812760  47.7779176
  75.1562102  12.9288667  47.1231628  76.1871032  11.8676898  47.4441653
  72.7697826  22.7172453  41.8807346  72.9520220  21.8994109  42.3435098
  73.5930812  22.9340145  41.4432236  73.1039991  21.6440638  39.1422394
  73.6327757  21.1333093  38.5292557  73.3668211  21.3283168  40.0067927
  71.8578225  13.4232571  54.2645213  71.1818862  13.3226700  54.9347588
  72.6805859  13.2671785  54.7281210  63.6057084  19.6604507  46.8857728
  64.1910521  18.9148195  47.0185632  63.4081922  19.9708464  47.7694392
  66.4595739  22.6955755  41.9020170  65.7906114  23.1801882  41.4184210
  66.3208609  22.9424975  42.8163549  58.1974738  12.2310108  45.6062171
  58.2358838  11.6973698  46.3999289  57.6915031  11.7045313  44.9873148
  70.6001008  24.7299498  48.5002829  71.1519316  24.8931120  49.2651914
  70.9407201  25.3203936  47.8282854  65.5765501   7.0774648  49.1024713
  65.6406827   7.9389479  48.6902111  65.5132621   6.4648650  48.3697072
  65.0517773   9.1497781  52.7497748  65.6789812   8.7674858  53.3635272
  64.1945692   8.9311983  53.1153440  75.4511882  19.5560756  54.3551483
  75.9951786  20.1690714  53.8606438  74.8698727  20.1140334  54.8718496
  61.8283316  10.9574210  38.6816103  62.1236757  10.0484888  38.6283156
  60.9271352  10.9361949  38.3597105  73.7369395  22.6781474  45.4866511
  73.6120534  21.8771214  44.9777456  74.3948486  23.1727667  44.9980481
  65.3577563   9.0330206  44.6643651  64.6364149   9.6466174  44.5251124
  66.1470819   9.5687971  44.5860297  75.8004303  20.4790494  47.1146061
  74.8534639  20.3595845  47.0424388  76.1487076  19.5912992  47.1972322
  68.1603877   6.3684633  50.9384303  68.6838278   6.6146929  51.7010612
  67.9416210   7.2004668  50.5187440  63.5571158   8.6388307  38.8055428
  63.2283864   7.7585686  38.6230534  63.9110528   8.5835976  39.6931817
  72.8050737  20.2743210  43.3150413  72.6575699  19.3459918  43.4957983
  73.6304230  20.2963301  42.8307488  66.6712981   8.9261277  39.1730905
  67.0109053   9.4547199  38.4509514  67.1185101   9.2641683  39.9489472
  76.4084858  21.0971769  44.4015286  77.3331406  20.8914630  44.2639737
  76.2400162  20.8488170  45.3104627  69.3656422   7.3098328  48.6233973
  69.0253242   6.5106141  49.0254653  68.6595428   7.6100039  48.0510807
  68.6581128   7.4235899  37.3724198  69.3789490   7.8017152  36.8687915
  68.0346432   8.1424776  37.4759176  72.8012251   8.1281048  38.3082530
  73.0175865   9.0105686  38.0071359  72.3206318   7.7367261  37.5788172
  67.5411472  11.0866761  44.8853275  67.3956053  11.4007064  45.7777557
  67.0636676  11.7051661  44.3324174  69.4007855   8.0769309  44.9334165
  69.3869424   7.1810402  44.5966463  70.1180283   8.0839973  45.5672451
  71.2533986   8.5106649  46.9787292  70.9951764   9.4323720  46.9771622
  70.7219026   8.1137084  47.6687756  76.1980175  21.6157436  39.7577377
  76.3717052  21.0503859  39.0051230  76.6909066  22.4158331  39.5756867
  62.0157134  13.6272105  47.8240936  61.4710602  14.4031913  47.9561211
  62.8936484  13.9742910  47.6660058  82.0519566  14.3793859  41.3767677
  82.4950712  13.6301185  40.9786800  81.1746076  14.3703996  40.9941409
  77.1855347  20.9324201  36.8574276  77.8806252  21.5530893  37.0761590
  77.5278497  20.0819552  37.1326654  62.8023156  12.7542002  50.7171093
  62.0604892  12.9024637  51.3035724  62.4815901  13.0150267  49.8537843
  79.0846770  18.3823906  38.3861606  79.6098094  18.7211179  37.6610926
  78.9969123  17.4470922  38.2024741  70.7466819  22.2957980  50.5151483
  71.0553945  22.0507127  51.3874183  71.5442301  22.5004618  50.0270353
  70.7687431  24.4495890  42.7456860  70.3292421  23.9572268  43.4389716
  71.5195548  23.9068857  42.5048935  63.2479770  20.6407430  42.7481488
  64.0737790  20.3411202  42.3680131  62.8973822  19.8715053  43.1971276
  68.2161303  19.9933899  44.8179161  67.5941312  19.3304604  44.5181389
  68.8866170  20.0195031  44.1352809  61.4488375  18.5593757  43.7070421
  60.6120283  18.1315931  43.5254423  61.4212020  18.7526200  44.6441213
  68.2885831   8.4715687  54.4111667  68.3373986   9.3477809  54.0289437
  68.8308345   7.9293080  53.8383311  78.7740676  19.0156810  53.6912804
  77.9836220  18.9980949  53.1517304  78.5374031  19.5545104  54.4461841
  78.8938551  15.8649276  51.0045533  78.9436556  15.6999284  51.9461056
  78.7852475  14.9976535  50.6143414  67.7774810  18.5437822  38.2937622
  67.9262930  19.2273286  37.6404295  68.5841253  18.5242912  38.8087078
  76.1842314  11.8480204  52.3204840  77.0852176  11.7086669  52.0288837
  76.2590288  12.0134659  53.2603017  70.5185119   9.2247059  51.1658026
  69.6488428   9.5180625  50.8940615  70.7544599   9.8087504  51.8865290
  80.3956748  18.2846218  51.2487555  80.1041556  18.6476198  52.0851015
  79.7828879  17.5713226  51.0700887  81.5952430  15.8499098  43.7690125
  82.4299322  16.2888902  43.9327685  81.7311559  15.3737751  42.9498371
  78.6443936  13.4078832  49.7167612  79.1198058  13.6006479  48.9086464
  77.7209502  13.4638018  49.4710996  65.5327443  14.5703000  39.2998691
  65.2873485  13.6665330  39.4978901  65.7023358  14.5720150  38.3578169
  64.8023090  10.3031357  36.7984852  64.1092335  10.3775712  36.1424888
  64.5574842   9.5391701  37.3206369  71.2770216  21.0385952  35.7649369
  70.7044183  21.6576140  35.3119841  71.8503009  21.5885314  36.2989291
  77.3445605  10.2844593  47.9495918  78.2963028  10.3842690  47.9708142
  77.1749056   9.4922861  48.4594002  74.4967475  21.3223103  36.8957952
  75.4298148  21.2568664  37.0990827  74.4090688  22.1579369  36.4372484
  77.1255492  20.6388973  33.8561899  77.0469123  20.3048837  34.7497657
  77.9465159  21.1310741  33.8553371  79.8233683  13.5050712  47.0638218
  79.7910003  12.5666713  47.2497902  80.4334307  13.5834749  46.3304043
  71.6617014  12.3746765  33.1065422  72.6076119  12.2452973  33.1753840
  71.2831259  11.6361427  33.5834850  85.6410233  14.5666719  46.2044255
  86.3713621  14.3052007  46.7651958  85.0317178  13.8295441  46.2446323
  83.7225530  12.7074582  46.8018706  82.9958694  12.5730547  46.1935197
  83.3072817  13.0151410  47.6075424  69.8459931  10.2996742  33.0420307
  68.9391387  10.0029854  33.1183021  70.1235912  10.0026560  32.1754593
  60.7637872  11.6203105  43.4919353  60.4440656  10.7668413  43.1993727
  60.2171300  11.8351683  44.2477321  64.5417779  14.3365546  47.2088860
  64.7603789  15.2682654  47.2276894  64.9543553  13.9773520  47.9943664
  69.4145644   9.9098752  56.5991609  69.3142371  10.8593109  56.5303700
  69.1967186   9.5816991  55.7267679  60.6326132  15.2406016  45.4612475
  59.9389603  14.8259969  44.9482429  61.3799123  15.2826553  44.8645894
  69.2776914  13.3395891  55.4156671  68.7943996  14.1396251  55.6220560
  69.3637854  13.3503835  54.4624115  62.5462874  15.1724270  43.3378490
  62.5233562  15.2711958  42.3860373  62.8563511  16.0189421  43.6595656
  65.2050252  17.2300425  47.4525104  66.1593506  17.1984368  47.3855036
  65.0062776  16.7691049  48.2675330  65.7949634  15.8001541  50.0195902
  66.6142523  16.2945620  50.0430739  66.0686442  14.8833509  49.9913469
  63.5600481  22.7720045  44.4695302  63.4254949  22.0120446  43.9033300
  63.1432543  23.4960945  44.0024091  74.6959444  17.9556968  33.4771877
  75.3995294  18.1606971  34.0929533  73.9722093  18.5233730  33.7420961
  75.5257254  13.7066830  39.5974148  75.4692455  14.1635381  38.7581780
  76.0785596  12.9457514  39.4196990  83.6474398  12.2352635  42.9295559
  83.0873956  12.3045824  43.7027121  83.0417901  12.0593619  42.2095055
  66.7169607  23.6689362  44.6813745  66.6001991  24.6134794  44.5792435
  65.8962053  23.3662923  45.0699544  76.6046141  18.3939498  35.5270338
  77.4391745  17.9620696  35.3447812  76.4430484  18.2221511  36.4547232
  76.2592033  14.8971611  36.8926677  76.2040837  14.7315882  35.9515121
  75.6338089  15.6047644  37.0488867  61.0484548  10.1339675  50.7188099
  61.6943412   9.6238629  51.2075324  60.8401699  10.8708357  51.2931524
  73.5737941  17.2020523  56.2180240  74.4429100  17.3761175  55.8566875
  73.0944692  18.0214940  56.0955969  67.7424121  24.3217624  47.8969673
  68.6451367  24.3541234  48.2136168  67.5161491  23.3918075  47.9116009
  69.4977723  23.0748610  44.5579752  68.5473354  23.0750472  44.4444124
  69.8010209  22.3281345  44.0415786  65.3882039   7.2807292  54.8163113
  66.2513501   6.9244097  55.0266438  64.8147450   6.9421187  55.5038518
  85.2330416  28.9109149  45.6225514  85.8708826  28.7915896  44.9188854
  85.1151259  29.8589993  45.6813466  82.0420123  28.8636577  45.5587039
  81.7038634  28.7477641  44.6707574  82.9109891  28.4627742  45.5388045
  77.9006938  30.7172053  41.5483930  77.3371803  30.6261990  40.7800218
  77.7859333  29.8971958  42.0286422  82.5239906  30.0171428  51.5173244
  82.5128546  29.6224227  50.6453748  82.6860545  29.2837501  52.1107016
  75.4471370  32.2123245  44.3868150  76.2392662  31.8714069  43.9714450
  75.6868020  32.3218220  45.3070304  83.4806497  34.3843021  36.8598395
  82.8294477  34.9697101  36.4732409  84.2750860  34.9149216  36.9193432
  77.4062124  31.4732158  37.2585529  78.1793000  30.9261145  37.1198405
  77.7587523  32.3376407  37.4699991  79.2447167  32.8008540  50.4652428
  78.9537033  33.7054171  50.3499095  79.8804151  32.8425068  51.1796498
  80.1703374  30.1785389  47.0553788  80.7666946  29.9541411  46.3410751
  80.2278345  29.4370134  47.6579236  79.7428402  27.6324824  34.8903979
  79.9953923  27.1106345  34.1287442  78.8052961  27.4690970  34.9930663
  84.7871685  26.6360602  42.6978722  85.5734774  26.2180026  42.3469139
  85.0510389  27.5406695  42.8660371  84.9581762  32.0733453  37.3967379
  84.3227595  32.1468079  38.1088284  84.6279169  32.6627052  36.7186458
  79.4624691  29.5352930  37.0928354  79.3460949  28.8597833  37.7609438
  79.5726951  29.0485304  36.2760507  81.8056232  28.9963077  40.7975043
  81.4414439  28.4693698  41.5087965  82.6623348  28.6061546  40.6241529
  87.7105532  20.2857410  48.0606309  87.3788857  21.1552821  47.8367524
  87.1151146  19.9693694  48.7400340  81.4461719  24.0252977  35.7936392
  81.6136121  24.8933213  36.1606863  81.2558888  24.1880259  34.8697681
  84.2037052  32.4869956  47.4602222  83.9037775  33.3894995  47.3518029
  83.8588111  32.2202139  48.3123375  77.6549533  28.9383753  43.4938927
  76.7300030  28.8059967  43.7016618  77.9033946  29.7177972  43.9908869
  87.6034196  25.0052496  45.1399659  86.6951073  24.9367904  44.8458420
  87.5521791  25.4824441  45.9681485  81.4250939  26.4810634  36.7783059
  81.3050565  26.9267685  37.6168539  80.7303528  26.8295952  36.2196597
  75.0158344  28.5817026  44.3282716  75.1450725  28.8351505  45.2422127
  74.3355796  29.1744734  44.0087371  79.1857832  39.2514276  40.4273190
  79.1081861  40.2022101  40.5061670  78.5819475  38.9060149  41.0848116
  81.6775061  26.4242142  53.0834557  80.9008395  26.9836062  53.0737421
  82.3165624  26.9098925  53.6049427  87.1236006  26.9532108  37.6063393
  88.0353862  27.1859494  37.4311090  86.6145653  27.5369152  37.0438471
  79.9321434  29.2327595  52.6452524  80.6736118  29.7712639  52.3687347
  79.2258419  29.8593884  52.8024076  85.4076773  31.3756735  51.2424685
  85.8160129  30.9339146  50.4979318  84.6854035  30.8009363  51.4958878
  81.7607843  26.3129342  48.6158242  82.6069039  26.7368756  48.7592891
  81.7006481  25.6562966  49.3096805  85.7305588  31.9357926  44.9976974
  85.1014450  32.1003640  44.2953042  85.3431250  32.3499536  45.7687938
  84.9107289  23.9733711  50.2739416  84.6668221  24.7275771  49.7373692
  85.1867219  24.3519058  51.1086663  86.8645751  30.5172323  48.9516681
  87.0762647  31.1604083  48.2751062  86.8175500  29.6834639  48.4838611
  84.4671980  23.1290144  45.8553254  83.6056459  23.4271397  46.1469991
  84.4934415  23.3460542  44.9234286  81.2833550  31.6732334  42.2627059
  81.7471895  31.9520037  41.4731682  81.0190348  30.7715779  42.0800150
  78.1757631  31.2203816  45.2006822  78.7458988  31.6491084  44.5624307
  78.7665743  30.9386400  45.8991008  80.2202436  27.7955486  39.0716624
  80.9226479  28.2476530  39.5390551  79.8883064  27.1539305  39.6996517
  78.6682797  26.3867243  53.4467834  78.0381458  27.0683524  53.6803231
  78.5618885  26.2750325  52.5020972  73.9627770  26.0539039  44.3733758
  73.1726824  26.3096568  43.8973869  74.4539017  26.8687377  44.4785798
  81.7448183  32.9428322  49.2799749  81.8092615  33.4048729  50.1157921
  81.0359107  32.3125687  49.4082059  72.2465473  26.3069530  46.8048749
  72.4973511  27.1916540  47.0706325  72.7825021  26.1274131  46.0323841
  81.4596200  34.6096429  39.1478730  81.3241875  35.4547965  39.5763577
  82.0006013  34.8115707  38.3844663  77.9463540  20.6888009  55.8093085
  77.5530486  20.1354208  56.4840729  78.7629680  20.9998587  56.1999602
  74.9125598  32.1271867  39.7206655  75.4250118  32.9215117  39.8712219
  75.5648311  31.4298158  39.6540256  76.7220483  35.2437623  41.8029408
  76.8987111  36.1655588  41.6150392  77.5177316  34.9296043  42.2323788
  80.8631501  22.1045888  53.4013341  81.6041214  22.7053041  53.3217804
  81.0949424  21.3623526  52.8431384  76.0072839  27.2902255  51.6791571
  75.8926354  26.3887513  51.9798670  75.1517357  27.5365952  51.3276388
  83.0864677  35.2319996  53.2779072  82.6428531  34.4456374  52.9599976
  83.7481890  35.4199146  52.6122962  77.8451798  36.7615797  47.8039750
  78.3959223  36.6332861  47.0316744  77.0063274  37.0610686  47.4534643
  85.1845915  35.5122796  51.3060473  85.1664390  36.3331677  50.8140742
  86.1065835  35.3876871  51.5310614  81.6418969  33.0266925  52.1483981
  82.1747306  32.2655213  51.9183289  81.1133050  32.7340577  52.8908136
  84.8088664  18.1326991  47.6777623  84.4652933  19.0228633  47.6016734
  85.1767627  17.9428649  46.8147208  72.8774515  30.4560521  40.4966225
  73.7149737  30.8657530  40.2799933  73.0552782  29.5159964  40.4666419
  84.7738947  28.1235602  36.1850058  84.2585570  28.8940207  36.4238446
  84.5016255  27.4500738  36.8083120  82.3586058  22.9685303  41.2435297
  81.5027654  22.5792153  41.0640935  82.7713010  23.0477264  40.3835082
  83.8885204  20.5031646  45.6426856  83.3850000  20.4661781  44.8294662
  84.1815811  21.4124389  45.7023513  80.1328090  20.5870376  44.6493038
  80.9981087  20.3913185  44.2898927  80.2005599  20.3580728  45.5762395
  84.5625250  25.9962694  38.0109839  84.2575385  26.3108843  38.8619983
  85.5155692  26.0744114  38.0537172  83.0071682  32.1552918  39.6602793
  82.4793043  31.4205677  39.3476031  82.5059184  32.9327594  39.4142762
  77.7390409  22.8172584  42.0209405  78.3134161  22.5947765  41.2882598
  78.3261392  22.8861278  42.7738006  86.7969987  28.7046311  42.8273781
  87.3101868  29.3376303  43.3295491  87.4471210  28.1047506  42.4617141
  78.0659996  24.8477045  36.0405290  77.2297309  25.1851731  36.3614565
  77.9264766  24.7126025  35.1032427  80.0413077  19.6913833  40.7484474
  79.3877489  19.3762850  40.1241089  79.9993551  19.0689573  41.4744297
  81.1524282  29.9733128  32.6637766  80.2451344  29.7422381  32.8628915
  81.6495314  29.1770747  32.8511748  84.0592361  38.6830635  35.5834453
  83.3854060  38.9862332  36.1919410  84.4458183  39.4859715  35.2339910
  83.2750817  26.1795766  45.0732122  82.3573379  26.4010713  44.9153810
  83.6910961  26.2542077  44.2143829  84.0585865  27.5787182  40.2034802
  84.8057684  28.0908579  39.8941924  84.3277455  27.2571235  41.0639196
  82.3312515  30.0745723  37.1861756  81.4223735  29.7904755  37.2834226
  82.3607599  30.4944801  36.3265063  87.5631783  33.6852312  40.9552924
  87.1094110  32.8443222  41.0118114  86.9325750  34.3213711  41.2927704
  86.5064702  24.6144298  42.1853591  85.7687459  24.1021684  42.5163834
  86.7591476  24.1744680  41.3736868  86.0064722  35.5228809  41.8902742
  86.2987696  36.0833866  41.1715108  86.5163343  35.8157370  42.6455901
  86.6076330  17.3920550  42.7795361  86.9135206  16.5317914  42.4921276
  87.3328934  17.9838170  42.5794355  72.9000686  27.7951237  41.1676959
  72.7025086  27.2020597  40.4428025  72.3447350  27.4903447  41.8852897
  80.8797409  27.6874343  43.2871552  80.9346019  26.7348180  43.2114028
  80.0688611  27.8433782  43.7712850  82.0288603  31.6154466  34.5249835
  81.5908033  30.8990325  34.0655472  82.7699044  31.8430581  33.9634926
  78.8189769  26.3051403  41.0461931  78.0057635  26.6045574  41.4527123
  79.3148764  25.9107092  41.7636413  80.9698347  36.3009160  42.9796195
  80.9274526  36.5270006  42.0504727  81.8861046  36.0672534  43.1281996
  84.4163981  26.7693227  49.8776825  84.7713369  26.9964701  50.7371290
  85.0636112  27.1011604  49.2554080  78.3103844  23.8769759  46.6623166
  78.9503223  23.7358518  45.9646129  77.4781375  23.5904272  46.2861768
  79.0864148  33.1772189  42.7758158  79.8804747  32.6822509  42.5740733
  78.3755840  32.6490052  42.4125864  83.9058992  35.5590284  47.1270526
  83.9596015  36.1281221  47.8948242  83.0373774  35.7292169  46.7624563
  75.3946911  27.3215271  38.8517911  74.4644500  27.2599726  39.0687873
  75.4904383  26.7991223  38.0554552  75.3132461  23.8470083  41.4396152
  75.5739278  24.7615417  41.3305313  76.1349633  23.3794526  41.5892765
  76.7857386  25.2607841  48.6094977  77.4580439  25.0525203  47.9607626
  75.9587172  25.0629927  48.1700209  82.6882958  21.8869782  50.6260638
  82.0410873  22.5859731  50.5325114  83.4583973  22.3205926  50.9936886
  86.0961756  32.1518634  53.7011191  85.9447262  31.9229185  52.7841275
  86.0866435  33.1089235  53.7142536  82.8647092  29.7250546  48.6857458
  83.7939152  29.8761706  48.5126425  82.4438122  29.8134567  47.8306104
  81.6635424  33.7501211  46.4555995  81.5246510  33.3819995  47.3281933
  80.8750020  34.2648850  46.2839953  82.2583576  38.8510307  37.7981532
  82.4335332  38.3798351  38.6127154  81.5716364  39.4776074  38.0262792
  83.2140639  33.1282814  43.8444833  82.8790472  33.0883584  44.7402483
  82.7144585  32.4627530  43.3715243  77.1884883  28.5350444  49.3697414
  77.0504681  27.8030682  49.9708953  78.0989807  28.4459344  49.0881602
  86.1499831  30.4738848  34.1181893  85.5329001  29.7485676  34.0214945
  85.6816319  31.2348208  33.7748967  79.8167184  28.2470403  48.8581094
  80.5266802  27.6063595  48.8167712  79.7736492  28.4983298  49.7807275
  87.8053962  35.1837756  51.7787673  87.7466509  34.4996976  51.1118256
  88.2073481  35.9256746  51.3268299  78.5296118  25.2335621  50.6776733
  77.9933475  24.7826359  51.3298330  77.9412826  25.3681530  49.9347198
  76.8244661  41.9999670  44.5721392  77.0641259  42.6318194  45.2500410
  75.9813858  41.6487710  44.8586751  77.9398377  24.6924272  33.2403197
  77.0627843  24.5713073  32.8765444  78.4156130  23.9010351  32.9882086
  69.4600517  29.4801432  43.3344704  70.1471557  29.1663162  42.7465719
  69.3048646  30.3842797  43.0611955  74.2635239  24.3691629  47.7629728
  74.1793428  23.7617298  47.0280138  73.4417945  24.8600647  47.7639224
  81.3372523  37.8078793  46.9762896  81.2642695  38.6133764  47.4882200
  80.8949916  38.0070758  46.1510917  81.1262303  37.0450563  40.4865717
  80.3429825  37.5872243  40.5803942  81.8255048  37.5624542  40.8859959
  84.4358953  22.8545192  43.1299923  84.9327652  22.1015154  42.8100993
  83.6645934  22.8909509  42.5643132  83.7971207  37.7065627  49.1321054
  84.5099179  38.3413091  49.0596956  83.3061235  37.8029493  48.3161056
  85.5188734  31.6116879  40.7038346  84.5845012  31.7318342  40.5343050
  85.6965402  30.7089346  40.4398356  81.0193922  24.9962575  42.8571607
  80.6491709  24.4433615  43.5452513  81.5153014  24.3920709  42.3046607
  78.8483120  35.4560070  49.9526625  79.5492580  36.0896553  50.1056020
  78.3778235  35.7974802  49.1922265  86.9737516  33.7978020  38.2374532
  87.2497360  33.6834614  39.1468406  86.1042015  33.3995505  38.1986705
  86.8777948  19.8214786  45.2779282  85.9641027  20.0519012  45.4461489
  87.3071049  19.9053230  46.1293314  86.6484406  28.0104678  47.7779176
  85.9955856  28.2580585  47.1231628  87.0264786  27.1968816  47.4441653
  83.6091580  38.0464371  41.8807346  83.7913975  37.2286027  42.3435098
  84.4324566  38.2632063  41.4432236  83.9433746  36.9732556  39.1422394
  84.4721512  36.4625010  38.5292557  84.2061965  36.6575086  40.0067927
  82.6971979  28.7524489  54.2645213  82.0212616  28.6518618  54.9347588
  83.5199613  28.5963702  54.7281210  74.4450838  34.9896425  46.8857728
  75.0304275  34.2440113  47.0185632  74.2475677  35.3000382  47.7694392
  77.2989493  38.0247673  41.9020170  76.6299869  38.5093800  41.4184210
  77.1602363  38.2716893  42.8163549  69.0368493  27.5602025  45.6062171
  69.0752592  27.0265616  46.3999289  68.5308786  27.0337231  44.9873148
  81.4394762  40.0591416  48.5002829  81.9913070  40.2223038  49.2651914
  81.7800956  40.6495854  47.8282854  76.4159255  22.4066566  49.1024713
  76.4800582  23.2681397  48.6902111  76.3526376  21.7940567  48.3697072
  75.8911528  24.4789698  52.7497748  76.5183567  24.0966776  53.3635272
  75.0339447  24.2603900  53.1153440  86.2905636  34.8852674  54.3551483
  86.8345540  35.4982632  53.8606438  85.7092481  35.4432252  54.8718496
  72.6677071  26.2866127  38.6816103  72.9630512  25.3776806  38.6283156
  71.7665106  26.2653867  38.3597105  84.5763149  38.0073392  45.4866511
  84.4514289  37.2063131  44.9777456  85.2342240  38.5019585  44.9980481
  76.1971318  24.3622124  44.6643651  75.4757903  24.9758092  44.5251124
  76.9864573  24.8979889  44.5860297  86.6398058  35.8082412  47.1146061
  85.6928393  35.6887763  47.0424388  86.9880831  34.9204910  47.1972322
  78.9997631  21.6976551  50.9384303  79.5232033  21.9438847  51.7010612
  78.7809964  22.5296585  50.5187440  74.3964912  23.9680225  38.8055428
  74.0677618  23.0877604  38.6230534  74.7504283  23.9127894  39.6931817
  83.6444491  35.6035128  43.3150413  83.4969453  34.6751835  43.4957983
  84.4697985  35.6255219  42.8307488  77.5106735  24.2553195  39.1730905
  77.8502808  24.7839116  38.4509514  77.9578856  24.5933601  39.9489472
  87.2478613  36.4263687  44.4015286  88.1725160  36.2206548  44.2639737
  87.0793916  36.1780088  45.3104627  80.2050176  22.6390246  48.6233973
  79.8646996  21.8398059  49.0254653  79.4989182  22.9391957  48.0510807
  80.8566648  19.7239558  47.0761296  81.6792717  19.2500036  46.9540187
  81.1004711  20.5030042  47.5759983  79.4974882  22.7527817  37.3724198
  80.2183245  23.1309069  36.8687915  78.8740187  23.4716693  37.4759176
  83.6406005  23.4572966  38.3082530  83.8569620  24.3397603  38.0071359
  83.1600072  23.0659179  37.5788172  78.3805227  26.4158679  44.8853275
  78.2349807  26.7298982  45.7777557  77.9030430  27.0343579  44.3324174
  80.2401610  23.4061227  44.9334165  80.2263178  22.5102320  44.5966463
  80.9574038  23.4131890  45.5672451  82.0927740  23.8398567  46.9787292
  81.8345518  24.7615638  46.9771622  81.5612781  23.4429001  47.6687756
  87.0373929  36.9449354  39.7577377  87.2110807  36.3795777  39.0051230
  87.5302820  37.7450249  39.5756867  72.8550889  28.9564023  47.8240936
  72.3104357  29.7323831  47.9561211  73.7330239  29.3034828  47.6660058
  79.6438506  22.2875607  40.2021735  79.7654417  21.3592253  40.4012622
  79.3540548  22.3014293  39.2900050  82.5129696  19.9730517  43.3388455
  82.5351393  20.0369851  42.3840434  82.9297755  19.1335026  43.5328961
  73.6416911  28.0833919  50.7171093  72.8998647  28.2316555  51.3035724
  73.3209655  28.3442185  49.8537843  81.5860573  37.6249898  50.5151483
  81.8947700  37.3799044  51.3874183  82.3836055  37.8296536  50.0270353
  81.6081185  39.7787807  42.7456860  81.1686176  39.2864186  43.4389716
  82.3589302  39.2360775  42.5048935  74.0873524  35.9699348  42.7481488
  74.9131544  35.6703120  42.3680131  73.7367576  35.2006971  43.1971276
  79.0555058  35.3225816  44.8179161  78.4335067  34.6596521  44.5181389
  79.7259924  35.3486948  44.1352809  79.1279585  23.8007604  54.4111667
  79.1767741  24.6769727  54.0289437  79.6702099  23.2584997  53.8383311
  78.6168564  33.8729740  38.2937622  78.7656685  34.5565204  37.6404295
  79.4235008  33.8534830  38.8087078  87.0236068  27.1772122  52.3204840
  87.9245931  27.0378587  52.0288837  87.0984043  27.3426577  53.2603017
  81.3578873  24.5538977  51.1658026  80.4882183  24.8472543  50.8940615
  81.5938354  25.1379422  51.8865290  76.3721197  29.8994917  39.2998691
  76.1267239  28.9957247  39.4978901  76.5417112  29.9012068  38.3578169
  84.0617907  20.7718594  48.6823446  84.5799851  21.5079621  48.3569935
  83.7073040  21.0782587  49.5170206  75.6416845  25.6323275  36.7984852
  74.9486090  25.7067630  36.1424888  75.3968597  24.8683619  37.3206369
  84.3130501  17.1918876  44.2024343  84.5932255  16.5242065  44.8284770
  85.0981108  17.3847972  43.6899007  82.1163970  36.3677870  35.7649369
  81.5437937  36.9868057  35.3119841  82.6896764  36.9177232  36.2989291
  86.2053739  22.6992093  48.1355319  85.6103671  22.9797106  47.4401808
  85.9203436  23.1885994  48.9072060  85.3361230  36.6515020  36.8957952
  86.2691903  36.5860582  37.0990827  85.2484443  37.4871287  36.4372484
  82.5010768  27.7038683  33.1065422  83.4469873  27.5744891  33.1753840
  82.1225013  26.9653345  33.5834850  82.3849461  31.7556429  54.5666079
  83.3052470  31.9335028  54.7606125  82.3499044  30.8112474  54.4145778
  80.6853686  25.6288659  33.0420307  79.7785141  25.3321772  33.1183021
  80.9629667  25.3318477  32.1754593  71.6031626  26.9495023  43.4919353
  71.2834410  26.0960331  43.1993727  71.0565054  27.1643601  44.2477321
  75.3811534  29.6657464  47.2088860  75.5997543  30.5974571  47.2276894
  75.7937307  29.3065438  47.9943664  82.3015751  20.1725549  39.1964548
  81.4916480  19.8272634  39.5719794  82.9900168  19.8633093  39.7852160
  84.2306300  19.2503596  40.8188845  84.7837338  19.6699049  41.4778868
  84.4676386  18.3239344  40.8611801  80.2539399  25.2390669  56.5991609
  80.1536126  26.1885026  56.5303700  80.0360941  24.9108908  55.7267679
  79.4552470  22.4875594  33.1832286  80.3171634  22.8130493  33.4428104
  79.6402814  21.7007090  32.6705352  87.6085107  21.3604121  40.3267509
  87.0283776  22.0188925  39.9445562  87.3421039  20.5381466  39.9154927
  86.0588673  20.7609179  42.5288830  86.5588451  20.8725713  41.7203148
  86.7024281  20.4570232  43.1689638  80.1170669  28.6687808  55.4156671
  79.6337751  29.4688168  55.6220560  80.2031608  28.6795753  54.4624115
  73.3856629  30.5016188  43.3378490  73.3627317  30.6003875  42.3860373
  73.6957265  31.3481339  43.6595656  76.0444006  32.5592343  47.4525104
  76.9987260  32.5276285  47.3855036  75.8456530  32.0982967  48.2675330
  76.6343389  31.1293459  50.0195902  77.4536278  31.6237538  50.0430739
  76.9080196  30.2125427  49.9913469  86.3909985  23.5204211  39.3823857
  85.5035840  23.8053862  39.1644052  86.8063974  23.3597975  38.5351134
  74.3994235  38.1011962  44.4695302  74.2648703  37.3412363  43.9033300
  73.9826297  38.8252862  44.0024091  85.5353198  33.2848886  33.4771877
  86.2389048  33.4898889  34.0929533  84.8115847  33.8525648  33.7420961
  86.3651009  29.0358747  39.5974148  86.3086210  29.4927299  38.7581780
  86.9179351  28.2749432  39.4196990  77.5563361  38.9981279  44.6813745
  77.4395745  39.9426712  44.5792435  76.7355807  38.6954841  45.0699544
  87.4439896  33.7231415  35.5270338  88.2785500  33.2912614  35.3447812
  87.2824239  33.5513429  36.4547232  87.0985788  30.2263529  36.8926677
  87.0434592  30.0607800  35.9515121  86.4731843  30.9339561  37.0488867
  71.8878303  25.4631593  50.7188099  72.5337166  24.9530547  51.2075324
  71.6795454  26.2000275  51.2931524  84.4131695  32.5312440  56.2180240
  85.2822855  32.7053093  55.8566875  83.9338446  33.3506857  56.0955969
  80.4081913  19.7271638  36.4711995  80.3960583  20.6713477  36.6280266
  81.3005335  19.5441783  36.1771456  78.5817875  39.6509541  47.8969673
  79.4845122  39.6833152  48.2136168  78.3555245  38.7209992  47.9116009
  80.3371477  38.4040528  44.5579752  79.3867108  38.4042390  44.4444124
  80.6403963  37.6573263  44.0415786  84.2234033  16.3214414  40.7257932
  83.4566429  15.7672901  40.8714614  84.6344738  16.3936283  41.5872084
  76.2275794  22.6099210  54.8163113  77.0907255  22.2536015  55.0266438
  75.6541204  22.2713105  55.5038518  86.2865125  47.5415162  44.3868150
  87.0786417  47.2005987  43.9714450  86.5261775  47.6510137  45.3070304
  85.8552099  43.9108944  44.3282716  85.9844480  44.1643423  45.2422127
  85.1749550  44.5036652  44.0087371  84.8021524  41.3830957  44.3733758
  84.0120578  41.6388485  43.8973869  85.2932772  42.1979295  44.4785798
  86.7536270  41.7475536  41.3317235  85.9567433  41.8594230  41.8500730
  86.5261862  42.0862188  40.4658125  83.0859227  41.6361447  46.8048749
  83.3367266  42.5208457  47.0706325  83.6218776  41.4566049  46.0323841
  85.7519352  47.4563785  39.7206655  86.2643873  48.2507035  39.8712219
  86.4042065  46.7590075  39.6540256  86.8466594  42.6194173  51.6791571
  86.7320109  41.7179430  51.9798670  85.9911111  42.8657870  51.3276388
  83.7168269  45.7852439  40.4966225  84.5543491  46.1949447  40.2799933
  83.8946537  44.8451881  40.4666419  83.7394440  43.1243154  41.1676959
  83.5418840  42.5312515  40.4428025  83.1841104  42.8195365  41.8852897
  86.2340666  42.6507188  38.8517911  85.3038254  42.5891644  39.0687873
  86.3298138  42.1283141  38.0554552  86.1526215  39.1762001  41.4396152
  86.4133032  40.0907334  41.3305313  86.9743387  38.7086444  41.5892765
  87.6251140  40.5899758  48.6094977  88.2974194  40.3817120  47.9607626
  86.7980927  40.3921844  48.1700209  87.6638416  57.3291588  44.5721392
  87.9035014  57.9610112  45.2500410  86.8207612  56.9779628  44.8586751
  80.2994271  44.8093350  43.3344704  80.9865311  44.4955080  42.7465719
  80.1442400  45.7134714  43.0611955  85.1028993  39.6983546  47.7629728
  85.0187182  39.0909216  47.0280138  84.2811700  40.1892565  47.7639224
  85.2844593  50.3188343  46.8857728  85.8698030  49.5732031  47.0185632
  85.0869431  50.6292300  47.7694392  88.1383248  53.3539590  41.9020170
  87.4693623  53.8385718  41.4184210  87.9996118  53.6008811  42.8163549
  79.8762247  42.8893943  45.6062171  79.9146347  42.3557534  46.3999289
  79.3702540  42.3629149  44.9873148  87.2553010  37.7358484  49.1024713
  87.3194336  38.5973314  48.6902111  87.1920130  37.1232485  48.3697072
  86.7305282  39.8081616  52.7497748  87.3577321  39.4258693  53.3635272
  85.8733201  39.5895818  53.1153440  83.5070825  41.6158045  38.6816103
  83.8024266  40.7068724  38.6283156  82.6058861  41.5945785  38.3597105
  87.0365072  39.6914042  44.6643651  86.3151658  40.3050009  44.5251124
  87.8258328  40.2271807  44.5860297  85.2358667  39.2972143  38.8055428
  84.9071373  38.4169522  38.6230534  85.5898037  39.2419812  39.6931817
  83.6944643  44.2855941  47.8240936  83.1498111  45.0615749  47.9561211
  84.5723993  44.6326745  47.6660058  84.4810665  43.4125837  50.7171093
  83.7392401  43.5608472  51.3035724  84.1603410  43.6734103  49.8537843
  84.9267279  51.2991266  42.7481488  85.7525299  50.9995038  42.3680131
  84.5761331  50.5298888  43.1971276  83.1275884  49.2177592  43.7070421
  82.2907792  48.7899767  43.5254423  83.0999529  49.4110036  44.6441213
  87.2114952  45.2286835  39.2998691  86.9660994  44.3249165  39.4978901
  87.3810866  45.2303985  38.3578169  86.4810599  40.9615193  36.7984852
  85.7879844  41.0359548  36.1424888  86.2362351  40.1975536  37.3206369
  82.4425381  42.2786940  43.4919353  82.1228165  41.4252249  43.1993727
  81.8958809  42.4935519  44.2477321  86.2205288  44.9949381  47.2088860
  86.4391298  45.9266489  47.2276894  86.6331062  44.6357356  47.9943664
  82.3113641  45.8989852  45.4612475  81.6177112  45.4843805  44.9482429
  83.0586632  45.9410388  44.8645894  84.2250383  45.8308106  43.3378490
  84.2021071  45.9295793  42.3860373  84.5351020  46.6773256  43.6595656
  86.8837761  47.8884261  47.4525104  87.8381014  47.8568203  47.3855036
  86.6850285  47.4274884  48.2675330  87.4737143  46.4585377  50.0195902
  88.2930032  46.9529455  50.0430739  87.7473951  45.5417345  49.9913469
  85.2387990  53.4303880  44.4695302  85.1042458  52.6704281  43.9033300
  84.8220052  54.1544780  44.0024091  82.7272057  40.7923511  50.7188099
  83.3730921  40.2822465  51.2075324  82.5189208  41.5292192  51.2931524
  87.0669548  37.9391128  54.8163113  87.9301010  37.5827932  55.0266438
  86.4934959  37.6005022  55.5038518  79.1857833  16.2576399  27.1518496
  79.1081862  17.2084224  27.2306977  78.5819476  15.9122271  27.8093423
  81.4596202  11.6158552  25.8724036  81.3241877  12.4610087  26.3008884
  82.0006014  11.8177829  25.1089970  76.7220484  12.2499746  28.5274714
  76.8987112  13.1717711  28.3395698  77.5177317  11.9358165  28.9569094
  83.0864678  12.2382118  40.0024378  82.6428532  11.4518497  39.6845283
  83.7481892  12.4261269  39.3368269  77.8451799  13.7677920  34.5285057
  78.3959224  13.6394983  33.7562051  77.0063275  14.0672809  34.1779950
  84.0592362  15.6892758  22.3079759  83.3854061  15.9924454  22.9164717
  84.4458184  16.4921838  21.9585216  86.0064723  12.5290931  28.6148049
  86.2987698  13.0895989  27.8960414  86.5163344  12.8219492  29.3701208
  80.9698348  13.3071283  29.7041502  80.9274527  13.5332129  28.7750034
  81.8861047  13.0734657  29.8527303  83.9058994  12.5652407  33.8515832
  83.9596016  13.1343343  34.6193548  83.0373775  12.7354292  33.4869869
  82.2583577  15.8572430  24.5226838  82.4335333  15.3860473  25.3372461
  81.5716365  16.4838196  24.7508099  76.8244663  19.0061793  31.2966698
  77.0641261  19.6380317  31.9745717  75.9813859  18.6549833  31.5832058
  81.3372524  14.8140915  33.7008202  81.2642696  15.6195887  34.2127507
  80.8949917  15.0132881  32.8756224  81.1262304  14.0512685  27.2111024
  80.3429826  14.5934365  27.3049249  81.8255049  14.5686665  27.6105265
  83.7971208  14.7127749  35.8566361  84.5099180  15.3475214  35.7842263
  83.3061237  14.8091615  35.0406363  78.8483121  12.4622193  36.6771932
  79.5492581  13.0958676  36.8301326  78.3778236  12.8036924  35.9167571
  83.6091581  15.0526493  28.6052653  83.7913976  14.2348149  29.0680405
  84.4324567  15.2694186  28.1677543  83.9433747  13.9794678  25.8667701
  84.4721513  13.4687133  25.2537863  84.2061966  13.6637209  26.7313234
  74.4450839  11.9958548  33.6103035  75.0304276  11.2502236  33.7430939
  74.2475678  12.3062504  34.4939699  77.2989495  15.0309795  28.6265477
  76.6299870  15.5155923  28.1429517  77.1602364  15.2779016  29.5408856
  81.4394763  17.0653539  35.2248135  81.9913071  17.2285160  35.9897221
  81.7800957  17.6557976  34.5528160  84.5763151  15.0135514  32.2111818
  84.4514290  14.2125254  31.7022763  85.2342242  15.5081708  31.7225788
  83.6444492  12.6097250  30.0395720  83.4969455  11.6813958  30.2203290
  84.4697986  12.6317341  29.5552795  87.2478614  13.4325809  31.1260593
  88.1725162  13.2268671  30.9885044  87.0793917  13.1842210  32.0349934
  87.0373930  13.9511477  26.4822684  87.2110808  13.3857899  25.7296537
  87.5302822  14.7512372  26.3002174  81.5860575  14.6312020  37.2396790
  81.8947701  14.3861167  38.1119489  82.3836057  14.8358659  36.7515660
  81.6081187  16.7849930  29.4702166  81.1686177  16.2926309  30.1635023
  82.3589304  16.2422898  29.2294242  74.0873526  12.9761471  29.4726794
  74.9131546  12.6765243  29.0925438  73.7367578  12.2069093  29.9216583
  79.0555059  12.3287939  31.5424468  78.4335068  11.6658644  31.2426696
  79.7259926  12.3549071  30.8598116  72.2882131  10.8947797  30.4315728
  71.4514039  10.4669972  30.2499729  72.2605776  11.0880241  31.3686519
  78.6168566  10.8791862  25.0182929  78.7656686  11.5627327  24.3649601
  79.4235009  10.8596952  25.5332384  82.1163971  13.3739993  22.4894676
  81.5437938  13.9930180  22.0365148  82.6896765  13.9239354  23.0234598
  71.4719887   7.5760057  32.1857782  70.7783359   7.1614010  31.6727736
  72.2192878   7.6180593  31.5891201  76.0444008   9.5654466  34.1770411
  76.9987261   9.5338408  34.1100343  75.8456531   9.1045089  34.9920637
  74.3994236  15.1074085  31.1940609  74.2648704  14.3474486  30.6278607
  73.9826299  15.8314985  30.7269398  77.5563362  16.0043402  31.4059051
  77.4395747  16.9488835  31.3037742  76.7355809  15.7016964  31.7944851
  78.5817876  16.6571664  34.6214980  79.4845123  16.6895274  34.9381475
  78.3555247  15.7272115  34.6361316  80.3371479  15.4102651  31.2825059
  79.3867110  15.4104512  31.1689431  80.6403965  14.6635385  30.7661093
  86.2865126  24.5477285  31.1113457  87.0786418  24.2068110  30.6959756
  86.5261776  24.6572260  32.0315610  85.8552100  20.9171066  31.0528022
  85.9844481  21.1705545  31.9667434  85.1749551  21.5098774  30.7332677
  84.8021526  18.3893079  31.0979065  84.0120580  18.6450608  30.6219175
  85.2932773  19.2041417  31.2031105  86.7536271  18.7537659  28.0562541
  85.9567434  18.8656353  28.5746037  86.5261863  19.0924311  27.1903432
  83.0859229  18.6423570  33.5294055  83.3367267  19.5270580  33.7951631
  83.6218777  18.4628171  32.7569147  85.7519354  24.4625907  26.4451961
  86.2643874  25.2569158  26.5957526  86.4042066  23.7652198  26.3785563
  86.8466595  19.6256296  38.4036878  86.7320110  18.7241553  38.7043977
  85.9911113  19.8719992  38.0521694  83.7168270  22.7914562  27.2211532
  84.5543492  23.2011570  27.0045240  83.8946538  21.8514004  27.1911726
  83.7394442  20.1305277  27.8922265  83.5418841  19.5374638  27.1673332
  83.1841106  19.8257487  28.6098204  86.2340667  19.6569311  25.5763217
  85.3038255  19.5953766  25.7933180  86.3298139  19.1345264  24.7799859
  86.1526216  16.1824124  28.1641459  86.4133034  17.0969457  28.0550620
  86.9743389  15.7148566  28.3138072  87.6251142  17.5961881  35.3340284
  88.2974195  17.3879243  34.6852932  86.7980928  17.3983967  34.8945516
  87.6638417  34.3353710  31.2966698  87.9035015  34.9672235  31.9745717
  86.8207613  33.9841750  31.5832058  80.2994273  21.8155472  30.0590011
  80.9865312  21.5017202  29.4711026  80.1442401  22.7196837  29.7857262
  85.1028995  16.7045669  34.4875034  85.0187183  16.0971338  33.7525444
  84.2811701  17.1954687  34.4884531  85.2844594  27.3250465  33.6103035
  85.8698031  26.5794153  33.7430939  85.0869432  27.6354422  34.4939699
  88.1383249  30.3601713  28.6265477  87.4693624  30.8447840  28.1429517
  87.9996119  30.6070933  29.5408856  79.8762249  19.8956066  32.3307478
  79.9146348  19.3619656  33.1244596  79.3702542  19.3691271  31.7118455
  87.2553011  14.7420606  35.8270020  87.3194338  15.6035437  35.4147418
  87.1920131  14.1294608  35.0942379  86.7305284  16.8143739  39.4743054
  87.3577322  16.4320816  40.0880579  85.8733202  16.5957941  39.8398747
  83.5070826  18.6220168  25.4061409  83.8024267  17.7130846  25.3528463
  82.6058862  18.6007907  25.0842412  87.0365073  16.6976164  31.3888958
  86.3151659  17.3112132  31.2496431  87.8258329  17.2333929  31.3105604
  85.2358668  16.3034265  25.5300734  84.9071374  15.4231644  25.3475840
  85.5898039  16.2481934  26.4177124  83.6944645  21.2918063  34.5486243
  83.1498113  22.0677871  34.6806517  84.5723994  21.6388868  34.3905364
  84.4810666  20.4187960  37.4416400  83.7392403  20.5670595  38.0281030
  84.1603411  20.6796225  36.5783149  84.9267280  28.3053388  29.4726794
  85.7525300  28.0057160  29.0925438  84.5761332  27.5361011  29.9216583
  83.1275885  26.2239715  30.4315728  82.2907794  25.7961889  30.2499729
  83.0999531  26.4172158  31.3686519  87.2114953  22.2348958  26.0243997
  86.9660995  21.3311288  26.2224208  87.3810868  22.2366108  25.0823475
  86.4810601  17.9677315  23.5230159  85.7879846  18.0421670  22.8670195
  86.2362353  17.2037659  24.0451676  82.4425382  19.2849063  30.2164660
  82.1228166  18.4314371  29.9239034  81.8958810  19.4997641  30.9722627
  86.2205289  22.0011504  33.9334167  86.4391299  22.9328612  33.9522200
  86.6331063  21.6419478  34.7188970  82.3113642  22.9051974  32.1857782
  81.6177113  22.4905927  31.6727736  83.0586633  22.9472511  31.5891201
  84.2250384  22.8370228  30.0623797  84.2021072  22.9357916  29.1105680
  84.5351021  23.6835379  30.3840963  86.8837762  24.8946383  34.1770411
  87.8381016  24.8630326  34.1100343  86.6850286  24.4337007  34.9920637
  87.4737144  23.4647499  36.7441209  88.2930033  23.9591578  36.7676046
  87.7473952  22.5479467  36.7158776  85.2387991  30.4366003  31.1940609
  85.1042459  29.6766404  30.6278607  84.8220053  31.1606903  30.7269398
  82.7272059  17.7985633  37.4433406  83.3730922  17.2884587  37.9320631
  82.5189210  18.5354315  38.0176831  87.0669550  14.9453250  41.5408420
  87.9301011  14.5890055  41.7511744  86.4934960  14.6067145  42.2283824
   7.6050212  42.0488982  76.6862472   6.9538191  42.6343063  76.2996486
   8.3994575  42.5795177  76.7457509   1.5305839  39.1378120  77.0849606
   2.3036715  38.5907107  76.9462482   1.8831238  40.0022369  77.2964068
   3.8672117  35.2970786  74.7168056   4.1197637  34.7752307  73.9551519
   2.9296676  35.1336931  74.8194740   9.0825477  39.7379414  77.2231456
   8.4471310  39.8114041  77.9352361   8.7522883  40.3273013  76.5450535
  11.2479720  34.6178069  77.4327470  12.1597577  34.8505456  77.2575167
  10.7389367  35.2015113  76.8702548  13.7338535  40.5358325  82.1785415
  13.0489573  40.9157227  81.6282448  13.8182384  41.1453652  82.9117363
  20.1941287  37.4028988  83.2988087  19.4404996  36.8336386  83.1432092
  20.3288828  37.3691653  84.2458722   5.5839915  42.2742391  78.9742807
   5.4485590  43.1193926  79.4027654   6.1249728  42.4761668  78.2108740
   8.8982662  35.7881564  76.0114135   8.3829285  36.5586168  76.2502523
   8.6259970  35.1146700  76.6347197  13.8716936  38.5413918  77.9467309
  13.0946378  38.2025078  77.5022471  14.5508417  38.5466541  77.2722274
   7.1315397  39.8198879  79.4866870   6.6036758  39.0851639  79.1740108
   6.6302899  40.5973555  79.2406839   5.2767997  37.6379089  72.4901843
   4.3695058  37.4068343  72.6892992   5.7739029  36.8416709  72.6775825
   8.1836076  46.3476596  75.4098530   7.5097774  46.6508293  76.0183487
   8.5701898  47.1505677  75.0603987   6.4556230  37.7391684  77.0125833
   5.5467449  37.4550717  77.1098303   6.4851314  38.1590763  76.1529140
  11.6875498  41.3498274  80.7817001  11.2337825  40.5089184  80.8382191
  11.0569464  41.9859672  81.1191781  10.1308437  43.1874770  81.7166819
  10.4231411  43.7479827  80.9979185  10.6407057  43.4803331  82.4719978
   6.1532318  39.2800428  74.3513912   5.7151748  38.5636287  73.8919549
   6.8942759  39.5076543  73.7899003  14.2705433  37.5557625  80.4090231
  14.1323331  37.7459221  79.4811420  13.9141652  38.3177008  80.8658282
   6.3827291  46.5156269  77.6245609   6.5579046  46.0444312  78.4391231
   5.6960079  47.1422035  77.8526869  10.2743546  38.1384809  73.9445970
   9.6572716  37.4131638  73.8479022   9.8060034  38.8994170  73.6013044
   2.0642092  32.3570234  73.0667274   1.1871558  32.2359035  72.7029521
   2.5399845  31.5656312  72.8146163   5.2506018  44.7096524  80.3129794
   4.4673539  45.2518204  80.4068019   5.9498763  45.2270504  80.7124036
   9.6432448  39.2762841  80.5302423   8.7088727  39.3964303  80.3607127
   9.8209117  38.3735308  80.2662433  11.0981231  41.4623981  78.0638609
  11.3741075  41.3480576  78.9732483  10.2285730  41.0641466  78.0250782
   7.7335295  45.7110332  81.7071423   7.9157689  44.8931988  82.1699175
   8.5568281  45.9278024  81.2696313   8.0677460  44.6378517  78.9686471
   8.5965227  44.1270972  78.3556634   8.3305680  44.3221048  79.8332004
  11.1617644  44.6095316  79.5841454  11.3354521  44.0441738  78.8315307
  11.6546535  45.4096210  79.4020944  17.0157035  37.3731738  81.2031754
  17.4588181  36.6239064  80.8050877  16.1383545  37.3641875  80.8205486
  12.1492816  43.9262080  76.6838353  12.8443721  44.5468773  76.9025667
  12.4915966  43.0757431  76.9590731  14.0484239  41.3761785  78.2125683
  14.5735564  41.7149058  77.4875004  13.9606592  40.4408801  78.0288818
   2.7412279  41.5375701  78.1201699   2.8900400  42.2211166  77.4668372
   3.5478723  41.5180791  78.6351155   6.2407685  44.0323832  75.5913446
   5.6681652  44.6514019  75.1383918   6.8140478  44.5823193  76.1253368
   9.4604945  44.3160982  76.7222029  10.3935618  44.2506543  76.9254904
   9.3728157  45.1517249  76.2636561  12.0892961  43.6326852  73.6825976
  12.0106593  43.2986716  74.5761734  12.9102628  44.1248620  73.6817448
   6.6254483  35.3684644  72.9329499   7.5713588  35.2390853  73.0017917
   6.2468728  34.6299306  73.4098927   4.8097400  33.2934621  72.8684384
   3.9028856  32.9967733  72.9447098   5.0873381  32.9964439  72.0018670
   3.5796185  30.1521556  73.0096363   4.4415349  30.4776454  73.2692181
   3.7646529  29.3653052  72.4969429   9.6596913  40.9494848  73.3035954
  10.3632763  41.1544850  73.9193610   8.9359562  41.5171609  73.5685038
  10.4894723  36.7004709  79.4238225  10.4329925  37.1573260  78.5845857
  11.0423066  35.9395393  79.2461067  11.5683610  41.3877377  75.3534415
  12.4029214  40.9558575  75.1711889  11.4067953  41.2159390  76.2811309
  11.2229503  37.8909490  76.7190754  11.1678306  37.7253761  75.7779198
  10.5975558  38.5985523  76.8752944  20.1967886  51.9047028  85.4489591
  20.8346295  51.7853775  84.7452931  20.0788728  52.8527872  85.5077543
  17.0057592  51.8574456  85.3851116  16.6676103  51.7415521  84.4971651
  17.8747360  51.4565621  85.3652122  12.8644408  53.7109932  81.3748007
  12.3009273  53.6199869  80.6064295  12.7496803  52.8909837  81.8550499
  18.4443966  57.3780900  76.6862472  17.7931946  57.9634980  76.2996486
  19.2388329  57.9087095  76.7457509  12.3699593  54.4670037  77.0849606
  13.1430469  53.9199024  76.9462482  12.7224992  55.3314287  77.2964068
  15.1340843  53.1723268  86.8817865  15.7304415  52.9479290  86.1674828
  15.1915814  52.4308013  87.4843313  14.7065871  50.6262703  74.7168056
  14.9591392  50.1044225  73.9551519  13.7690430  50.4628849  74.8194740
  19.7509154  49.6298482  82.5242799  20.5372243  49.2117905  82.1733216
  20.0147858  50.5344574  82.6924448  19.9219231  55.0671332  77.2231456
  19.2865064  55.1405959  77.9352361  19.5916638  55.6564931  76.5450535
  25.1517581  49.5673715  83.4275778  25.8842753  48.9972932  83.6613607
  24.3956937  49.1795315  83.8682283  14.4262160  52.5290809  76.9192431
  14.3098418  51.8535713  77.5873515  14.5364420  52.0423183  76.1024584
  16.7693701  51.9900956  80.6239120  16.4051908  51.4631577  81.3352042
  17.6260817  51.5999425  80.4505606  16.4099188  47.0190856  75.6200469
  16.5773590  47.8871092  75.9870940  16.2196357  47.1818138  74.6961758
  19.1674521  55.4807835  87.2866299  18.8675244  56.3832874  87.1782106
  18.8225581  55.2140018  88.1387452  12.6187003  51.9321632  83.3203004
  11.6937499  51.7997846  83.5280695  12.8671416  52.7115851  83.8172946
  22.5671665  47.9990375  84.9663736  21.6588542  47.9305784  84.6722497
  22.5159261  48.4762320  85.7945562  16.3888409  49.4748514  76.6047136
  16.2688034  49.9205564  77.4432616  15.6940997  49.8233831  76.0460674
  24.4333311  46.2006814  86.7441610  23.7907691  46.4939347  86.0981405
  23.9288240  46.0859734  87.5494807  22.0873475  49.9469987  77.4327470
  22.9991331  50.1797374  77.2575167  21.5783122  50.5307031  76.8702548
  16.7245313  49.3067221  88.4422319  17.5706508  49.7306635  88.5856968
  16.6643950  48.6500846  89.1360882  20.6943057  54.9295805  84.8241051
  20.0651920  55.0941519  84.1217119  20.3068719  55.3437415  85.5952015
  24.5732289  55.8650243  82.1785415  23.8883327  56.2449144  81.6282448
  24.6576138  56.4745570  82.9117363  21.8283221  53.5110202  88.7780758
  22.0400116  54.1541962  88.1015139  21.7812969  52.6772519  88.3102688
  19.4309450  46.1228023  85.6817331  18.5693929  46.4209276  85.9734068
  19.4571884  46.3398422  84.7498363  16.2471019  54.6670213  82.0891136
  16.7109365  54.9457916  81.2995759  15.9827817  53.7653658  81.9064227
  15.1839905  50.7893366  78.8980701  15.8863948  51.2414409  79.3654628
  14.8520534  50.1477185  79.5260594  22.9429049  56.3882158  86.9503116
  23.7646492  55.9862345  86.6685797  22.9391452  56.2850392  87.9019232
  10.8779984  49.4121498  81.1581312  10.0811148  49.5240192  81.6764807
  10.6505577  49.7508150  80.2922202  31.0335042  52.7320906  83.2988087
  30.2798750  52.1628304  83.1432092  31.1682583  52.6983570  84.2458722
  16.4233670  57.6034308  78.9742807  16.2879345  58.4485844  79.4027654
  16.9643482  57.8053586  78.2108740   9.8763067  55.1209746  79.5470732
  10.3887588  55.9152997  79.6976296  10.5285780  54.4236037  79.4804333
   7.8411984  53.4498401  80.3230302   8.6787206  53.8595409  80.1064010
   8.0190252  52.5097843  80.2930496  19.7376416  51.1173481  76.0114135
  19.2223039  51.8878086  76.2502523  19.4653724  50.4438617  76.6347197
  17.3223527  45.9623182  81.0699374  16.4665123  45.5730032  80.8905012
  17.7350479  46.0415143  80.2099159  18.8522674  43.4969525  85.4690933
  18.3487469  43.4599660  84.6558739  19.1453281  44.4062268  85.5287590
  15.0965560  43.5808255  84.4757115  15.9618556  43.3851064  84.1163004
  15.1643068  43.3518607  85.4026472  24.7110690  53.8705836  77.9467309
  23.9340133  53.5316995  77.5022471  25.3902171  53.8758459  77.2722274
  19.5262719  48.9900573  77.8373916  19.2212855  49.3046723  78.6884060
  20.4793161  49.0681993  77.8801249  17.9709151  55.1490797  79.4866870
  17.4430513  54.4143556  79.1740108  17.4696654  55.9265473  79.2406839
  22.9501997  53.3439817  84.6033917  22.2925672  54.0339079  84.6914045
  23.7542396  53.7336249  84.9467903  12.7027879  45.8110463  81.8473482
  13.2771631  45.5885644  81.1146675  13.2898861  45.8799157  82.6002083
  21.7607456  51.6984190  82.6537858  22.2739338  52.3314182  83.1559568
  22.4108680  51.0985385  82.2881218  13.0297466  47.8414924  75.8669367
  12.1934778  48.1789611  76.1878642  12.8902235  47.7063904  74.9296504
  15.0050546  42.6851712  80.5748551  14.3514959  42.3700729  79.9505166
  14.9631021  42.0627452  81.3008374  16.1161751  52.9671007  72.4901843
  15.2088813  52.7360260  72.6892992  16.6132783  52.1708626  72.6775825
  19.0229830  61.6768514  75.4098530  18.3491529  61.9800211  76.0183487
  19.4095652  62.4797594  75.0603987  18.2388287  49.1733645  84.8996199
  17.3210848  49.3948592  84.7417887  18.6548430  49.2479956  84.0407906
  19.0223334  50.5725061  80.0298879  19.7695153  51.0846458  79.7206001
  19.2914924  50.2509114  80.8903273  17.2949985  53.0683602  77.0125833
  16.3861204  52.7842635  77.1098303  17.3245068  53.4882680  76.1529140
  22.5269252  56.6790191  80.7817001  22.0731579  55.8381101  80.8382191
  21.8963219  57.3151590  81.1191781  21.4702172  47.6082177  82.0117668
  20.7324928  47.0959564  82.3427911  21.7228945  47.1682559  81.2000945
  20.9702191  58.5166688  81.7166819  21.2625166  59.0771745  80.9979185
  21.4800812  58.8095249  82.4719978  21.5713799  40.3858429  82.6059438
  21.8772676  39.5255793  82.3185353  22.2966404  40.9776050  82.4058432
   7.8638155  50.7889116  80.9941036   7.6662555  50.1958477  80.2692102
   7.3084819  50.4841326  81.7116974  15.8434879  50.6812222  83.1135629
  15.8983488  49.7286059  83.0378105  15.0326081  50.8371662  83.5976927
  16.9926072  54.6092345  74.3513912  16.5545502  53.8928204  73.8919549
  17.7336513  54.8368460  73.7899003  13.7827239  49.2989282  80.8726008
  12.9695104  49.5983453  81.2791200  14.2786233  48.9044971  81.5900490
  15.9335817  59.2947039  82.8060272  15.8911995  59.5207885  81.8768804
  16.8498515  59.0610414  82.9546073  19.3801450  49.7631107  89.7040902
  19.7350838  49.9902580  90.5635367  20.0273582  50.0949483  89.0818157
  25.1099187  52.8849543  80.4090231  24.9717086  53.0751138  79.4811420
  24.7535406  53.6468925  80.8658282  13.2741313  46.8707638  86.4887243
  13.9140693  46.7296397  85.7910206  12.4418844  46.5842151  86.1125845
  25.1368567  54.9526070  85.4201502  25.5705074  54.8601359  86.2684556
  25.8500148  54.9283570  84.7821518  14.0501617  56.1710068  82.6022235
  14.8442216  55.6760388  82.4004810  13.3393310  55.6427931  82.2389941
  10.3584381  50.3153150  78.6781988   9.4281969  50.2537605  78.8951950
  10.4541853  49.7929103  77.8818629  10.2769930  46.8407963  81.2660229
  10.5376747  47.7553296  81.1569390  11.0987102  46.3732405  81.4156842
  25.9984116  54.9949770  87.9534387  26.1920007  55.8995581  88.1993662
  25.8984735  54.5357189  88.7872973  17.8284562  52.7188426  88.5121535
  18.7576622  52.8699585  88.3390502  17.4075592  52.8072446  87.6570181
  17.2221045  61.8448187  77.6245609  17.3972801  61.3736230  78.4391231
  16.5353833  62.4713953  77.8526869  18.1778108  56.1220693  83.6708910
  17.8427941  56.0821463  84.5666560  17.6782054  55.4565409  83.1979320
  21.1137300  53.4676727  73.9445970  20.4966471  52.7423555  73.8479022
  20.6453789  54.2286087  73.6013044  12.9035846  47.6862151  73.0667274
  12.0265312  47.5650952  72.7029521  13.3793599  46.8948230  72.8146163
  22.7708839  56.1415219  89.8365730  21.8835618  55.8041141  89.9592129
  23.3407390  55.4098251  90.0734495  16.0899772  60.0388442  80.3129794
  15.3067294  60.5810122  80.4068019  16.7892517  60.5562421  80.7124036
  19.3996422  45.8483071  82.9564000  19.8965122  45.0953034  82.6365070
  18.6283404  45.8847388  82.3907209  27.2526180  51.5523437  84.5982291
  27.2416056  52.4348152  84.2276224  26.3843559  51.1994988  84.4036828
  20.4826203  54.6054758  80.5302423  19.5482482  54.7256221  80.3607127
  20.6602871  53.7027225  80.2662433  15.9831391  47.9900454  82.6835684
  15.6129178  47.4371495  83.3716590  16.4790483  47.3858588  82.1310684
  23.8698754  50.4472078  81.0652457  24.3359206  51.2800069  80.9912760
  24.3206255  49.9817059  81.7697716  21.9374985  56.7915899  78.0638609
  22.2134829  56.6772494  78.9732483  21.0679484  56.3933384  78.0250782
  21.8415417  42.8152665  85.1043359  20.9278497  43.0456892  85.2725566
  22.2708518  42.8991109  85.9557391  21.6121875  51.0042557  87.6043253
  20.9593326  51.2518464  86.9495705  21.9902255  50.1906695  87.2705730
  18.5729049  61.0402250  81.7071423  18.7551444  60.2223906  82.1699175
  19.3962035  61.2569942  81.2696313  18.9071215  59.9670435  78.9686471
  19.4358981  59.4562890  78.3556634  19.1699434  59.6512965  79.8332004
   7.6314540  49.2804007  78.5080180   7.9267981  48.3714685  78.4547233
   6.7302576  49.2591746  78.1861182  19.5400619  61.0011271  85.3130588
  19.4151758  60.2001011  84.8041533  20.1979710  61.4957464  84.8244558
  11.1608787  47.3560003  84.4907728  10.4395373  47.9695971  84.3515201
  11.9502043  47.8917768  84.4124374  21.6035527  58.8020291  86.9410138
  20.6565863  58.6825642  86.8688465  21.9518300  57.9142789  87.0236399
   9.3602381  46.9618104  78.6319505   9.0315088  46.0815483  78.4494611
   9.7141752  46.9065773  79.5195894  18.6081960  58.5973007  83.1414490
  18.4606923  57.6689714  83.3222060  19.4335454  58.6193098  82.6571565
  12.4744205  47.2491074  78.9994982  12.8140277  47.7776995  78.2773591
  12.9216325  47.5871480  79.7753549  22.2116082  59.4201566  84.2279363
  23.1362630  59.2144427  84.0903814  22.0431386  59.1717967  85.1368704
  14.4612352  45.7465696  77.1988275  15.1820714  46.1246949  76.6951992
  13.8377656  46.4654573  77.3023253  18.6043475  46.4510845  78.1346607
  18.8207089  47.3335483  77.8335436  18.1237542  46.0597058  77.4052249
  13.3442696  49.4096558  84.7117352  13.1987277  49.7236861  85.6041634
  12.8667900  50.0281458  84.1588251  15.2039079  46.3999106  84.7598242
  15.1900648  45.5040199  84.4230540  15.9211507  46.4069770  85.3936528
  17.0565210  46.8336446  86.8051369  16.7982987  47.7553517  86.8035699
  16.5250250  46.4366881  87.4951833  22.0011398  59.9387233  79.5841454
  22.1748276  59.3733656  78.8315307  22.4940290  60.7388128  79.4020944
  14.6075975  45.2813486  80.0285812  14.7291886  44.3530132  80.2276699
  14.3178017  45.2952172  79.1164127  17.4767165  42.9668397  83.1652532
  17.4988862  43.0307730  82.2104511  17.8935224  42.1272905  83.3593038
  27.8550790  52.7023656  81.2031754  28.2981936  51.9530981  80.8050877
  26.9777300  52.6933793  80.8205486  22.9886571  59.2553998  76.6838353
  23.6837475  59.8760690  76.9025667  23.3309721  58.4049349  76.9590731
  24.8877994  56.7053703  78.2125683  25.4129318  57.0440976  77.4875004
  24.8000347  55.7700718  78.0288818  24.6969775  54.1879073  90.8309610
  24.7467780  54.0229081  91.7725133  24.5883698  53.3206332  90.4407491
  13.5806034  56.8667619  78.1201699  13.7294154  57.5503083  77.4668372
  14.3872477  56.8472709  78.6351155  26.1987972  56.6076015  91.0751632
  25.9072780  56.9705995  91.9115092  25.5860103  55.8943023  90.8964964
  27.3983654  54.1728894  83.5954202  28.2330546  54.6118699  83.7591762
  27.5342783  53.6967548  82.7762448  24.4475160  51.7308629  89.5431689
  24.9229282  51.9236276  88.7350541  23.5240726  51.7867815  89.2975073
  11.3358667  52.8932797  79.1262768  11.0904709  51.9895127  79.3242978
  11.5054581  52.8949947  78.1842246  10.6054314  48.6261154  76.6248929
   9.9123559  48.7005509  75.9688965  10.3606066  47.8621498  77.1470446
  19.2767971  40.1856755  84.0288420  19.5569725  39.5179944  84.6548847
  20.0618578  40.3785851  83.5163084  17.0801439  59.3615749  75.5913446
  16.5075406  59.9805936  75.1383918  17.6534233  59.9115111  76.1253368
  23.1476829  48.6074389  87.7759995  24.0994252  48.7072487  87.7972219
  22.9780280  47.8152658  88.2858079  21.1691209  45.6929973  87.9619396
  20.5741141  45.9734985  87.2665885  20.8840905  46.1823874  88.7336137
  20.2998699  59.6452899  76.7222029  21.2329372  59.5798461  76.9254904
  20.2121912  60.4809166  76.2636561  22.9286716  58.9618770  73.6825976
  22.8500347  58.6278633  74.5761734  23.7496383  59.4540538  73.6817448
  25.6264907  51.8280509  86.8902295  25.5941227  50.8896510  87.0761979
  26.2365531  51.9064546  86.1568120  17.4648238  50.6976562  72.9329499
  18.4107343  50.5682770  73.0017917  17.0862483  49.9591224  73.4098927
  25.7759395  48.6191553  86.9360578  25.2598444  47.8350009  86.7490507
  26.6599344  48.2910269  87.1007097  23.4370122  42.3632568  82.8956391
  23.2394943  42.0547656  83.7799723  24.0469828  43.0894207  83.0254320
  31.4441457  52.8896516  86.0308332  32.1744845  52.6281804  86.5916035
  30.8348402  52.1525238  86.0710400  29.5256754  51.0304379  86.6282783
  28.7989917  50.8960343  86.0199274  29.1104041  51.3381207  87.4339501
  15.6491155  48.6226538  72.8684384  14.7422610  48.3259651  72.9447098
  15.9267136  48.3256357  72.0018670  17.2653221  43.1663428  79.0228625
  16.4553949  42.8210513  79.3983871  17.9537638  42.8570972  79.6116237
  19.1943769  42.2441475  80.6452922  19.7474808  42.6636928  81.3042945
  19.4313855  41.3177223  80.6875878  14.4189940  45.4813474  73.0096363
  15.2809104  45.8068372  73.2692181  14.6040284  44.6944970  72.4969429
  22.5722576  44.3542000  80.1531586  21.9921245  45.0126804  79.7709639
  22.3058509  43.5319345  79.7419004  21.0226142  43.7547058  82.3552907
  21.5225921  43.8663592  81.5467225  21.6661750  43.4508111  82.9953715
  21.3547454  46.5142091  79.2087934  20.4673309  46.7991741  78.9908129
  21.7701443  46.3535854  78.3615211  24.7061990  46.5388612  82.9242274
  25.4822380  47.0285064  83.1966891  23.9810124  46.9646666  83.3814143
  27.1434549  47.2516231  83.9816214  27.7379040  47.0111967  83.2709523
  27.2161133  46.5323361  84.6089751  20.4990668  56.2786765  73.3035954
  21.2026518  56.4836768  73.9193610  19.7753316  56.8463527  73.5685038
  21.3288478  52.0296626  79.4238225  21.2723679  52.4865178  78.5845857
  21.8816820  51.2687311  79.2461067  25.1393284  47.8186358  80.2488344
  24.8830218  47.4182994  81.0796552  24.5146152  48.5330152  80.1238483
  29.4505622  50.5582432  82.7559636  28.8905180  50.6275621  83.5291198
  28.8449125  50.3823416  82.0359132  22.4077365  56.7169294  75.3534415
  23.2422969  56.2850493  75.1711889  22.2461708  56.5451308  76.2811309
  22.0623257  53.2201408  76.7190754  22.0072061  53.0545679  75.7779198
  21.4369312  53.9277441  76.8752944  15.3719383  42.7209517  76.2976072
  15.3598052  43.6651357  76.4544343  16.2642804  42.5379662  76.0035533
  19.1871502  39.3152293  80.5522009  18.4203898  38.7610780  80.6978691
  19.5982207  39.3874162  81.4136161  31.0361640  67.2338946  85.4489591
  31.6740050  67.1145693  84.7452931  30.9182483  68.1819789  85.5077543
  27.8451346  67.1866374  85.3851116  27.5069858  67.0707438  84.4971651
  28.7141114  66.7857539  85.3652122  23.7038162  69.0401850  81.3748007
  23.1403027  68.9491787  80.6064295  23.5890557  68.2201754  81.8550499
  29.2837721  72.7072818  76.6862472  28.6325700  73.2926898  76.2996486
  30.0782084  73.2379013  76.7457509  23.2093348  69.7961955  77.0849606
  23.9824224  69.2490942  76.9462482  23.5618747  70.6606204  77.2964068
  25.9734597  68.5015186  86.8817865  26.5698170  68.2771208  86.1674828
  26.0309569  67.7599931  87.4843313  25.5459626  65.9554621  74.7168056
  25.7985146  65.4336142  73.9551519  24.6084185  65.7920766  74.8194740
  30.5902909  64.9590399  82.5242799  31.3765998  64.5409823  82.1733216
  30.8541613  65.8636492  82.6924448  30.7612986  70.3963250  77.2231456
  30.1258819  70.4697876  77.9352361  30.4310392  70.9856848  76.5450535
  35.9911336  64.8965633  83.4275778  36.7236508  64.3264849  83.6613607
  35.2350691  64.5087233  83.8682283  25.2655914  67.8582727  76.9192431
  25.1492173  67.1827630  77.5873515  25.3758174  67.3715101  76.1024584
  27.6087455  67.3192874  80.6239120  27.2445663  66.7923495  81.3352042
  28.4654571  66.9291343  80.4505606  33.5136756  58.6087207  87.8870386
  33.1820081  59.4782618  87.6631601  32.9182369  58.2923491  88.5664417
  27.2492942  62.3482774  75.6200469  27.4167345  63.2163010  75.9870940
  27.0590111  62.5110055  74.6961758  30.0068276  70.8099753  87.2866299
  29.7068999  71.7124791  87.1782106  29.6619335  70.5431936  88.1387452
  23.4580757  67.2613549  83.3203004  22.5331253  67.1289764  83.5280695
  23.7065170  68.0407769  83.8172946  33.4065419  63.3282293  84.9663736
  32.4982297  63.2597701  84.6722497  33.3553015  63.8054238  85.7945562
  27.2282163  64.8040431  76.6047136  27.1081788  65.2497482  77.4432616
  26.5334752  65.1525749  76.0460674  35.2727066  61.5298731  86.7441610
  34.6301446  61.8231264  86.0981405  34.7681994  61.4151652  87.5494807
  32.9267229  65.2761904  77.4327470  33.8385085  65.5089291  77.2575167
  32.4176876  65.8598949  76.8702548  27.5639067  64.6359139  88.4422319
  28.4100262  65.0598553  88.5856968  27.5037705  63.9792763  89.1360882
  31.5336812  70.2587723  84.8241051  30.9045674  70.4233437  84.1217119
  31.1462474  70.6729332  85.5952015  35.4126044  71.1942161  82.1785415
  34.7277082  71.5741062  81.6282448  35.4969893  71.8037487  82.9117363
  30.7138512  62.2963507  90.1003493  30.4699444  63.0505568  89.5637769
  30.9898443  62.6748855  90.9350740  30.2703204  61.4519940  85.6817331
  29.4087683  61.7501194  85.9734068  30.2965639  61.6690339  84.7498363
  27.0864774  69.9962131  82.0891136  27.5503119  70.2749834  81.2995759
  26.8221572  69.0945576  81.9064227  26.0233660  66.1185283  78.8980701
  26.7257703  66.5706327  79.3654628  25.6914288  65.4769102  79.5260594
  21.7173739  64.7413415  81.1581312  20.9204902  64.8532109  81.6764807
  21.4899331  65.0800067  80.2922202  41.8728796  68.0612824  83.2988087
  41.1192505  67.4920222  83.1432092  42.0076337  68.0275488  84.2458722
  27.2627424  72.9326226  78.9742807  27.1273099  73.7777762  79.4027654
  27.8037237  73.1345504  78.2108740  20.7156822  70.4501664  79.5470732
  21.2281342  71.2444914  79.6976296  21.3679534  69.7527954  79.4804333
  30.6119888  56.4556788  87.5041700  30.2684157  57.3458430  87.4280811
  30.9798850  56.2658445  86.6411285  18.6805738  68.7790318  80.3230302
  19.5180960  69.1887327  80.1064010  18.8584006  67.8389760  80.2930496
  30.5770171  66.4465399  76.0114135  30.0616794  67.2170004  76.2502523
  30.3047479  65.7730535  76.6347197  28.1617282  61.2915100  81.0699374
  27.3058878  60.9021950  80.8905012  28.5744233  61.3707061  80.2099159
  29.6916428  58.8261443  85.4690933  29.1881224  58.7891578  84.6558739
  29.9847035  59.7354186  85.5287590  25.9359314  58.9100173  84.4757115
  26.8012311  58.7142981  84.1163004  26.0036823  58.6810524  85.4026472
  35.5504445  69.1997754  77.9467309  34.7733887  68.8608913  77.5022471
  36.2295926  69.2050377  77.2722274  30.3656474  64.3192491  77.8373916
  30.0606609  64.6338640  78.6884060  31.3186916  64.3973911  77.8801249
  28.8102906  70.4782714  79.4866870  28.2824267  69.7435474  79.1740108
  28.3090408  71.2557391  79.2406839  33.7895752  68.6731735  84.6033917
  33.1319426  69.3630996  84.6914045  34.5936151  69.0628167  84.9467903
  23.5421633  61.1402381  81.8473482  24.1165385  60.9177562  81.1146675
  24.1292616  61.2091075  82.6002083  32.6001210  67.0276108  82.6537858
  33.1133092  67.6606099  83.1559568  33.2502434  66.4277303  82.2881218
  23.8691220  63.1706842  75.8669367  23.0328533  63.5081528  76.1878642
  23.7295990  63.0355821  74.9296504  25.8444301  58.0143630  80.5748551
  25.1908713  57.6992647  79.9505166  25.8024775  57.3919370  81.3008374
  26.9555506  68.2962925  72.4901843  26.0482567  68.0652178  72.6892992
  27.4526538  67.5000544  72.6775825  29.8623585  77.0060432  75.4098530
  29.1885283  77.3092129  76.0183487  30.2489407  77.8089512  75.0603987
  29.0782041  64.5025563  84.8996199  28.1604603  64.7240510  84.7417887
  29.4942185  64.5771874  84.0407906  29.8617089  65.9016979  80.0298879
  30.6088908  66.4138376  79.7206001  30.1308679  65.5801031  80.8903273
  28.1343739  68.3975519  77.0125833  27.2254958  68.1134552  77.1098303
  28.1638823  68.8174598  76.1529140  33.3663007  72.0082109  80.7817001
  32.9125334  71.1673019  80.8382191  32.7356973  72.6443507  81.1191781
  32.3095926  62.9374095  82.0117668  31.5718683  62.4251481  82.3427911
  32.5622700  62.4974477  81.2000945  31.8095946  73.8458606  81.7166819
  32.1018920  74.4063663  80.9979185  32.3194566  74.1387167  82.4719978
  32.4107553  55.7150347  82.6059438  32.7166430  54.8547710  82.3185353
  33.1360158  56.3067967  82.4058432  18.7031910  66.1181034  80.9941036
  18.5056309  65.5250394  80.2692102  18.1478574  65.8133244  81.7116974
  26.6828633  66.0104140  83.1135629  26.7377243  65.0577976  83.0378105
  25.8719835  66.1663579  83.5976927  27.8319827  69.9384263  74.3513912
  27.3939257  69.2220122  73.8919549  28.5730268  70.1660378  73.7899003
  24.6220993  64.6281200  80.8726008  23.8088859  64.9275370  81.2791200
  25.1179987  64.2336889  81.5900490  26.7729571  74.6238957  82.8060272
  26.7305750  74.8499803  81.8768804  27.6892270  74.3902331  82.9546073
  30.2195205  65.0923024  89.7040902  30.5744593  65.3194497  90.5635367
  30.8667336  65.4241401  89.0818157  35.9492942  68.2141460  80.4090231
  35.8110840  68.4043056  79.4811420  35.5929161  68.9760843  80.8658282
  24.1135068  62.1999555  86.4887243  24.7534447  62.0588314  85.7910206
  23.2812598  61.9134069  86.1125845  35.9762321  70.2817987  85.4201502
  36.4098828  70.1893276  86.2684556  36.6893902  70.2575488  84.7821518
  24.8895372  71.5001986  82.6022235  25.6835970  71.0052306  82.4004810
  24.1787064  70.9719849  82.2389941  21.1978135  65.6445068  78.6781988
  20.2675723  65.5829523  78.8951950  21.2935607  65.1221020  77.8818629
  21.1163684  62.1699880  81.2660229  21.3770502  63.0845214  81.1569390
  21.9380857  61.7024323  81.4156842  28.4914182  60.2099578  90.4524715
  27.8442097  60.9089528  90.3589191  29.2615197  60.6435722  90.8200963
  28.6678316  68.0480343  88.5121535  29.5970376  68.1991503  88.3390502
  28.2469346  68.1364364  87.6570181  28.0614800  77.1740104  77.6245609
  28.2366555  76.7028147  78.4391231  27.3747588  77.8005870  77.8526869
  29.0171863  71.4512610  83.6708910  28.6821696  71.4113380  84.5666560
  28.5175809  70.7857326  83.1979320  31.9531055  68.7968645  73.9445970
  31.3360225  68.0715473  73.8479022  31.4847543  69.5578005  73.6013044
  23.7429600  63.0154069  73.0667274  22.8659067  62.8942870  72.7029521
  24.2187354  62.2240147  72.8146163  26.9293527  75.3680359  80.3129794
  26.1461048  75.9102040  80.4068019  27.6286272  75.8854339  80.7124036
  30.2390177  61.1774989  82.9564000  30.7358876  60.4244951  82.6365070
  29.4677158  61.2139306  82.3907209  38.0919934  66.8815354  84.5982291
  38.0809810  67.7640070  84.2276224  37.2237313  66.5286905  84.4036828
  31.3219957  69.9346676  80.5302423  30.3876236  70.0548139  80.3607127
  31.4996626  69.0319143  80.2662433  26.8225145  63.3192372  82.6835684
  26.4522933  62.7663412  83.3716590  27.3184238  62.7150505  82.1310684
  34.7092509  65.7763995  81.0652457  35.1752961  66.6091987  80.9912760
  35.1600009  65.3108977  81.7697716  32.7768740  72.1207817  78.0638609
  33.0528584  72.0064411  78.9732483  31.9073239  71.7225302  78.0250782
  32.6809171  58.1444582  85.1043359  31.7672251  58.3748809  85.2725566
  33.1102273  58.2283026  85.9557391  32.4515630  66.3334474  87.6043253
  31.7987080  66.5810382  86.9495705  32.8296010  65.5198613  87.2705730
  29.4122804  76.3694168  81.7071423  29.5945198  75.5515823  82.1699175
  30.2355790  76.5861860  81.2696313  29.7464969  75.2962353  78.9686471
  30.2752736  74.7854807  78.3556634  30.0093189  74.9804883  79.8332004
  18.4708294  64.6095924  78.5080180  18.7661735  63.7006603  78.4547233
  17.5696330  64.5883664  78.1861182  22.0002541  62.6851921  84.4907728
  21.2789127  63.2987889  84.3515201  22.7895797  63.2209686  84.4124374
  20.1996136  62.2910022  78.6319505  19.8708842  61.4107401  78.4494611
  20.5535507  62.2357691  79.5195894  29.4475715  73.9264925  83.1414490
  29.3000677  72.9981632  83.3222060  30.2729208  73.9485015  82.6571565
  23.3137959  62.5782992  78.9994982  23.6534032  63.1068913  78.2773591
  23.7610080  62.9163398  79.7753549  33.0509837  74.7493483  84.2279363
  33.9756384  74.5436345  84.0903814  32.8825140  74.5009885  85.1368704
  26.0081400  60.9620043  88.4498050  25.6678220  60.1627856  88.8518730
  25.3020406  61.2621753  87.8774884  26.6597872  58.0469355  86.9025373
  27.4823941  57.5729833  86.7804264  26.9035935  58.8259839  87.4024060
  25.3006106  61.0757613  77.1988275  26.0214469  61.4538866  76.6951992
  24.6771410  61.7946490  77.3023253  29.4437229  61.7802762  78.1346607
  29.6600843  62.6627400  77.8335436  28.9631296  61.3888976  77.4052249
  24.1836450  64.7388476  84.7117352  24.0381031  65.0528779  85.6041634
  23.7061654  65.3573376  84.1588251  26.0432833  61.7291024  84.7598242
  26.0294402  60.8332117  84.4230540  26.7605261  61.7361687  85.3936528
  27.8958964  62.1628364  86.8051369  27.6376742  63.0845434  86.8035699
  27.3644004  61.7658798  87.4951833  32.8405153  75.2679151  79.5841454
  33.0142030  74.7025573  78.8315307  33.3334044  76.0680046  79.4020944
  25.4469729  60.6105404  80.0285812  25.5685640  59.6822050  80.2276699
  25.1571772  60.6244090  79.1164127  28.3160920  58.2960314  83.1652532
  28.3382617  58.3599647  82.2104511  28.7328979  57.4564823  83.3593038
  38.6944544  68.0315574  81.2031754  39.1375690  67.2822899  80.8050877
  37.8171054  68.0225710  80.8205486  33.8280325  74.5845915  76.6838353
  34.5231230  75.2052608  76.9025667  34.1703475  73.7341267  76.9590731
  35.7271748  72.0345621  78.2125683  36.2523073  72.3732894  77.4875004
  35.6394101  71.0992636  78.0288818  24.4199788  72.1959537  78.1201699
  24.5687909  72.8795001  77.4668372  25.2266232  72.1764627  78.6351155
  38.2377409  69.5020812  83.5954202  39.0724300  69.9410616  83.7591762
  38.3736538  69.0259465  82.7762448  22.1752421  68.2224714  79.1262768
  21.9298463  67.3187044  79.3242978  22.3448336  68.2241865  78.1842246
  29.8649131  59.0948391  88.5087523  30.3831075  59.8309417  88.1834012
  29.5104264  59.4012384  89.3434283  21.4448069  63.9553072  76.6248929
  20.7517314  64.0297427  75.9688965  21.1999821  63.1913415  77.1470446
  30.1161725  55.5148673  84.0288420  30.3963479  54.8471862  84.6548847
  30.9012332  55.7077769  83.5163084  27.9195194  74.6907667  75.5913446
  27.3469161  75.3097854  75.1383918  28.4927987  75.2407029  76.1253368
  33.9870584  63.9366307  87.7759995  34.9388007  64.0364405  87.7972219
  33.8174034  63.1444576  88.2858079  32.0084963  61.0221890  87.9619396
  31.4134895  61.3026903  87.2665885  31.7234660  61.5115791  88.7336137
  31.1392454  74.9744817  76.7222029  32.0723127  74.9090379  76.9254904
  31.0515666  75.8101084  76.2636561  33.7680470  74.2910687  73.6825976
  33.6894102  73.9570551  74.5761734  34.5890137  74.7832455  73.6817448
  36.4658661  67.1572427  86.8902295  36.4334982  66.2188428  87.0761979
  37.0759285  67.2356463  86.1568120  28.3041992  66.0268480  72.9329499
  29.2501097  65.8974688  73.0017917  27.9256237  65.2883142  73.4098927
  36.6153150  63.9483470  86.9360578  36.0992199  63.1641927  86.7490507
  37.4993098  63.6202187  87.1007097  34.2763877  57.6924486  82.8956391
  34.0788698  57.3839574  83.7799723  34.8863582  58.4186125  83.0254320
  26.4884909  63.9518456  72.8684384  25.5816365  63.6551569  72.9447098
  26.7660890  63.6548274  72.0018670  28.1046975  58.4955346  79.0228625
  27.2947703  58.1502431  79.3983871  28.7931392  58.1862890  79.6116237
  30.0337523  57.5733393  80.6452922  30.5868562  57.9928846  81.3042945
  30.2707610  56.6469141  80.6875878  25.2583694  60.8105391  73.0096363
  26.1202858  61.1360290  73.2692181  25.4434038  60.0236887  72.4969429
  33.4116331  59.6833918  80.1531586  32.8315000  60.3418722  79.7709639
  33.1452263  58.8611262  79.7419004  31.8619897  59.0838976  82.3552907
  32.3619675  59.1955510  81.5467225  32.5055505  58.7800028  82.9953715
  32.1941209  61.8434008  79.2087934  31.3067064  62.1283659  78.9908129
  32.6095198  61.6827772  78.3615211  35.5455745  61.8680529  82.9242274
  36.3216135  62.3576982  83.1966891  34.8203879  62.2938583  83.3814143
  37.9828303  62.5808148  83.9816214  38.5772794  62.3403884  83.2709523
  38.0554887  61.8615279  84.6089751  31.3384422  71.6078683  73.3035954
  32.0420272  71.8128685  73.9193610  30.6147071  72.1755445  73.5685038
  32.1682232  67.3588544  79.4238225  32.1117434  67.8157096  78.5845857
  32.7210575  66.5979229  79.2461067  35.9787038  63.1478276  80.2488344
  35.7223972  62.7474912  81.0796552  35.3539906  63.8622070  80.1238483
  40.2899376  65.8874349  82.7559636  39.7298934  65.9567539  83.5291198
  39.6842879  65.7115334  82.0359132  33.2471119  72.0461212  75.3534415
  34.0816723  71.6142411  75.1711889  33.0855462  71.8743226  76.2811309
  32.9017012  68.5493325  76.7190754  32.8465815  68.3837597  75.7779198
  32.2763067  69.2569358  76.8752944  26.2113137  58.0501434  76.2976072
  26.1991807  58.9943274  76.4544343  27.1036559  57.8671580  76.0035533
  30.0265257  54.6444211  80.5522009  29.2597652  54.0902698  80.6978691
  30.4375961  54.7166080  81.4136161  34.0487102  85.1253873  77.0849606
  34.8217978  84.5782860  76.9462482  34.4012501  85.9898122  77.2964068
  36.3853380  81.2846539  74.7168056  36.6378901  80.7628060  73.9551519
  35.4477939  81.1212684  74.8194740  36.1049669  83.1874645  76.9192431
  35.9885927  82.5119548  77.5873515  36.2151929  82.7007019  76.1024584
  38.0886697  77.6774691  75.6200469  38.2561099  78.5454928  75.9870940
  37.8983866  77.8401973  74.6961758  38.0675918  80.1332349  76.6047136
  37.9475543  80.5789400  77.4432616  37.3728506  80.4817667  76.0460674
  32.5567493  80.0705333  81.1581312  31.7598657  80.1824027  81.6764807
  32.3293086  80.4091985  80.2922202  29.5199493  84.1082236  80.3230302
  30.3574715  84.5179244  80.1064010  29.6977761  83.1681678  80.2930496
  41.4163925  81.7757317  76.0114135  40.9010548  82.5461921  76.2502523
  41.1441233  81.1022453  76.6347197  39.0011036  76.6207017  81.0699374
  38.1452632  76.2313868  80.8905012  39.4137988  76.6998978  80.2099159
  41.2050228  79.6484409  77.8373916  40.9000364  79.9630558  78.6884060
  42.1580670  79.7265829  77.8801249  34.3815388  76.4694298  81.8473482
  34.9559140  76.2469480  81.1146675  34.9686370  76.5382993  82.6002083
  34.7084975  78.4998759  75.8669367  33.8722287  78.8373446  76.1878642
  34.5689744  78.3647739  74.9296504  36.6838055  73.3435547  80.5748551
  36.0302468  73.0284564  79.9505166  36.6418529  72.7211288  81.3008374
  37.7949260  83.6254842  72.4901843  36.8876322  83.3944096  72.6892992
  38.2920292  82.8292462  72.6775825  38.9737494  83.7267437  77.0125833
  38.0648713  83.4426470  77.1098303  39.0032577  84.1466516  76.1529140
  43.2501308  71.0442265  82.6059438  43.5560185  70.1839628  82.3185353
  43.9753913  71.6359885  82.4058432  29.5425664  81.4472951  80.9941036
  29.3450064  80.8542312  80.2692102  28.9872328  81.1425161  81.7116974
  38.6713581  85.2676181  74.3513912  38.2333011  84.5512040  73.8919549
  39.4124022  85.4952296  73.7899003  32.0371890  80.9736985  78.6781988
  31.1069478  80.9121441  78.8951950  32.1329362  80.4512938  77.8818629
  31.9557439  77.4991798  81.2660229  32.2164256  78.4137131  81.1569390
  32.7774611  77.0316241  81.4156842  42.7924809  84.1260562  73.9445970
  42.1753980  83.4007391  73.8479022  42.3241298  84.8869923  73.6013044
  34.5823355  78.3445987  73.0667274  33.7052821  78.2234788  72.7029521
  35.0581108  77.5532065  72.8146163  29.3102049  79.9387842  78.5080180
  29.6055490  79.0298520  78.4547233  28.4090085  79.9175581  78.1861182
  31.0389890  77.6201940  78.6319505  30.7102597  76.7399319  78.4494611
  31.3929261  77.5649608  79.5195894  34.1531714  77.9074909  78.9994982
  34.4927786  78.4360831  78.2773591  34.6003834  78.2455316  79.7753549
  36.1399861  76.4049531  77.1988275  36.8608223  76.7830784  76.6951992
  35.5165165  77.1238408  77.3023253  40.2830984  77.1094680  78.1346607
  40.4994598  77.9919318  77.8335436  39.8025051  76.7180893  77.4052249
  36.2863484  75.9397322  80.0285812  36.4079395  75.0113968  80.2276699
  35.9965526  75.9536008  79.1164127  39.1554674  73.6252232  83.1652532
  39.1776371  73.6891565  82.2104511  39.5722733  72.7856741  83.3593038
  33.0146176  83.5516632  79.1262768  32.7692218  82.6478962  79.3242978
  33.1842090  83.5533782  78.1842246  32.2841823  79.2844989  76.6248929
  31.5911068  79.3589344  75.9688965  32.0393575  78.5205333  77.1470446
  39.1435747  81.3560397  72.9329499  40.0894851  81.2266606  73.0017917
  38.7649992  80.6175059  73.4098927  37.3278664  79.2810374  72.8684384
  36.4210119  78.9843487  72.9447098  37.6054645  78.9840192  72.0018670
  38.9440730  73.8247264  79.0228625  38.1341458  73.4794349  79.3983871
  39.6325147  73.5154807  79.6116237  40.8731278  72.9025310  80.6452922
  41.4262317  73.3220764  81.3042945  41.1101364  71.9761058  80.6875878
  36.0977449  76.1397309  73.0096363  36.9596613  76.4652207  73.2692181
  36.2827793  75.3528805  72.4969429  44.2510085  75.0125835  80.1531586
  43.6708754  75.6710640  79.7709639  43.9846018  74.1903180  79.7419004
  43.0334963  77.1725926  79.2087934  42.1460818  77.4575576  78.9908129
  43.4488952  77.0119689  78.3615211  42.1778177  86.9370601  73.3035954
  42.8814027  87.1420603  73.9193610  41.4540825  87.5047362  73.5685038
  37.0506892  73.3793352  76.2976072  37.0385561  74.3235192  76.4544343
  37.9430313  73.1963497  76.0035533  40.8659011  69.9736129  80.5522009
  40.0991407  69.4194615  80.6978691  41.2769716  70.0457997  81.4136161
   7.6050213  19.0551105  63.4107778   6.9538193  19.6405185  63.0241792
   8.3994576  19.5857300  63.4702816   1.5305840  16.1440242  63.8094913
   2.3036716  15.5969229  63.6707789   1.8831239  17.0084491  64.0209374
   3.8672118  12.3032908  61.4413363   4.1197639  11.7814430  60.6796826
   2.9296677  12.1399054  61.5440046   9.0825478  16.7441537  63.9476763
   8.4471311  16.8176163  64.6597667   8.7522885  17.3335136  63.2695842
   3.3101548  23.9222360  66.9782573   3.2325577  24.8730185  67.0571054
   2.7063191  23.5768233  67.6357500  11.2479722  11.6240192  64.1572776
  12.1597578  11.8567578  63.9820474  10.7389369  12.2077236  63.5947855
  13.7338536  17.5420448  68.9030722  13.0489574  17.9219349  68.3527755
  13.8182385  18.1515775  69.6362669  20.1941288  14.4091111  70.0233394
  19.4404997  13.8398509  69.8677398  20.3288830  14.3753775  70.9704029
   5.5839917  19.2804513  65.6988113   5.4485591  20.1256049  66.1272961
   6.1249729  19.4823791  64.9354047   8.8982663  12.7943686  62.7359442
   8.3829286  13.5648291  62.9747829   8.6259971  12.1208822  63.3592503
  13.8716937  15.5476041  64.6712615  13.0946380  15.2087200  64.2267777
  14.5508418  15.5528664  63.9967580   7.1315398  16.8261002  66.2112177
   6.6036759  16.0913761  65.8985414   6.6302901  17.6035678  65.9652145
   5.2767998  14.6441212  59.2147150   4.3695060  14.4130465  59.4138299
   5.7739030  13.8478831  59.4021132   8.1836077  23.3538719  62.1343836
   7.5097776  23.6570416  62.7428794   8.5701899  24.1567799  61.7849293
   6.4556231  14.7453807  63.7371140   5.5467451  14.4612840  63.8343610
   6.4851315  15.1652885  62.8774447  11.6875499  18.3560396  67.5062308
  11.2337826  17.5151306  67.5627498  11.0569466  18.9921795  67.8437088
  10.1308438  20.1936893  68.4412126  10.4231412  20.7541950  67.7224491
  10.6407059  20.4865454  69.1965285   6.1532319  16.2862550  61.0759219
   5.7151749  15.5698409  60.6164856   6.8942760  16.5138665  60.5144310
  14.2705434  14.5619747  67.1335537  14.1323333  14.7521343  66.2056726
  13.9141653  15.3239130  67.5903588   6.3827292  23.5218391  64.3490915
   6.5579048  23.0506435  65.1636538   5.6960080  24.1484158  64.5772176
  10.2743547  15.1446932  60.6691276   9.6572717  14.4193760  60.5724329
   9.8060035  15.9056292  60.3258351   5.2506019  21.7158647  67.0375101
   4.4673541  22.2580327  67.1313326   5.9498764  22.2332626  67.4369342
   9.6432450  16.2824963  67.2547730   8.7088728  16.4026426  67.0852434
   9.8209118  15.3797430  66.9907740  11.0981232  18.4686104  64.7883916
  11.3741076  18.3542699  65.6977790  10.2285731  18.0703589  64.7496089
   7.7335296  22.7172455  68.4316730   7.9157691  21.8994111  68.8944482
   8.5568282  22.9340147  67.9941620   8.0677462  21.6440640  65.6931778
   8.5965228  21.1333095  65.0801940   8.3305681  21.3283170  66.5577311
  11.1617645  21.6157438  66.3086761  11.3354523  21.0503861  65.5560614
  11.6546536  22.4158333  66.1266251  17.0157036  14.3793861  67.9277061
  17.4588182  13.6301186  67.5296184  16.1383547  14.3703997  67.5450793
  12.1492818  20.9324203  63.4083659  12.8443722  21.5530895  63.6270974
  12.4915968  20.0819554  63.6836037  14.0484241  18.3823908  64.9370990
  14.5735565  18.7211181  64.2120310  13.9606593  17.4470923  64.7534125
   5.7324901  24.4495891  69.2966243   5.2929892  23.9572270  69.9899100
   6.4833018  23.9068859  69.0558319   2.7412281  18.5437824  64.8447006
   2.8900401  19.2273288  64.1913678   3.5478724  18.5242914  65.3596461
   6.2407686  21.0385954  62.3158753   5.6681653  21.6576141  61.8629225
   6.8140480  21.5885316  62.8498675   9.4604946  21.3223104  63.4467335
  10.3935619  21.2568666  63.6500211   9.3728159  22.1579371  62.9881868
  12.0892963  20.6388975  60.4071283  12.0106594  20.3048838  61.3007041
  12.9102629  21.1310743  60.4062755   6.6254485  12.3746767  59.6574805
   7.5713589  12.2452975  59.7263223   6.2468730  11.6361429  60.1344234
   9.6596914  17.9556970  60.0281261  10.3632764  18.1606973  60.6438917
   8.9359563  18.5233732  60.2930345  10.4894725  13.7066831  66.1483531
  10.4329926  14.1635383  65.3091164  11.0423067  12.9457516  65.9706374
  11.5683612  18.3939499  62.0779721  12.4029216  17.9620698  61.8957196
  11.4067955  18.2221513  63.0056616  11.2229504  14.8971613  63.4436060
  11.1678308  14.7315884  62.5024505  10.5975559  15.6047646  63.5998250
  20.1967887  28.9109150  72.1734898  20.8346297  28.7915898  71.4698238
  20.0788730  29.8589994  72.2322850  17.0057593  28.8636579  72.1096423
  16.6676105  28.7477643  71.2216957  17.8747361  28.4627744  72.0897429
  12.8644409  30.7172055  68.0993314  12.3009274  30.6261992  67.3309601
  12.7496804  29.8971959  68.5795806  10.4108841  32.2123247  70.9377534
  11.2030133  31.8714071  70.5223833  10.6505491  32.3218222  71.8579687
  18.4443967  34.3843023  63.4107778  17.7931947  34.9697103  63.0241792
  19.2388330  34.9149218  63.4702816  12.3699595  31.4732160  63.8094913
  13.1430471  30.9261147  63.6707789  12.7224994  32.3376409  64.0209374
  14.2084637  32.8008542  77.0161812  13.9174503  33.7054173  76.9008478
  14.8441622  32.8425070  77.7305882  15.1340844  30.1785391  73.6063172
  15.7304416  29.9541413  72.8920135  15.1915816  29.4370136  74.2088620
  14.7065872  27.6324826  61.4413363  14.9591393  27.1106347  60.6796826
  13.7690432  27.4690971  61.5440046  19.7509155  26.6360604  69.2488106
  20.5372245  26.2180027  68.8978523  20.0147860  27.5406696  69.4169754
  19.9219233  32.0733455  63.9476763  19.2865066  32.1468081  64.6597667
  19.5916639  32.6627053  63.2695842  25.1517582  26.5735837  70.1521084
  25.8842754  26.0035054  70.3858914  24.3956938  26.1857438  70.5927590
  14.4262161  29.5352932  63.6437738  14.3098419  28.8597835  64.3118822
  14.5364421  29.0485306  62.8269891  16.7693702  28.9963079  67.3484427
  16.4051909  28.4693700  68.0597348  17.6260818  28.6061548  67.1750912
  16.4099189  24.0252979  62.3445775  16.5773591  24.8933215  62.7116246
  16.2196358  24.1880260  61.4207065  19.1674522  32.4869958  74.0111606
  18.8675245  33.3894996  73.9027413  18.8225582  32.2202141  74.8632759
  12.6187004  28.9383754  70.0448310  11.6937500  28.8059969  70.2526002
  12.8671417  29.7177974  70.5418253  22.5671666  25.0052498  71.6909043
  21.6588543  24.9367906  71.3967804  22.5159262  25.4824443  72.5190869
  16.3888410  26.4810636  63.3292442  16.2688035  26.9267687  64.1677923
  15.6940998  26.8295954  62.7705980   9.9795815  28.5817028  70.8792099
  10.1088196  28.8351507  71.7931511   9.2993266  29.1744736  70.5596754
  14.1495302  39.2514278  66.9782573  14.0719332  40.2022103  67.0571054
  13.5456946  38.9060150  67.6357500  24.4333312  23.2068936  73.4686917
  23.7907693  23.5001469  72.8226712  23.9288241  23.0921856  74.2740114
  20.3714244  31.3756737  77.7934069  20.7797600  30.9339148  77.0488701
  19.6491505  30.8009365  78.0468262  16.7245314  26.3129344  75.1667626
  17.5706509  26.7368757  75.3102275  16.6643952  25.6562968  75.8606189
  20.6943058  31.9357928  71.5486358  20.0651921  32.1003642  70.8462426
  20.3068721  32.3499537  72.3197322  24.5732290  32.8712366  68.9030722
  23.8883329  33.2511267  68.3527755  24.6576140  33.4807692  69.6362669
  21.8283222  30.5172325  75.5026065  22.0400117  31.1604085  74.8260446
  21.7812970  29.6834641  75.0347995  19.4309451  23.1290145  72.4062637
  18.5693930  23.4271399  72.6979375  19.4571886  23.3460544  71.4743670
  16.2471020  31.6732336  68.8136443  16.7109366  31.9520039  68.0241065
  15.9827818  30.7715780  68.6309534  13.1395101  31.2203817  71.7516206
  13.7096458  31.6491086  71.1133691  13.7303213  30.9386402  72.4500392
  15.1839906  27.7955488  65.6226008  15.8863950  28.2476532  66.0899934
  14.8520535  27.1539307  66.2505901   8.9265240  26.0539041  70.9243142
   8.1364294  26.3096569  70.4483252   9.4176488  26.8687379  71.0295182
  22.9429050  33.3944280  73.6748422  23.7646494  32.9924467  73.3931104
  22.9391453  33.2912514  74.6264538  10.8779986  26.4183620  67.8826618
  10.0811149  26.5302314  68.4010114  10.6505578  26.7570272  67.0167509
  16.7085653  32.9428323  75.8309133  16.7730086  33.4048731  76.6667305
  15.9996577  32.3125688  75.9591443  31.0335043  29.7383029  70.0233394
  30.2798751  29.1690427  69.8677398  31.1682584  29.7045693  70.9704029
  16.4233671  34.6096431  65.6988113  16.2879346  35.4547967  66.1272961
  16.9643484  34.8115709  64.9354047   9.8763068  32.1271869  66.2716038
  10.3887589  32.9215119  66.4221603  10.5285781  31.4298159  66.2049640
  11.6857953  35.2437625  68.3538791  11.8624581  36.1655590  68.1659775
  12.4814787  34.9296044  68.7833171  18.0502147  35.2319997  79.8288455
  17.6066002  34.4456376  79.5109360  18.7119361  35.4199148  79.1632346
  12.8089269  36.7615799  74.3549134  13.3596694  36.6332862  73.5826128
  11.9700744  37.0610688  74.0044027  20.1483385  35.5122797  77.8569857
  20.1301861  36.3331678  77.3650126  21.0703305  35.3876873  78.0819998
  16.6056440  33.0266927  78.6993365  17.1384776  32.2655215  78.4692673
  16.0770521  32.7340579  79.4417519   7.8411985  30.4560523  67.0475609
   8.6787207  30.8657532  66.8309317   8.0190253  29.5159965  67.0175803
  19.7376417  28.1235604  62.7359442  19.2223041  28.8940209  62.9747829
  19.4653726  27.4500740  63.3592503  17.3223528  22.9685305  67.7944680
  16.4665125  22.5792155  67.6150319  17.7350480  23.0477265  66.9344466
  18.8522675  20.5031648  72.1936240  18.3487471  20.4661783  71.3804045
  19.1453282  21.4124391  72.2532897  15.0965561  20.5870378  71.2002422
  15.9618558  20.3913186  70.8408311  15.1643070  20.3580729  72.1271778
  24.7110691  30.8767959  64.6712615  23.9340134  30.5379118  64.2267777
  25.3902172  30.8820582  63.9967580  19.5262720  25.9962696  64.5619223
  19.2212856  26.3108845  65.4129366  20.4793163  26.0744116  64.6046556
  17.9709152  32.1552919  66.2112177  17.4430514  31.4205679  65.8985414
  17.4696655  32.9327596  65.9652145  22.9501998  30.3501940  71.3279223
  22.2925673  31.0401201  71.4159352  23.7542398  30.7398372  71.6713210
  12.7027880  22.8172586  68.5718788  13.2771632  22.5947767  67.8391981
  13.2898862  22.8861280  69.3247390  21.7607457  28.7046312  69.3783165
  22.2739339  29.3376304  69.8804875  22.4108681  28.1047508  69.0126525
  13.0297467  24.8477047  62.5914674  12.1934779  25.1851733  62.9123948
  12.8902237  24.7126026  61.6541811  15.0050548  19.6913834  67.2993858
  14.3514960  19.3762852  66.6750473  14.9631022  19.0689575  68.0253681
  16.1161752  29.9733130  59.2147150  15.2088814  29.7422383  59.4138299
  16.6132784  29.1770749  59.4021132  19.0229831  38.6830637  62.1343836
  18.3491530  38.9862333  62.7428794  19.4095653  39.4859717  61.7849293
  18.2388288  26.1795768  71.6241506  17.3210849  26.4010715  71.4663194
  18.6548432  26.2542078  70.7653213  19.0223336  27.5787184  66.7544186
  19.7695155  28.0908581  66.4451308  19.2914925  27.2571236  67.6148579
  17.2949986  30.0745724  63.7371140  16.3861205  29.7904757  63.8343610
  17.3245070  30.4944803  62.8774447  22.5269253  33.6852314  67.5062308
  22.0731580  32.8443224  67.5627498  21.8963220  34.3213712  67.8437088
  21.4702173  24.6144300  68.7362975  20.7324930  24.1021686  69.0673218
  21.7228946  24.1744682  67.9246252  20.9702193  35.5228811  68.4412126
  21.2625167  36.0833868  67.7224491  21.4800813  35.8157372  69.1965285
  21.5713800  17.3920552  69.3304744  21.8772677  16.5317915  69.0430659
  22.2966405  17.9838172  69.1303738   7.8638156  27.7951239  67.7186342
   7.6662556  27.2020599  66.9937409   7.3084820  27.4903449  68.4362281
  15.8434880  27.6874345  69.8380935  15.8983490  26.7348181  69.7623412
  15.0326082  27.8433784  70.3222234  16.9926074  31.6154468  61.0759219
  16.5545504  30.8990327  60.6164856  17.7336515  31.8430583  60.5144310
  13.7827240  26.3051405  67.5971314  12.9695105  26.6045575  68.0036506
  14.2786234  25.9107094  68.3145797  15.9335818  36.3009162  69.5305579
  15.8911997  36.5270008  68.6014111  16.8498517  36.0672536  69.6791380
  19.3801452  26.7693229  76.4286208  19.7350839  26.9964702  77.2880674
  20.0273583  27.1011606  75.8063463  25.1099189  29.8911665  67.1335537
  24.9717087  30.0813261  66.2056726  24.7535407  30.6531048  67.5903588
  13.2741315  23.8769760  73.2132549  13.9140694  23.7358519  72.5155513
  12.4418845  23.5904274  72.8371151  25.1368568  31.9588192  72.1446809
  25.5705075  31.8663481  72.9929863  25.8500149  31.9345693  71.5066825
  14.0501619  33.1772191  69.3267542  14.8442217  32.6822511  69.1250117
  13.3393311  32.6490054  68.9635247  18.8696463  35.5590286  73.6779909
  18.9233485  36.1281223  74.4457625  18.0011244  35.7292171  73.3133946
  10.3584382  27.3215272  65.4027294   9.4281970  27.2599728  65.6197257
  10.4541854  26.7991225  64.6063936  10.2769931  23.8470085  67.9905536
  10.5376748  24.7615419  67.8814697  11.0987103  23.3794528  68.1402149
  25.9984118  32.0011893  74.6779694  26.1920008  32.9057703  74.9238969
  25.8984736  31.5419312  75.5118279  21.0599226  32.1518636  80.2520575
  20.9084733  31.9229187  79.3350658  21.0503906  33.1089237  80.2651920
  17.8284563  29.7250548  75.2366841  18.7576623  29.8761708  75.0635808
  17.4075593  29.8134569  74.3815488  16.6272895  33.7501213  73.0065379
  16.4883980  33.3819997  73.8791317  15.8387491  34.2648852  72.8349337
  17.2221047  38.8510309  64.3490915  17.3972802  38.3798352  65.1636538
  16.5353835  39.4776075  64.5772176  18.1778110  33.1282815  70.3954217
  17.8427942  33.0883585  71.2911866  17.6782055  32.4627531  69.9224627
  21.1137301  30.4738850  60.6691276  20.4966472  29.7485678  60.5724329
  20.6453790  31.2348210  60.3258351  14.7804654  28.2470405  75.4090477
  15.4904273  27.6063597  75.3677096  14.7373962  28.4983300  76.3316658
  22.7691433  35.1837758  78.3297057  22.7103979  34.4996978  77.6627640
  23.1710951  35.9256748  77.8777683  11.7882132  41.9999672  71.1230776
  12.0278730  42.6318196  71.8009794  10.9451328  41.6487712  71.4096135
  12.9035847  24.6924274  59.7912581  12.0265314  24.5713075  59.4274827
  13.3793600  23.9010352  59.5391469  22.7708840  33.1477342  76.5611036
  21.8835619  32.8103264  76.6837435  23.3407391  32.4160373  76.7979802
   4.4237987  29.4801434  69.8854088   5.1109027  29.1663164  69.2975103
   4.2686116  30.3842798  69.6121339  16.3009994  37.8078794  73.5272279
  16.2280165  38.6133766  74.0391584  15.8587387  38.0070760  72.7020301
  16.0899773  37.0450564  67.0375101  15.3067295  37.5872245  67.1313326
  16.7892518  37.5624544  67.4369342  19.3996423  22.8545194  69.6809306
  19.8965123  22.1015156  69.3610377  18.6283405  22.8909511  69.1152516
  27.2526181  28.5585559  71.3227598  27.2416057  29.4410275  70.9521531
  26.3843560  28.2057110  71.1282135  18.7608677  37.7065628  75.6830438
  19.4736649  38.3413093  75.6106340  18.2698706  37.8029494  74.8670440
  20.4826204  31.6116881  67.2547730  19.5482483  31.7318344  67.0852434
  20.6602873  30.7089348  66.9907740  15.9831392  24.9962577  69.4080991
  15.6129180  24.4433617  70.0961897  16.4790485  24.3920710  68.8555991
  23.8698755  27.4534200  67.7897764  24.3359208  28.2862192  67.7158067
  24.3206256  26.9879182  68.4943022  13.8120591  35.4560072  76.5036009
  14.5130050  36.0896555  76.6565403  13.3415706  35.7974803  75.7431648
  21.9374987  33.7978022  64.7883916  22.2134830  33.6834616  65.6977790
  21.0679485  33.3995506  64.7496089  21.8415418  19.8214787  71.8288665
  20.9278498  20.0519014  71.9970872  22.2708520  19.9053231  72.6802698
  21.6121877  28.0104679  74.3288559  20.9593327  28.2580587  73.6741012
  21.9902257  27.1968817  73.9951037  18.5729051  38.0464372  68.4316730
  18.7551445  37.2286028  68.8944482  19.3962037  38.2632065  67.9941620
  18.9071216  36.9732558  65.6931778  19.4358982  36.4625012  65.0801940
  19.1699436  36.6575088  66.5577311   9.4088309  34.9896427  73.4367112
   9.9941746  34.2440115  73.5695016   9.2113147  35.3000384  74.3203776
  12.2626964  38.0247674  68.4529554  11.5937339  38.5093802  67.9693594
  12.1239834  38.2716895  69.3672933  16.4032233  40.0591418  75.0512212
  16.9550541  40.2223039  75.8161298  16.7438426  40.6495856  74.3792237
  21.2543107  34.8852675  80.9060867  21.7983011  35.4982634  80.4115822
  20.6729952  35.4432254  81.4227880   7.6314541  26.2866129  65.2325486
   7.9267982  25.3776808  65.1792540   6.7302577  26.2653869  64.9106489
  19.5400620  38.0073393  72.0375895  19.4151759  37.2063133  71.5286840
  20.1979711  38.5019587  71.5489865  11.1608788  24.3622126  71.2153035
  10.4395374  24.9758094  71.0760508  11.9502044  24.8979891  71.1369681
  21.6035528  35.8082413  73.6655445  20.6565864  35.6887765  73.5933771
  21.9518301  34.9204911  73.7481706   9.3602383  23.9680227  65.3564811
   9.0315089  23.0877606  65.1739917   9.7141753  23.9127896  66.2441201
  18.6081962  35.6035130  69.8659797  18.4606924  34.6751837  70.0467367
  19.4335455  35.6255220  69.3816872  12.4744206  24.2553197  65.7240289
  12.8140278  24.7839118  65.0018897  12.9216326  24.5933603  66.4998856
  22.2116083  36.4263688  70.9524670  23.1362631  36.2206550  70.8149121
  22.0431387  36.1780090  71.8614011  14.4612353  22.7527818  63.9233582
  15.1820715  23.1309071  63.4197299  13.8377657  23.4716695  64.0268560
  18.6043476  23.4572967  64.8591914  18.8207090  24.3397605  64.5580742
  18.1237543  23.0659181  64.1297556  13.3442697  26.4158681  71.4362659
  13.1987278  26.7298984  72.3286940  12.8667901  27.0343581  70.8833557
  15.2039080  23.4061229  71.4843548  15.1900649  22.5102322  71.1475846
  15.9211508  23.4131892  72.1181834  17.0565211  23.8398569  73.5296676
  16.7982989  24.7615639  73.5281006  16.5250251  23.4429003  74.2197140
  22.0011400  36.9449356  66.3086761  22.1748277  36.3795778  65.5560614
  22.4940291  37.7450251  66.1266251  14.6075976  22.2875609  66.7531118
  14.7291887  21.3592255  66.9522006  14.3178018  22.3014295  65.8409434
  17.4767166  19.9730519  69.8897838  17.4988863  20.0369852  68.9349818
  17.8935225  19.1335028  70.0838344  27.8550791  29.7085779  67.9277061
  28.2981937  28.9593104  67.5296184  26.9777301  29.6995915  67.5450793
  22.9886572  36.2616120  63.4083659  23.6837477  36.8822813  63.6270974
  23.3309722  35.4111471  63.6836037  24.8877995  33.7115826  64.9370990
  25.4129319  34.0503099  64.2120310  24.8000348  32.7762841  64.7534125
  16.5498044  37.6249899  77.0660867  16.8585170  37.3799046  77.9383566
  17.3473526  37.8296538  76.5779737  16.5718656  39.7787809  69.2966243
  16.1323646  39.2864188  69.9899100  17.3226773  39.2360777  69.0558319
   9.0510995  35.9699350  69.2990871   9.8769015  35.6703122  68.9189515
   8.7005047  35.2006972  69.7480660  14.0192528  35.3225818  71.3688545
  13.3972537  34.6596523  71.0690773  14.6897395  35.3486950  70.6862193
   7.2519600  33.8885676  70.2579805   6.4151508  33.4607851  70.0763806
   7.2243245  34.0818120  71.1950596  24.5771901  34.3448729  80.2422188
  23.7867445  34.3272868  79.7026687  24.3405256  34.8837023  80.9971225
  24.6969776  31.1941196  77.5554917  24.7467781  31.0291203  78.4970439
  24.5883700  30.3268455  77.1652797  13.5806035  33.8729741  64.8447006
  13.7294155  34.5565206  64.1913678  14.3872478  33.8534832  65.3596461
  26.1987973  33.6138137  77.7996938  25.9072781  33.9768118  78.6360399
  25.5860104  32.9005146  77.6210270  27.3983655  31.1791017  70.3199508
  28.2330547  31.6180821  70.4837069  27.5342784  30.7029670  69.5007754
  24.4475161  28.7370752  76.2676996  24.9229283  28.9298398  75.4595848
  23.5240727  28.7929938  76.0220380  11.3358668  29.8994919  65.8508074
  11.0904710  28.9957249  66.0488285  11.5054583  29.9012070  64.9087552
  10.6054316  25.6323277  63.3494236   9.9123560  25.7067632  62.6934272
  10.3606067  24.8683620  63.8715753  19.2767972  17.1918878  70.7533727
  19.5569726  16.5242067  71.3794153  20.0618579  17.3847974  70.2408390
  17.0801441  36.3677872  62.3158753  16.5075408  36.9868059  61.8629225
  17.6534234  36.9177234  62.8498675  23.1476830  25.6136512  74.5005302
  24.0994253  25.7134610  74.5217526  22.9780281  24.8214781  75.0103386
  21.1691210  22.6992095  74.6864703  20.5741142  22.9797108  73.9911191
  20.8840907  23.1885996  75.4581444  20.2998700  36.6515022  63.4467335
  21.2329373  36.5860584  63.6500211  20.2121913  37.4871289  62.9881868
  22.9286717  35.9680892  60.4071283  22.8500349  35.6340756  61.3007041
  23.7496384  36.4602660  60.4062755  25.6264908  28.8342632  73.6147601
  25.5941228  27.8958632  73.8007285  26.2365532  28.9126668  72.8813426
  17.4648239  27.7038685  59.6574805  18.4107344  27.5744893  59.7263223
  17.0862484  26.9653347  60.1344234  25.7759397  25.6253675  73.6605885
  25.2598445  24.8412132  73.4735813  26.6599345  25.2972392  73.8252404
  23.4370124  19.3694691  69.6201697  23.2394945  19.0609779  70.5045029
  24.0469829  20.0956330  69.7499627  31.4441458  29.8958639  72.7553638
  32.1744847  29.6343927  73.3161342  30.8348404  29.1587360  72.7955706
  29.5256755  28.0366501  73.3528089  28.7989919  27.9022466  72.7444581
  29.1104042  28.3443330  74.1584807  15.6491156  25.6288661  59.5929691
  14.7422612  25.3321774  59.6692404  15.9267137  25.3318479  58.7263977
   6.5669097  26.9495024  70.0428737   6.2471881  26.0960333  69.7503111
   6.0202525  27.1643603  70.7986704  10.3449004  29.6657465  73.7598244
  10.5635014  30.5974573  73.7786277  10.7574778  29.3065440  74.5453047
  17.2653222  20.1725551  65.7473932  16.4553950  19.8272636  66.1229178
  17.9537639  19.8633095  66.3361544  19.1943770  19.2503598  67.3698229
  19.7474809  19.6699051  68.0288252  19.4313857  18.3239346  67.4121185
  14.4189941  22.4875596  59.7341670  15.2809105  22.8130495  59.9937487
  14.6040285  21.7007092  59.2214736   6.4357357  30.5697936  72.0121859
   5.7420828  30.1551889  71.4991813   7.1830348  30.6118472  71.4155278
  22.5722577  21.3604123  66.8776893  21.9921246  22.0188927  66.4954945
  22.3058510  20.5381467  66.4664310  21.0226144  20.7609180  69.0798213
  21.5225922  20.8725715  68.2712532  21.6661752  20.4570233  69.7199022
   8.3494099  30.5016190  69.8887874   8.3264787  30.6003877  68.9369757
   8.6594736  31.3481341  70.2105040  11.0081477  32.5592345  74.0034488
  11.9624731  32.5276287  73.9364420  10.8094001  32.0982969  74.8184714
  11.5980859  31.1293461  76.5705286  12.4173748  31.6237539  76.5940123
  11.8717667  30.2125429  76.5422853  21.3547455  23.5204213  65.9333241
  20.4673310  23.8053864  65.7153436  21.7701444  23.3597976  65.0860518
  24.7061991  23.5450734  69.6487580  25.4822382  24.0347187  69.9212197
  23.9810126  23.9708788  70.1059450  27.1434550  24.2578353  70.7061521
  27.7379041  24.0174089  69.9954829  27.2161134  23.5385484  71.3335057
   9.3631706  38.1011964  71.0204686   9.2286174  37.3412365  70.4542684
   8.9463768  38.8252864  70.5533475  20.4990669  33.2848888  60.0281261
  21.2026519  33.4898890  60.6438917  19.7753318  33.8525650  60.2930345
  21.3288479  29.0358749  66.1483531  21.2723680  29.4927300  65.3091164
  21.8816822  28.2749434  65.9706374  25.1393285  24.8248481  66.9733651
  24.8830219  24.4245117  67.8041858  24.5146153  25.5392275  66.8483790
  29.4505623  27.5644554  69.4804942  28.8905181  27.6337743  70.2536504
  28.8449126  27.3885539  68.7604438  12.5200832  38.9981281  71.2323128
  12.4033216  39.9426714  71.1301819  11.6993278  38.6954843  71.6208928
  22.4077366  33.7231417  62.0779721  23.2422970  33.2912615  61.8957196
  22.2461709  33.5513431  63.0056616  22.0623258  30.2263530  63.4436060
  22.0072062  30.0607802  62.5024505  21.4369314  30.9339563  63.5998250
  15.3719384  19.7271639  63.0221379  15.3598054  20.6713479  63.1789650
  16.2642806  19.5441785  62.7280840  13.5455346  39.6509543  74.4479057
  14.4482592  39.6833153  74.7645552  13.3192716  38.7209994  74.4625393
  15.3008948  38.4040530  71.1089136  14.3504579  38.4042391  70.9953508
  15.6041434  37.6573264  70.5925170  19.1871503  16.3214416  67.2767316
  18.4203899  15.7672903  67.4223998  19.5982208  16.3936285  68.1381467
  31.0361641  44.2401068  72.1734898  31.6740051  44.1207815  71.4698238
  30.9182484  45.1881912  72.2322850  27.8451348  44.1928496  72.1096423
  27.5069859  44.0769561  71.2216957  28.7141116  43.7919661  72.0897429
  23.7038163  46.0463973  68.0993314  23.1403028  45.9553910  67.3309601
  23.5890558  45.2263877  68.5795806  28.3271131  45.3463348  78.0682628
  28.3159771  44.9516146  77.1963132  28.4891770  44.6129421  78.6616400
  21.2502595  47.5415164  70.9377534  22.0423887  47.2005989  70.5223833
  21.4899245  47.6510139  71.8579687  23.2093349  46.8024077  63.8094913
  23.9824225  46.2553065  63.6707789  23.5618748  47.6668327  64.0209374
  25.0478392  48.1300460  77.0161812  24.7568258  49.0346091  76.9008478
  25.6835376  48.1716987  77.7305882  25.9734599  45.5077308  73.6063172
  26.5698171  45.2833331  72.8920135  26.0309570  44.7662054  74.2088620
  25.5459627  42.9616744  61.4413363  25.7985148  42.4398265  60.6796826
  24.6084186  42.7982889  61.5440046  30.5902910  41.9652522  69.2488106
  31.3765999  41.5471945  68.8978523  30.8541614  42.8698614  69.4169754
  35.9911337  41.9027755  70.1521084  36.7236509  41.3326972  70.3858914
  35.2350693  41.5149356  70.5927590  25.2655916  44.8644850  63.6437738
  25.1492174  44.1889753  64.3118822  25.3758176  44.3777223  62.8269891
  27.6087457  44.3254997  67.3484427  27.2445664  43.7985618  68.0597348
  28.4654573  43.9353466  67.1750912  33.5136757  35.6149329  74.6115693
  33.1820082  36.4844740  74.3876908  32.9182371  35.2985613  75.2909723
  27.2492944  39.3544896  62.3445775  27.4167346  40.2225133  62.7116246
  27.0590113  39.5172178  61.4207065  30.0068277  47.8161875  74.0111606
  29.7069000  48.7186914  73.9027413  29.6619336  47.5494058  74.8632759
  23.4580758  44.2675672  70.0448310  22.5331255  44.1351886  70.2526002
  23.7065171  45.0469891  70.5418253  33.4065421  40.3344415  71.6909043
  32.4982298  40.2659824  71.3967804  33.3553016  40.8116360  72.5190869
  27.2282164  41.8102554  63.3292442  27.1081790  42.2559605  64.1677923
  26.5334753  42.1587872  62.7705980  20.8189569  43.9108946  70.8792099
  20.9481950  44.1643425  71.7931511  20.1387021  44.5036654  70.5596754
  24.9889057  54.5806196  66.9782573  24.9113086  55.5314021  67.0571054
  24.3850700  54.2352068  67.6357500  27.4806286  41.7534061  79.6343940
  26.7039620  42.3127981  79.6246805  28.1196849  42.2390844  80.1558811
  35.2727067  38.5360854  73.4686917  34.6301447  38.8293387  72.8226712
  34.7681995  38.4213774  74.2740114  25.7352659  44.5619514  79.1961907
  26.4767343  45.1004558  78.9196731  25.0289644  45.1885803  79.3533459
  31.2107998  46.7048655  77.7934069  31.6191354  46.2631065  77.0488701
  30.4885260  46.1301282  78.0468262  27.5639068  41.6421262  75.1667626
  28.4100264  42.0660675  75.3102275  27.5037706  40.9854886  75.8606189
  31.5336813  47.2649845  71.5486358  30.9045675  47.4295560  70.8462426
  31.1462475  47.6791455  72.3197322  35.4126045  48.2004283  68.9030722
  34.7277083  48.5803185  68.3527755  35.4969894  48.8099610  69.6362669
  30.7138514  39.3025630  76.8248799  30.4699446  40.0567691  76.2883075
  30.9898444  39.6810978  77.6596047  32.6676976  45.8464242  75.5026065
  32.8793872  46.4896002  74.8260446  32.6206725  45.0126559  75.0347995
  30.2703205  38.4582063  72.4062637  29.4087684  38.7563317  72.6979375
  30.2965640  38.6752462  71.4743670  27.0864775  47.0024254  68.8136443
  27.5503120  47.2811957  68.0241065  26.8221573  46.1007698  68.6309534
  23.9788856  46.5495735  71.7516206  24.5490213  46.9783003  71.1133691
  24.5696968  46.2678320  72.4500392  26.0233661  43.1247406  65.6226008
  26.7257704  43.5768450  66.0899934  25.6914289  42.4831225  66.2505901
  24.4714022  41.7159163  79.9977217  23.8412683  42.3975443  80.2312614
  24.3650110  41.6042244  79.0530356  19.7658995  41.3830959  70.9243142
  18.9758049  41.6388487  70.4483252  20.2570242  42.1979296  71.0295182
  33.7822804  48.7236198  73.6748422  34.6040248  48.3216385  73.3931104
  33.7785207  48.6204432  74.6264538  21.7173740  41.7475538  67.8826618
  20.9204903  41.8594232  68.4010114  21.4899332  42.0862190  67.0167509
  27.5479408  48.2720241  75.8309133  27.6123840  48.7340648  76.6667305
  26.8390332  47.6417606  75.9591443  18.0496698  41.6361449  73.3558132
  18.3004736  42.5208459  73.6215708  18.5856246  41.4566051  72.5833224
  41.8728797  45.0674946  70.0233394  41.1192506  44.4982344  69.8677398
  42.0076339  45.0337611  70.9704029  27.2627425  49.9388349  65.6988113
  27.1273100  50.7839884  66.1272961  27.8037238  50.1407626  64.9354047
  23.7494765  36.0179928  82.3602468  23.3561711  35.4646127  83.0350113
  24.5660905  36.3290507  82.7508986  20.7156823  47.4563787  66.2716038
  21.2281343  48.2507037  66.4221603  21.3679536  46.7590077  66.2049640
  22.5251708  50.5729543  68.3538791  22.7018336  51.4947508  68.1659775
  23.3208541  50.2587962  68.7833171  26.6662726  37.4337807  79.9522725
  27.4072439  38.0344961  79.8727187  26.8980649  36.6915445  79.3940768
  21.8104064  42.6194175  78.2300955  21.6957579  41.7179432  78.5308054
  20.9548582  42.8657872  77.8785771  28.8895902  50.5611915  79.8288455
  28.4459756  49.7748294  79.5109360  29.5513115  50.7491066  79.1632346
  23.6483023  52.0907717  74.3549134  24.1990448  51.9624780  73.5826128
  22.8094499  52.3902606  74.0044027  30.9877140  50.8414715  77.8569857
  30.9695615  51.6623596  77.3650126  31.9097060  50.7168790  78.0819998
  27.4450194  48.3558844  78.6993365  27.9778531  47.5947133  78.4692673
  26.9164275  48.0632496  79.4417519  30.6119889  33.4618910  74.2287007
  30.2684158  34.3520552  74.1526117  30.9798852  33.2720568  73.3656592
  18.6805740  45.7852441  67.0475609  19.5180962  46.1949449  66.8309317
  18.8584007  44.8451883  67.0175803  28.1617283  38.2977222  67.7944680
  27.3058879  37.9084073  67.6150319  28.5744235  38.3769183  66.9344466
  29.6916429  35.8323566  72.1936240  29.1881225  35.7953701  71.3804045
  29.9847036  36.7416308  72.2532897  25.9359315  35.9162295  71.2002422
  26.8012312  35.7205104  70.8408311  26.0036824  35.6872647  72.1271778
  30.3656475  41.3254614  64.5619223  30.0606611  41.6400763  65.4129366
  31.3186917  41.4036034  64.6046556  28.8102907  47.4844837  66.2112177
  28.2824268  46.7497597  65.8985414  28.3090410  48.2619513  65.9652145
  33.7895753  45.6793857  71.3279223  33.1319427  46.3693119  71.4159352
  34.5936152  46.0690289  71.6713210  23.5421634  38.1464503  68.5718788
  24.1165386  37.9239685  67.8391981  24.1292617  38.2153198  69.3247390
  32.6001212  44.0338230  69.3783165  33.1133093  44.6668222  69.8804875
  33.2502436  43.4339426  69.0126525  23.8691222  40.1768964  62.5914674
  23.0328534  40.5143651  62.9123948  23.7295991  40.0417944  61.6541811
  25.8444302  35.0205752  67.2993858  25.1908714  34.7054769  66.6750473
  25.8024776  34.3981493  68.0253681  26.9555507  45.3025047  59.2147150
  26.0482569  45.0714301  59.4138299  27.4526539  44.5062666  59.4021132
  29.8623586  54.0122554  62.1343836  29.1885285  54.3154251  62.7428794
  30.2489408  54.8151635  61.7849293  29.0782042  41.5087686  71.6241506
  28.1604604  41.7302633  71.4663194  29.4942186  41.5833996  70.7653213
  29.8617090  42.9079101  66.7544186  30.6088909  43.4200499  66.4451308
  30.1308680  42.5863154  67.6148579  33.3663008  49.0144232  67.5062308
  32.9125335  48.1735141  67.5627498  32.7356975  49.6505630  67.8437088
  32.3095927  39.9436218  68.7362975  31.5718684  39.4313604  69.0673218
  32.5622701  39.5036599  67.9246252  31.8095947  50.8520728  68.4412126
  32.1018921  51.4125785  67.7224491  32.3194568  51.1449289  69.1965285
  32.4107555  32.7212470  69.3304744  32.7166432  31.8609833  69.0430659
  33.1360160  33.3130090  69.1303738  18.7031911  43.1243156  67.7186342
  18.5056311  42.5312517  66.9937409  18.1478575  42.8195366  68.4362281
  26.6828634  43.0166263  69.8380935  26.7377244  42.0640099  69.7623412
  25.8719836  43.1725702  70.3222234  24.6220994  41.6343322  67.5971314
  23.8088860  41.9337493  68.0036506  25.1179989  41.2399011  68.3145797
  26.7729572  51.6301079  69.5305579  26.7305751  51.8561926  68.6014111
  27.6892271  51.3964454  69.6791380  30.2195206  42.0985147  76.4286208
  30.5744594  42.3256620  77.2880674  30.8667337  42.4303524  75.8063463
  35.9492943  45.2203583  67.1335537  35.8110842  45.4105179  66.2056726
  35.5929162  45.9822966  67.5903588  24.1135069  39.2061678  73.2132549
  24.7534448  39.0650437  72.5155513  23.2812600  38.9196191  72.8371151
  35.9762323  47.2880110  72.1446809  36.4098829  47.1955399  72.9929863
  36.6893903  47.2637610  71.5066825  24.8895373  48.5064108  69.3267542
  25.6835972  48.0114429  69.1250117  24.1787065  47.9781972  68.9635247
  29.7090218  50.8882204  73.6779909  29.7627240  51.4573140  74.4457625
  28.8404999  51.0584089  73.3133946  21.1978137  42.6507190  65.4027294
  20.2675725  42.5891646  65.6197257  21.2935608  42.1283143  64.6063936
  21.1163686  39.1762003  67.9905536  21.3770503  40.0907336  67.8814697
  21.9380858  38.7086446  68.1402149  22.5888611  40.5899760  75.1604361
  23.2611664  40.3817122  74.5117009  21.7618397  40.3921846  74.7209593
  36.8377872  47.3303810  74.6779694  37.0313762  48.2349621  74.9238969
  36.7378490  46.8711230  75.5118279  28.4914183  37.2161701  77.1770021
  27.8442098  37.9151651  77.0834498  29.2615198  37.6497845  77.5446270
  31.8992981  47.4810553  80.2520575  31.7478487  47.2521105  79.3350658
  31.8897660  48.4381155  80.2651920  28.6678317  45.0542466  75.2366841
  29.5970377  45.2053626  75.0635808  28.2469347  45.1426487  74.3815488
  27.4666649  49.0793130  73.0065379  27.3277735  48.7111915  73.8791317
  26.6781245  49.5940770  72.8349337  28.0614801  54.1802227  64.3490915
  28.2366557  53.7090270  65.1636538  27.3747589  54.8067993  64.5772176
  29.0171864  48.4574733  70.3954217  28.6821697  48.4175503  71.2911866
  28.5175810  47.7919449  69.9224627  22.9916108  43.8642363  75.9206798
  22.8535906  43.1322602  76.5218337  23.9021032  43.7751263  75.6390985
  25.6198409  43.5762322  75.4090477  26.3298027  42.9355515  75.3677096
  25.5767717  43.8275217  76.3316658  33.6085187  50.5129676  78.3297057
  33.5497734  49.8288896  77.6627640  34.0104706  51.2548666  77.8777683
  24.3327343  40.5627540  77.2286117  23.7964700  40.1118279  77.8807713
  23.7444051  40.6973449  76.4856581  22.6275886  57.3291590  71.1230776
  22.8672485  57.9610114  71.8009794  21.7845083  56.9779630  71.4096135
  23.7429602  40.0216192  59.7912581  22.8659068  39.9004992  59.4274827
  24.2187355  39.2302270  59.5391469  33.6102595  48.4769260  76.5611036
  32.7229374  48.1395181  76.6837435  34.1801146  47.7452291  76.7979802
  15.2631742  44.8093351  69.8854088  15.9502782  44.4955081  69.2975103
  15.1079871  45.7134716  69.6121339  20.0666464  39.6983548  74.3139111
  19.9824653  39.0909218  73.5789521  19.2449170  40.1892566  74.3148608
  27.1403748  53.1370712  73.5272279  27.0673920  53.9425684  74.0391584
  26.6981141  53.3362678  72.7020301  26.9293528  52.3742482  67.0375101
  26.1461050  52.9164162  67.1313326  27.6286273  52.8916462  67.4369342
  30.2390178  38.1837112  69.6809306  30.7358877  37.4307074  69.3610377
  29.4677159  38.2201428  69.1152516  38.0919935  43.8877477  71.3227598
  38.0809812  44.7702192  70.9521531  37.2237315  43.5349028  71.1282135
  29.6002432  53.0357546  75.6830438  30.3130404  53.6705011  75.6106340
  29.1092460  53.1321412  74.8670440  31.3219959  46.9408799  67.2547730
  30.3876237  47.0610261  67.0852434  31.4996627  46.0381266  66.9907740
  26.8225147  40.3254495  69.4080991  26.4522934  39.7725535  70.0961897
  27.3184239  39.7212628  68.8555991  34.7092510  42.7826118  67.7897764
  35.1752962  43.6154110  67.7158067  35.1600010  42.3171100  68.4943022
  24.6514345  50.7851990  76.5036009  25.3523805  51.4188473  76.6565403
  24.1809460  51.1266721  75.7431648  32.6809173  35.1506705  71.8288665
  31.7672252  35.3810932  71.9970872  33.1102274  35.2345149  72.6802698
  32.4515631  43.3396597  74.3288559  31.7987081  43.5872504  73.6741012
  32.8296011  42.5260735  73.9951037  29.4122805  53.3756290  68.4316730
  29.5945200  52.5577946  68.8944482  30.2355791  53.5923982  67.9941620
  29.7464971  52.3024475  65.6931778  30.2752737  51.7916930  65.0801940
  30.0093190  51.9867006  66.5577311  28.5003204  44.0816408  80.8154596
  27.8243841  43.9810537  81.4856972  29.3230838  43.9255622  81.2790594
  20.2482063  50.3188345  73.4367112  20.8335500  49.5732032  73.5695016
  20.0506902  50.6292301  74.3203776  23.1020718  53.3539592  68.4529554
  22.4331094  53.8385720  67.9693594  22.9633588  53.6008812  69.3672933
  14.8399718  42.8893945  72.1571555  14.8783818  42.3557535  72.9508673
  14.3340011  42.3629150  71.5382532  27.2425987  55.3883335  75.0512212
  27.7944295  55.5514957  75.8161298  27.5832181  55.9787773  74.3792237
  22.2190480  37.7358485  75.6534097  22.2831807  38.5973316  75.2411495
  22.1557601  37.1232487  74.9206456  21.6942753  39.8081618  79.3007131
  22.3214792  39.4258695  79.9144656  20.8370672  39.5895820  79.6662824
  32.0936861  50.2144593  80.9060867  32.6376765  50.8274551  80.4115822
  31.5123706  50.7724171  81.4227880  18.4708296  41.6158047  65.2325486
  18.7661737  40.7068725  65.1792540  17.5696331  41.5945786  64.9106489
  30.3794374  53.3365311  72.0375895  30.2545514  52.5355051  71.5286840
  31.0373465  53.8311504  71.5489865  22.0002543  39.6914044  71.2153035
  21.2789128  40.3050011  71.0760508  22.7895798  40.2271808  71.1369681
  32.4429283  51.1374331  73.6655445  31.4959618  51.0179682  73.5933771
  32.7912056  50.2496829  73.7481706  24.8028856  37.0268470  77.4893687
  25.3263258  37.2730767  78.2519996  24.5841189  37.8588505  77.0696824
  20.1996137  39.2972145  65.3564811  19.8708843  38.4169524  65.1739917
  20.5535508  39.2419813  66.2441201  29.4475716  50.9327047  69.8659797
  29.3000678  50.0043755  70.0467367  30.2729210  50.9547138  69.3816872
  23.3137960  39.5845114  65.7240289  23.6534033  40.1131036  65.0018897
  23.7610081  39.9225521  66.4998856  33.0509838  51.7555606  70.9524670
  33.9756385  51.5498467  70.8149121  32.8825141  51.5072007  71.8614011
  26.0081401  37.9682165  75.1743357  25.6678222  37.1689978  75.5764037
  25.3020407  38.2683876  74.6020190  26.6597873  35.0531478  73.6270680
  27.4823942  34.5791956  73.5049570  26.9035937  35.8321961  74.1269366
  25.3006107  38.0819736  63.9233582  26.0214470  38.4600989  63.4197299
  24.6771412  38.8008613  64.0268560  29.4437230  38.7864885  64.8591914
  29.6600845  39.6689523  64.5580742  28.9631298  38.3951098  64.1297556
  24.1836452  41.7450598  71.4362659  24.0381032  42.0590901  72.3286940
  23.7061655  42.3635499  70.8833557  26.0432835  38.7353146  71.4843548
  26.0294403  37.8394239  71.1475846  26.7605263  38.7423810  72.1181834
  27.8958965  39.1690486  73.5296676  27.6376743  40.0907557  73.5281006
  27.3644006  38.7720921  74.2197140  32.8405154  52.2741273  66.3086761
  33.0142032  51.7087696  65.5560614  33.3334045  53.0742168  66.1266251
  18.6582114  44.2855943  74.3750320  18.1135582  45.0615751  74.5070594
  19.5361464  44.6326747  74.2169441  25.4469731  37.6167526  66.7531118
  25.5685642  36.6884173  66.9522006  25.1571773  37.6306212  65.8409434
  28.3160921  35.3022437  69.8897838  28.3382618  35.3661770  68.9349818
  28.7328980  34.4626946  70.0838344  38.6944545  45.0377696  67.9277061
  39.1375691  44.2885022  67.5296184  37.8171056  45.0287833  67.5450793
  33.8280327  51.5908038  63.4083659  34.5231231  52.2114731  63.6270974
  34.1703477  50.7403389  63.6836037  19.4448136  43.4125839  77.2680477
  18.7029872  43.5608474  77.8545107  19.1240880  43.6734104  76.4047226
  27.3891798  52.9541817  77.0660867  27.6978925  52.7090964  77.9383566
  28.1867280  53.1588456  76.5779737  27.4112410  55.1079727  69.2966243
  26.9717401  54.6156105  69.9899100  28.1620527  54.5652694  69.0558319
  19.8904749  51.2991268  69.2990871  20.7162769  50.9995039  68.9189515
  19.5398801  50.5298890  69.7480660  24.8586283  50.6517736  71.3688545
  24.2366292  49.9888441  71.0690773  25.5291150  50.6778868  70.6862193
  18.0913354  49.2177594  70.2579805  17.2545263  48.7899768  70.0763806
  18.0637000  49.4110037  71.1950596  24.9310810  39.1299524  80.9621051
  24.9798966  40.0061647  80.5798821  25.4733324  38.5876917  80.3892694
  35.4165656  49.6740647  80.2422188  34.6261199  49.6564786  79.7026687
  35.1799010  50.2128941  80.9971225  35.5363531  46.5233113  77.5554917
  35.5861536  46.3583121  78.4970439  35.4277454  45.6560372  77.1652797
  24.4199790  49.2021659  64.8447006  24.5687910  49.8857124  64.1913678
  25.2266233  49.1826749  65.3596461  32.8267293  42.5064041  78.8714223
  33.7277156  42.3670506  78.5798221  32.9015268  42.6718496  79.8112401
  27.1610099  39.8830896  77.7167410  26.2913408  40.1764462  77.4449998
  27.3969579  40.4671341  78.4374673  37.0381728  48.9430055  77.7996938
  36.7466536  49.3060036  78.6360399  36.4253859  48.2297063  77.6210270
  38.2377410  46.5082935  70.3199508  39.0724301  46.9472739  70.4837069
  38.3736539  46.0321588  69.5007754  35.2868916  44.0662670  76.2676996
  35.7623037  44.2590316  75.4595848  34.3634481  44.1221855  76.0220380
  22.1752422  45.2286837  65.8508074  21.9298464  44.3249167  66.0488285
  22.3448337  45.2303987  64.9087552  29.8649132  36.1010513  75.2332830
  30.3831076  36.8371540  74.9079319  29.5104265  36.4074506  76.0679589
  21.4448070  40.9615194  63.3494236  20.7517315  41.0359549  62.6934272
  21.1999822  40.1975538  63.8715753  30.1161727  32.5210796  70.7533727
  30.3963480  31.8533985  71.3794153  30.9012333  32.7139891  70.2408390
  27.9195195  51.6969790  62.3158753  27.3469162  52.3159977  61.8629225
  28.4927989  52.2469151  62.8498675  33.9870585  40.9428430  74.5005302
  34.9388008  41.0426527  74.5217526  33.8174035  40.1506698  75.0103386
  32.0084964  38.0284013  74.6864703  31.4134896  38.3089026  73.9911191
  31.7234661  38.5177914  75.4581444  31.1392455  51.9806940  63.4467335
  32.0723128  51.9152501  63.6500211  31.0515668  52.8163207  62.9881868
  36.4658663  44.1634549  73.6147601  36.4334983  43.2250550  73.8007285
  37.0759286  44.2418586  72.8813426  36.6153151  40.9545593  73.6605885
  36.0992200  40.1704049  73.4735813  37.4993100  40.6264309  73.8252404
  34.2763878  34.6986608  69.6201697  34.0788699  34.3901697  70.5045029
  34.8863584  35.4248247  69.7499627  42.2835213  45.2250556  72.7553638
  43.0138601  44.9635844  73.3161342  41.6742158  44.4879278  72.7955706
  40.3650510  43.3658419  73.3528089  39.6383673  43.2314384  72.7444581
  39.9497797  43.6735247  74.1584807  28.1880686  47.0848348  81.1175462
  29.1083696  47.2626947  81.3115509  28.1530269  46.1404394  80.9655162
  17.4062851  42.2786942  70.0428737  17.0865635  41.4252250  69.7503111
  16.8596279  42.4935520  70.7986704  21.1842759  44.9949383  73.7598244
  21.4028768  45.9266491  73.7786277  21.5968532  44.6357358  74.5453047
  28.1046976  35.5017468  65.7473932  27.2947705  35.1564553  66.1229178
  28.7931393  35.1925012  66.3361544  30.0337525  34.5795515  67.3698229
  30.5868563  34.9990969  68.0288252  30.2707611  33.6531263  67.4121185
  26.0570624  40.5682589  83.1500993  25.9567351  41.5176946  83.0813084
  25.8392166  40.2400828  82.2777063  25.2583695  37.8167514  59.7341670
  26.1202859  38.1422412  59.9937487  25.4434039  37.0299010  59.2214736
  17.2751111  45.8989854  72.0121859  16.5814583  45.4843806  71.4991813
  18.0224102  45.9410390  71.4155278  33.4116332  36.6896040  66.8776893
  32.8315001  37.3480844  66.4954945  33.1452264  35.8673385  66.4664310
  31.8619898  36.0901098  69.0798213  32.3619677  36.2017633  68.2712532
  32.5055506  35.7862151  69.7199022  25.9201894  43.9979728  81.9666054
  25.4368976  44.7980088  82.1729943  26.0062833  44.0087673  81.0133498
  19.1887854  45.8308107  69.8887874  19.1658542  45.9295795  68.9369757
  19.4988490  46.6773258  70.2105040  21.8475231  47.8884262  74.0034488
  22.8018485  47.8568205  73.9364420  21.6487755  47.4274886  74.8184714
  22.4374614  46.4585378  76.5705286  23.2567503  46.9529457  76.5940123
  22.7111421  45.5417347  76.5422853  32.1941210  38.8496131  65.9333241
  31.3067065  39.1345781  65.7153436  32.6095199  38.6889894  65.0860518
  35.5455746  38.8742652  69.6487580  36.3216136  39.3639104  69.9212197
  34.8203880  39.3000706  70.1059450  37.9828305  39.5870271  70.7061521
  38.5772795  39.3466007  69.9954829  38.0554888  38.8677402  71.3335057
  20.2025460  53.4303882  71.0204686  20.0679928  52.6704283  70.4542684
  19.7857523  54.1544782  70.5533475  32.1682234  44.3650667  66.1483531
  32.1117435  44.8219218  65.3091164  32.7210576  43.6041351  65.9706374
  35.9787039  40.1540399  66.9733651  35.7223974  39.7537034  67.8041858
  35.3539907  40.8684193  66.8483790  40.2899377  42.8936472  69.4804942
  39.7298935  42.9629661  70.2536504  39.6842881  42.7177456  68.7604438
  23.3594586  54.3273199  71.2323128  23.2426970  55.2718631  71.1301819
  22.5387032  54.0246761  71.6208928  17.6909528  40.7923512  77.2697483
  18.3368391  40.2822466  77.7584708  17.4826679  41.5292194  77.8440908
  30.2162920  47.8604360  82.7689623  31.0854080  48.0345012  82.4076258
  29.7369672  48.6798777  82.6465353  26.2113138  35.0563557  63.0221379
  26.1991808  36.0005397  63.1789650  27.1036560  34.8733702  62.7280840
  24.3849100  54.9801461  74.4479057  25.2876347  55.0125071  74.7645552
  24.1586470  54.0501912  74.4625393  26.1402702  53.7332447  71.1089136
  25.1898333  53.7334309  70.9953508  26.4435188  52.9865182  70.5925170
  30.0265258  31.6506334  67.2767316  29.2597654  31.0964820  67.4223998
  30.4375963  31.7228202  68.1381467  22.0307019  37.9391129  81.3672497
  22.8938480  37.5827934  81.5775821  21.4572429  37.6005024  82.0547901
  41.8755396  59.5692986  72.1734898  42.5133806  59.4499733  71.4698238
  41.7576239  60.5173830  72.2322850  38.6845102  59.5220414  72.1096423
  38.3463614  59.4061479  71.2216957  39.5534870  59.1211579  72.0897429
  34.5431918  61.3755890  68.0993314  33.9796783  61.2845827  67.3309601
  34.4284313  60.5555795  68.5795806  39.1664885  60.6755266  78.0682628
  39.1553526  60.2808064  77.1963132  39.3285525  59.9421338  78.6616400
  32.0896350  62.8707082  70.9377534  32.8817642  62.5297907  70.5223833
  32.3293000  62.9802057  71.8579687  35.8872146  63.4592377  77.0161812
  35.5962012  64.3638008  76.9008478  36.5229131  63.5008905  77.7305882
  36.8128353  60.8369226  73.6063172  37.4091925  60.6125248  72.8920135
  36.8703325  60.0953971  74.2088620  41.4296664  57.2944440  69.2488106
  42.2159753  56.8763863  68.8978523  41.6935369  58.1990532  69.4169754
  46.8305091  57.2319673  70.1521084  47.5630263  56.6618890  70.3858914
  46.0744447  56.8441273  70.5927590  44.3530512  50.9441247  74.6115693
  44.0213837  51.8136658  74.3876908  43.7576125  50.6277531  75.2909723
  40.8462031  63.1453793  74.0111606  40.5462754  64.0478832  73.9027413
  40.5013091  62.8785976  74.8632759  34.2974513  59.5967590  70.0448310
  33.3725009  59.4643804  70.2526002  34.5458926  60.3761809  70.5418253
  44.2459175  55.6636333  71.6909043  43.3376052  55.5951742  71.3967804
  44.1946771  56.1408278  72.5190869  31.6583324  59.2400863  70.8792099
  31.7875705  59.4935342  71.7931511  30.9780775  59.8328571  70.5596754
  35.8282811  69.9098113  66.9782573  35.7506841  70.8605938  67.0571054
  35.2244455  69.5643986  67.6357500  38.3200041  57.0825979  79.6343940
  37.5433375  57.6419899  79.6246805  38.9590604  57.5682762  80.1558811
  46.1120821  53.8652772  73.4686917  45.4695202  54.1585305  72.8226712
  45.6075750  53.7505692  74.2740114  36.5746413  59.8911432  79.1961907
  37.3161098  60.4296476  78.9196731  35.8683399  60.5177721  79.3533459
  42.0501753  62.0340573  77.7934069  42.4585109  61.5922983  77.0488701
  41.3279014  61.4593200  78.0468262  38.4032823  56.9713179  75.1667626
  39.2494018  57.3952593  75.3102275  38.3431461  56.3146804  75.8606189
  42.3730567  62.5941763  71.5486358  41.7439430  62.7587477  70.8462426
  41.9856230  63.0083373  72.3197322  41.5532268  54.6317548  76.8248799
  41.3093200  55.3859608  76.2883075  41.8292199  55.0102895  77.6596047
  43.5070731  61.1756160  75.5026065  43.7187626  61.8187920  74.8260446
  43.4600479  60.3418477  75.0347995  41.1096960  53.7873981  72.4062637
  40.2481439  54.0855234  72.6979375  41.1359395  54.0044380  71.4743670
  37.9258529  62.3316171  68.8136443  38.3896875  62.6103874  68.0241065
  37.6615327  61.4299616  68.6309534  34.8182610  61.8787653  71.7516206
  35.3883967  62.3074921  71.1133691  35.4090722  61.5970237  72.4500392
  35.3107777  57.0451080  79.9977217  34.6806437  57.7267361  80.2312614
  35.2043865  56.9334162  79.0530356  30.6052749  56.7122876  70.9243142
  29.8151803  56.9680405  70.4483252  31.0963997  57.5271214  71.0295182
  44.6216559  64.0528115  73.6748422  45.4434003  63.6508303  73.3931104
  44.6178962  63.9496350  74.6264538  32.5567495  57.0767456  67.8826618
  31.7598658  57.1886150  68.4010114  32.3293087  57.4154108  67.0167509
  38.3873162  63.6012159  75.8309133  38.4517595  64.0632566  76.6667305
  37.6784086  62.9709524  75.9591443  28.8890452  56.9653367  73.3558132
  29.1398491  57.8500377  73.6215708  29.4250001  56.7857968  72.5833224
  52.7122552  60.3966864  70.0233394  51.9586260  59.8274262  69.8677398
  52.8470093  60.3629528  70.9704029  38.1021180  65.2680266  65.6988113
  37.9666855  66.1131802  66.1272961  38.6430992  65.4699544  64.9354047
  34.5888520  51.3471846  82.3602468  34.1955465  50.7938045  83.0350113
  35.4054660  51.6582425  82.7508986  31.5550577  62.7855704  66.2716038
  32.0675098  63.5798955  66.4221603  32.2073290  62.0881995  66.2049640
  33.3645462  65.9021461  68.3538791  33.5412090  66.8239425  68.1659775
  34.1602296  65.5879880  68.7833171  37.5056481  52.7629725  79.9522725
  38.2466194  53.3636878  79.8727187  37.7374403  52.0207363  79.3940768
  32.6497819  57.9486092  78.2300955  32.5351334  57.0471350  78.5308054
  31.7942336  58.1949789  77.8785771  39.7289656  65.8903833  79.8288455
  39.2853511  65.1040211  79.5109360  40.3906870  66.0782983  79.1632346
  34.4876778  67.4199634  74.3549134  35.0384203  67.2916698  73.5826128
  33.6488253  67.7194523  74.0044027  41.8270894  66.1706633  77.8569857
  41.8089370  66.9915514  77.3650126  42.7490814  66.0460708  78.0819998
  38.2843949  63.6850762  78.6993365  38.8172285  62.9239050  78.4692673
  37.7558030  63.3924414  79.4417519  41.4513644  48.7910828  74.2287007
  41.1077913  49.6812470  74.1526117  41.8192606  48.6012486  73.3656592
  29.5199494  61.1144359  67.0475609  30.3574716  61.5241367  66.8309317
  29.6977762  60.1743801  67.0175803  39.0011037  53.6269140  67.7944680
  38.1452634  53.2375990  67.6150319  39.4137989  53.7061101  66.9344466
  40.5310184  51.1615483  72.1936240  40.0274980  51.1245618  71.3804045
  40.8240791  52.0708226  72.2532897  36.7753070  51.2454213  71.2002422
  37.6406067  51.0497022  70.8408311  36.8430579  51.0164565  72.1271778
  44.6289507  61.0085775  71.3279223  43.9713182  61.6985037  71.4159352
  45.4329907  61.3982207  71.6713210  34.3815389  53.4756421  68.5718788
  34.9559141  53.2531602  67.8391981  34.9686371  53.5445115  69.3247390
  43.4394966  59.3630148  69.3783165  43.9526848  59.9960140  69.8804875
  44.0896190  58.7631343  69.0126525  36.6838057  50.3497670  67.2993858
  36.0302469  50.0346687  66.6750473  36.6418531  49.7273410  68.0253681
  40.7017340  69.3414472  62.1343836  40.0279039  69.6446169  62.7428794
  41.0883162  70.1443552  61.7849293  39.9175797  56.8379603  71.6241506
  38.9998358  57.0594550  71.4663194  40.3335941  56.9125914  70.7653213
  43.1489682  55.2728135  68.7362975  42.4112439  54.7605522  69.0673218
  43.4016455  54.8328517  67.9246252  42.6489702  66.1812646  68.4412126
  42.9412676  66.7417703  67.7224491  43.1588322  66.4741207  69.1965285
  43.2501309  48.0504387  69.3304744  43.5560186  47.1901751  69.0430659
  43.9753914  48.6422007  69.1303738  29.5425665  58.4535074  67.7186342
  29.3450065  57.8604435  66.9937409  28.9872329  58.1487284  68.4362281
  37.5222389  58.3458180  69.8380935  37.5770999  57.3932017  69.7623412
  36.7113591  58.5017619  70.3222234  35.4614749  56.9635240  67.5971314
  34.6482614  57.2629411  68.0036506  35.9573743  56.5690929  68.3145797
  37.6123327  66.9592997  69.5305579  37.5699506  67.1853843  68.6014111
  38.5286026  66.7256372  69.6791380  41.0588961  57.4277065  76.4286208
  41.4138348  57.6548538  77.2880674  41.7061092  57.7595441  75.8063463
  34.9528824  54.5353596  73.2132549  35.5928203  54.3942355  72.5155513
  34.1206354  54.2488109  72.8371151  46.8156077  62.6172027  72.1446809
  47.2492584  62.5247317  72.9929863  47.5287658  62.5929528  71.5066825
  35.7289128  63.8356026  69.3267542  36.5229726  63.3406346  69.1250117
  35.0180820  63.3073889  68.9635247  40.5483972  66.2174122  73.6779909
  40.6020994  66.7865058  74.4457625  39.6798753  66.3876007  73.3133946
  32.0371891  57.9799108  65.4027294  31.1069479  57.9183563  65.6197257
  32.1329363  57.4575061  64.6063936  31.9557440  54.5053921  67.9905536
  32.2164257  55.4199254  67.8814697  32.7774612  54.0378363  68.1402149
  33.4282365  55.9191678  75.1604361  34.1005419  55.7109040  74.5117009
  32.6012152  55.7213764  74.7209593  47.6771627  62.6595728  74.6779694
  47.8707517  63.5641539  74.9238969  47.5772245  62.2003147  75.5118279
  39.3307937  52.5453619  77.1770021  38.6835852  53.2443568  77.0834498
  40.1008953  52.9789763  77.5446270  42.7386735  62.8102471  80.2520575
  42.5872242  62.5813023  79.3350658  42.7291415  63.7673072  80.2651920
  39.5072072  60.3834384  75.2366841  40.4364132  60.5345543  75.0635808
  39.0863102  60.4718404  74.3815488  38.3060404  64.4085048  73.0065379
  38.1671489  64.0403832  73.8791317  37.5175000  64.9232687  72.8349337
  38.9008555  69.5094145  64.3490915  39.0760311  69.0382188  65.1636538
  38.2141344  70.1359911  64.5772176  39.8565619  63.7866651  70.3954217
  39.5215451  63.7467421  71.2911866  39.3569564  63.1211367  69.9224627
  33.8309863  59.1934281  75.9206798  33.6929661  58.4614520  76.5218337
  34.7414786  59.1043181  75.6390985  36.4592163  58.9054240  75.4090477
  37.1691782  58.2647432  75.3677096  36.4161471  59.1567135  76.3316658
  44.4478942  65.8421593  78.3297057  44.3891488  65.1580814  77.6627640
  44.8498460  66.5840583  77.8777683  35.1721097  55.8919458  77.2286117
  34.6358454  55.4410196  77.8807713  34.5837806  56.0265367  76.4856581
  33.4669641  72.6583507  71.1230776  33.7066239  73.2902031  71.8009794
  32.6238837  72.3071547  71.4096135  44.4496349  63.8061177  76.5611036
  43.5623128  63.4687099  76.6837435  45.0194900  63.0744209  76.7979802
  26.1025496  60.1385269  69.8854088  26.7896536  59.8246999  69.2975103
  25.9473625  61.0426634  69.6121339  30.9060219  55.0275466  74.3139111
  30.8218407  54.4201135  73.5789521  30.0842925  55.5184484  74.3148608
  37.9797503  68.4662630  73.5272279  37.9067674  69.2717601  74.0391584
  37.5374896  68.6654596  72.7020301  37.7687282  67.7034400  67.0375101
  36.9854804  68.2456080  67.1313326  38.4680027  68.2208379  67.4369342
  41.0783932  53.5129029  69.6809306  41.5752632  52.7598992  69.3610377
  40.3070914  53.5493346  69.1152516  48.9313690  59.2169395  71.3227598
  48.9203566  60.0994110  70.9521531  48.0631069  58.8640946  71.1282135
  40.4396186  68.3649464  75.6830438  41.1524158  68.9996929  75.6106340
  39.9486215  68.4613330  74.8670440  37.6618901  55.6546412  69.4080991
  37.2916689  55.1017453  70.0961897  38.1577994  55.0504546  68.8555991
  45.5486264  58.1118036  67.7897764  46.0146717  58.9446027  67.7158067
  45.9993765  57.6463017  68.4943022  35.4908100  66.1143907  76.5036009
  36.1917559  66.7480390  76.6565403  35.0203215  66.4558639  75.7431648
  43.5202927  50.4798623  71.8288665  42.6066007  50.7102850  71.9970872
  43.9496029  50.5637067  72.6802698  43.2909386  58.6688515  74.3288559
  42.6380836  58.9164422  73.6741012  43.6689766  57.8552653  73.9951037
  40.2516560  68.7048208  68.4316730  40.4338954  67.8869864  68.8944482
  41.0749546  68.9215900  67.9941620  40.5858725  67.6316393  65.6931778
  41.1146491  67.1208848  65.0801940  40.8486945  67.3158923  66.5577311
  39.3396959  59.4108326  80.8154596  38.6637596  59.3102455  81.4856972
  40.1624593  59.2547539  81.2790594  31.0875818  65.6480262  73.4367112
  31.6729255  64.9023950  73.5695016  30.8900656  65.9584219  74.3203776
  33.9414473  68.6831510  68.4529554  33.2724848  69.1677637  67.9693594
  33.8027343  68.9300730  69.3672933  25.6793472  58.2185862  72.1571555
  25.7177572  57.6849453  72.9508673  25.1733765  57.6921068  71.5382532
  38.0819742  70.7175253  75.0512212  38.6338050  70.8806875  75.8161298
  38.4225935  71.3079691  74.3792237  33.0584235  53.0650403  75.6534097
  33.1225561  53.9265234  75.2411495  32.9951355  52.4524405  74.9206456
  32.5336507  55.1373536  79.3007131  33.1608546  54.7550613  79.9144656
  31.6764426  54.9187737  79.6662824  42.9330616  65.5436511  80.9060867
  43.4770520  66.1566469  80.4115822  42.3517461  66.1016089  81.4227880
  29.3102050  56.9449965  65.2325486  29.6055491  56.0360643  65.1792540
  28.4090086  56.9237704  64.9106489  41.2188129  68.6657229  72.0375895
  41.0939268  67.8646969  71.5286840  41.8767220  69.1603422  71.5489865
  32.8396297  55.0205961  71.2153035  32.1182883  55.6341929  71.0760508
  33.6289553  55.5563726  71.1369681  43.2823037  66.4666249  73.6655445
  42.3353373  66.3471600  73.5933771  43.6305810  65.5788747  73.7481706
  35.6422611  52.3560388  77.4893687  36.1657012  52.6022684  78.2519996
  35.4234944  53.1880423  77.0696824  31.0389892  54.6264062  65.3564811
  30.7102598  53.7461441  65.1739917  31.3929262  54.5711731  66.2441201
  40.2869471  66.2618965  69.8659797  40.1394433  65.3335672  70.0467367
  41.1122964  66.2839056  69.3816872  34.1531715  54.9137032  65.7240289
  34.4927787  55.4422953  65.0018897  34.6003835  55.2517438  66.4998856
  43.8903592  67.0847524  70.9524670  44.8150140  66.8790385  70.8149121
  43.7218896  66.8363925  71.8614011  36.8475156  53.2974083  75.1743357
  36.5071976  52.4981896  75.5764037  36.1414162  53.5975794  74.6020190
  37.4991627  50.3823395  73.6270680  38.3217697  49.9083873  73.5049570
  37.7429691  51.1613879  74.1269366  35.0230206  57.0742516  71.4362659
  34.8774787  57.3882819  72.3286940  34.5455410  57.6927416  70.8833557
  36.8826589  54.0645064  71.4843548  36.8688158  53.1686157  71.1475846
  37.5999017  54.0715728  72.1181834  38.7352720  54.4982404  73.5296676
  38.4770498  55.4199475  73.5281006  38.2037760  54.1012839  74.2197140
  43.6798909  67.6033191  66.3086761  43.8535786  67.0379614  65.5560614
  44.1727800  68.4034086  66.1266251  29.4975868  59.6147860  74.3750320
  28.9529336  60.3907668  74.5070594  30.3755218  59.9618665  74.2169441
  36.2863485  52.9459444  66.7531118  36.4079396  52.0176090  66.9522006
  35.9965527  52.9598130  65.8409434  39.1554675  50.6314355  69.8897838
  39.1776372  50.6953688  68.9349818  39.5722734  49.7918863  70.0838344
  49.5338300  60.3669614  67.9277061  49.9769446  59.6176939  67.5296184
  48.6564810  60.3579750  67.5450793  30.2841890  58.7417757  77.2680477
  29.5423626  58.8900392  77.8545107  29.9634635  59.0026022  76.4047226
  38.2285553  68.2833735  77.0660867  38.5372679  68.0382882  77.9383566
  39.0261035  68.4880373  76.5779737  38.2506165  70.4371644  69.2966243
  37.8111155  69.9448023  69.9899100  39.0014282  69.8944612  69.0558319
  30.7298504  66.6283185  69.2990871  31.5556524  66.3286957  68.9189515
  30.3792556  65.8590808  69.7480660  35.6980037  65.9809653  71.3688545
  35.0760046  65.3180359  71.0690773  36.3684904  66.0070785  70.6862193
  28.9307109  64.5469512  70.2579805  28.0939017  64.1191686  70.0763806
  28.9030754  64.7401955  71.1950596  35.7704565  54.4591442  80.9621051
  35.8192720  55.3353564  80.5798821  36.3127079  53.9168835  80.3892694
  46.2559410  65.0032565  80.2422188  45.4654954  64.9856704  79.7026687
  46.0192765  65.5420858  80.9971225  46.3757285  61.8525031  77.5554917
  46.4255290  61.6875039  78.4970439  46.2671209  60.9852290  77.1652797
  35.2593544  64.5313577  64.8447006  35.4081664  65.2149041  64.1913678
  36.0659987  64.5118667  65.3596461  43.6661048  57.8355959  78.8714223
  44.5670910  57.6962424  78.5798221  43.7409022  58.0010414  79.8112401
  38.0003853  55.2122814  77.7167410  37.1307162  55.5056380  77.4449998
  38.2363333  55.7963259  78.4374673  47.8775482  64.2721973  77.7996938
  47.5860290  64.6351953  78.6360399  47.2647613  63.5588981  77.6210270
  49.0771164  61.8374852  70.3199508  49.9118056  62.2764656  70.4837069
  49.2130293  61.3613506  69.5007754  46.1262670  59.3954587  76.2676996
  46.6016792  59.5882234  75.4595848  45.2028236  59.4513773  76.0220380
  33.0146177  60.5578754  65.8508074  32.7692219  59.6541084  66.0488285
  33.1842092  60.5595905  64.9087552  40.7042887  51.4302431  75.2332830
  41.2224831  52.1663458  74.9079319  40.3498020  51.7366424  76.0679589
  32.2841825  56.2907112  63.3494236  31.5911069  56.3651467  62.6934272
  32.0393576  55.5267456  63.8715753  40.9555481  47.8502713  70.7533727
  41.2357235  47.1825902  71.3794153  41.7406088  48.0431809  70.2408390
  38.7588950  67.0261707  62.3158753  38.1862917  67.6451894  61.8629225
  39.3321743  67.5761069  62.8498675  44.8264339  56.2720347  74.5005302
  45.7781762  56.3718445  74.5217526  44.6567790  55.4798616  75.0103386
  42.8478719  53.3575931  74.6864703  42.2528651  53.6380943  73.9911191
  42.5628416  53.8469832  75.4581444  41.9786209  67.3098857  63.4467335
  42.9116882  67.2444419  63.6500211  41.8909422  68.1455124  62.9881868
  47.3052417  59.4926467  73.6147601  47.2728737  58.5542468  73.8007285
  47.9153041  59.5710504  72.8813426  47.4546906  56.2837510  73.6605885
  46.9385954  55.4995967  73.4735813  48.3386854  55.9556227  73.8252404
  45.1157633  50.0278526  69.6201697  44.9182454  49.7193614  70.5045029
  45.7257338  50.7540165  69.7499627  53.1228967  60.5542474  72.7553638
  53.8532355  60.2927762  73.3161342  52.5135912  59.8171196  72.7955706
  51.2044264  58.6950336  73.3528089  50.4777428  58.5606301  72.7444581
  50.7891551  59.0027165  74.1584807  39.0274441  62.4140266  81.1175462
  39.9477450  62.5918865  81.3115509  38.9924024  61.4696312  80.9655162
  28.2456606  57.6078860  70.0428737  27.9259390  56.7544168  69.7503111
  27.6990034  57.8227438  70.7986704  32.0236513  60.3241301  73.7598244
  32.2422523  61.2558409  73.7786277  32.4362287  59.9649275  74.5453047
  38.9440731  50.8309386  65.7473932  38.1341459  50.4856471  66.1229178
  39.6325148  50.5216930  66.3361544  40.8731279  49.9087433  67.3698229
  41.4262318  50.3282886  68.0288252  41.1101366  48.9823181  67.4121185
  36.8964378  55.8974507  83.1500993  36.7961105  56.8468864  83.0813084
  36.6785920  55.5692745  82.2777063  28.1144866  61.2281771  72.0121859
  27.4208337  60.8135724  71.4991813  28.8617857  61.2702308  71.4155278
  44.2510086  52.0187958  66.8776893  43.6708755  52.6772762  66.4954945
  43.9846019  51.1965303  66.4664310  42.7013653  51.4193016  69.0798213
  43.2013431  51.5309550  68.2712532  43.3449261  51.1154069  69.7199022
  36.7595648  59.3271645  81.9666054  36.2762730  60.1272006  82.1729943
  36.8456588  59.3379590  81.0133498  30.0281608  61.1600025  69.8887874
  30.0052296  61.2587712  68.9369757  30.3382245  62.0065176  70.2105040
  32.6868986  63.2176180  74.0034488  33.6412240  63.1860122  73.9364420
  32.4881510  62.7566804  74.8184714  33.2768368  61.7877296  76.5705286
  34.0961257  62.2821375  76.5940123  33.5505176  60.8709264  76.5422853
  46.3849500  54.2034569  69.6487580  47.1609891  54.6931022  69.9212197
  45.6597635  54.6292624  70.1059450  48.8222059  54.9162189  70.7061521
  49.4166550  54.6757925  69.9954829  48.8948643  54.1969319  71.3335057
  31.0419215  68.7595800  71.0204686  30.9073683  67.9996200  70.4542684
  30.6251277  69.4836699  70.5533475  46.8180794  55.4832316  66.9733651
  46.5617728  55.0828952  67.8041858  46.1933662  56.1976110  66.8483790
  51.1293132  58.2228390  69.4804942  50.5692690  58.2921579  70.2536504
  50.5236635  58.0469374  68.7604438  34.1988341  69.6565117  71.2323128
  34.0820725  70.6010549  71.1301819  33.3780787  69.3538678  71.6208928
  28.5303282  56.1215430  77.2697483  29.1762146  55.6114384  77.7584708
  28.3220433  56.8584112  77.8440908  41.0556675  63.1896278  82.7689623
  41.9247834  63.3636930  82.4076258  40.5763426  64.0090694  82.6465353
  35.2242855  70.3093379  74.4479057  36.1270101  70.3416989  74.7645552
  34.9980225  69.3793829  74.4625393  36.9796457  69.0624365  71.1089136
  36.0292088  69.0626227  70.9953508  37.2828943  68.3157100  70.5925170
  40.8659012  46.9798251  67.2767316  40.0991408  46.4256738  67.4223998
  41.2769717  47.0520120  68.1381467  32.8700773  53.2683047  81.3672497
  33.7332235  52.9119852  81.5775821  32.2966184  52.9296942  82.0547901
  52.7149150  74.8984903  72.1734898  53.3527560  74.7791651  71.4698238
  52.5969993  75.8465747  72.2322850  49.5238857  74.8512332  72.1096423
  49.1857368  74.7353396  71.2216957  50.3928625  74.4503497  72.0897429
  45.3825672  76.7047808  68.0993314  44.8190537  76.6137745  67.3309601
  45.2678067  75.8847712  68.5795806  42.9290104  78.1999000  70.9377534
  43.7211396  77.8589824  70.5223833  43.1686754  78.3093975  71.8579687
  50.9625231  80.3718776  63.4107778  50.3113211  80.9572856  63.0241792
  51.7569594  80.9024971  63.4702816  44.8880858  77.4607913  63.8094913
  45.6611734  76.9136900  63.6707789  45.2406257  78.3252162  64.0209374
  47.6522108  76.1661144  73.6063172  48.2485680  75.9417166  72.8920135
  47.7097079  75.4245889  74.2088620  47.2247136  73.6200579  61.4413363
  47.4772657  73.0982100  60.6796826  46.2871695  73.4566724  61.5440046
  52.2690419  72.6236357  69.2488106  53.0553508  72.2055780  68.8978523
  52.5329123  73.5282449  69.4169754  52.4400496  78.0609208  63.9476763
  51.8046329  78.1343834  64.6597667  52.1097903  78.6502806  63.2695842
  57.6698846  72.5611591  70.1521084  58.4024018  71.9910807  70.3858914
  56.9138202  72.1733191  70.5927590  46.9443425  75.5228685  63.6437738
  46.8279683  74.8473588  64.3118822  47.0545685  75.0361059  62.8269891
  49.2874966  74.9838832  67.3484427  48.9233173  74.4569453  68.0597348
  50.1442082  74.5937301  67.1750912  55.1924266  66.2733165  74.6115693
  54.8607591  67.1428576  74.3876908  54.5969880  65.9569449  75.2909723
  51.6855786  78.4745711  74.0111606  51.3856509  79.3770749  73.9027413
  51.3406845  78.2077894  74.8632759  45.1368267  74.9259507  70.0448310
  44.2118764  74.7935722  70.2526002  45.3852680  75.7053727  70.5418253
  55.0852930  70.9928251  71.6909043  54.1769807  70.9243659  71.3967804
  55.0340525  71.4700196  72.5190869  48.9069673  72.4686389  63.3292442
  48.7869299  72.9143440  64.1677923  48.2122262  72.8171707  62.7705980
  42.4977078  74.5692781  70.8792099  42.6269459  74.8227260  71.7931511
  41.8174530  75.1620489  70.5596754  46.6676566  85.2390031  66.9782573
  46.5900595  86.1897856  67.0571054  46.0638209  84.8935903  67.6357500
  56.9514576  69.1944689  73.4686917  56.3088956  69.4877222  72.8226712
  56.4469504  69.0797610  74.2740114  54.6054740  72.9407862  64.1572776
  55.5172596  73.1735249  63.9820474  54.0964387  73.5244907  63.5947855
  49.2426577  72.3005097  75.1667626  50.0887773  72.7244511  75.3102275
  49.1825215  71.6438721  75.8606189  53.2124322  77.9233681  71.5486358
  52.5833184  78.0879395  70.8462426  52.8249984  78.3375290  72.3197322
  57.0913554  78.8588119  68.9030722  56.4064592  79.2387020  68.3527755
  57.1757403  79.4683445  69.6362669  52.3926023  69.9609465  76.8248799
  52.1486955  70.7151526  76.2883075  52.6685953  70.3394813  77.6596047
  51.9490714  69.1165898  72.4062637  51.0875193  69.4147152  72.6979375
  51.9753149  69.3336297  71.4743670  48.7652284  77.6608089  68.8136443
  49.2290629  77.9395792  68.0241065  48.5009082  76.7591533  68.6309534
  45.6576365  77.2079570  71.7516206  46.2277722  77.6366839  71.1133691
  46.2484477  76.9262155  72.4500392  47.7021170  73.7831241  65.6226008
  48.4045213  74.2352285  66.0899934  47.3701798  73.1415060  66.2505901
  46.1501531  72.3742998  79.9977217  45.5200192  73.0559279  80.2312614
  46.0437619  72.2626080  79.0530356  41.4446504  72.0414794  70.9243142
  40.6545558  72.2972322  70.4483252  41.9357751  72.8563132  71.0295182
  43.3961249  72.4059373  67.8826618  42.5992412  72.5178067  68.4010114
  43.1686841  72.7446025  67.0167509  39.7284207  72.2945284  73.3558132
  39.9792245  73.1792294  73.6215708  40.2643755  72.1149886  72.5833224
  63.5516306  75.7258782  70.0233394  62.7980015  75.1566180  69.8677398
  63.6863848  75.6921446  70.9704029  48.9414934  80.5972184  65.6988113
  48.8060609  81.4423720  66.1272961  49.4824747  80.7991462  64.9354047
  45.4282274  66.6763764  82.3602468  45.0349220  66.1229962  83.0350113
  46.2448414  66.9874342  82.7508986  42.3944332  78.1147622  66.2716038
  42.9068852  78.9090872  66.4221603  43.0467045  77.4173912  66.2049640
  44.2039217  81.2313378  68.3538791  44.3805845  82.1531343  68.1659775
  44.9996050  80.9171797  68.7833171  48.3450235  68.0921643  79.9522725
  49.0859948  68.6928796  79.8727187  48.5768158  67.3499281  79.3940768
  43.4891573  73.2778010  78.2300955  43.3745088  72.3763267  78.5308054
  42.6336091  73.5241707  77.8785771  45.3270532  82.7491552  74.3549134
  45.8777957  82.6208615  73.5826128  44.4882008  83.0486441  74.0044027
  52.2907398  64.1202746  74.2287007  51.9471667  65.0104387  74.1526117
  52.6586361  63.9304403  73.3656592  40.3593249  76.4436276  67.0475609
  41.1968471  76.8533285  66.8309317  40.5371516  75.5035718  67.0175803
  52.2557681  74.1111357  62.7359442  51.7404304  74.8815962  62.9747829
  51.9834989  73.4376493  63.3592503  49.8404792  68.9561058  67.7944680
  48.9846388  68.5667908  67.6150319  50.2531744  69.0353018  66.9344466
  51.3703938  66.4907401  72.1936240  50.8668734  66.4537536  71.3804045
  51.6634545  67.4000144  72.2532897  47.6146824  66.5746131  71.2002422
  48.4799821  66.3788939  70.8408311  47.6824333  66.3456482  72.1271778
  57.2291955  76.8643712  64.6712615  56.4521398  76.5254871  64.2267777
  57.9083436  76.8696335  63.9967580  52.0443984  71.9838449  64.5619223
  51.7394120  72.2984598  65.4129366  52.9974426  72.0619869  64.6046556
  50.4890416  78.1428672  66.2112177  49.9611777  77.4081432  65.8985414
  49.9877919  78.9203349  65.9652145  55.4683262  76.3377693  71.3279223
  54.8106936  77.0276954  71.4159352  56.2723661  76.7274125  71.6713210
  45.2209143  68.8048339  68.5718788  45.7952895  68.5823520  67.8391981
  45.8080126  68.8737033  69.3247390  54.2788721  74.6922065  69.3783165
  54.7920602  75.3252057  69.8804875  54.9289944  74.0923261  69.0126525
  45.5478730  70.8352800  62.5914674  44.7116043  71.1727486  62.9123948
  45.4083500  70.7001779  61.6541811  47.5231811  65.6789587  67.2993858
  46.8696223  65.3638605  66.6750473  47.4812285  65.0565328  68.0253681
  48.6343016  75.9608883  59.2147150  47.7270078  75.7298136  59.4138299
  49.1314048  75.1646502  59.4021132  51.5411095  84.6706390  62.1343836
  50.8672794  84.9738087  62.7428794  51.9276917  85.4735470  61.7849293
  50.7569551  72.1671521  71.6241506  49.8392113  72.3886468  71.4663194
  51.1729695  72.2417832  70.7653213  51.5404599  73.5662937  66.7544186
  52.2876418  74.0784334  66.4451308  51.8096189  73.2446989  67.6148579
  49.8131249  76.0621477  63.7371140  48.9042469  75.7780510  63.8343610
  49.8426333  76.4820556  62.8774447  55.0450517  79.6728067  67.5062308
  54.5912844  78.8318977  67.5627498  54.4144484  80.3089465  67.8437088
  53.9883436  70.6020053  68.7362975  53.2506193  70.0897439  69.0673218
  54.2410210  70.1620435  67.9246252  53.4883456  81.5104564  68.4412126
  53.7806430  82.0709621  67.7224491  53.9982077  81.8033125  69.1965285
  40.3819420  73.7826992  67.7186342  40.1843820  73.1896352  66.9937409
  39.8266084  73.4779202  68.4362281  48.3616143  73.6750098  69.8380935
  48.4164753  72.7223934  69.7623412  47.5507345  73.8309537  70.3222234
  49.5107337  77.6030221  61.0759219  49.0726767  76.8866080  60.6164856
  50.2517778  77.8306336  60.5144310  46.3008503  72.2927158  67.5971314
  45.4876369  72.5921328  68.0036506  46.7967498  71.8982847  68.3145797
  48.4517081  82.2884915  69.5305579  48.4093260  82.5145761  68.6014111
  49.3679780  82.0548289  69.6791380  51.8982715  72.7568982  76.4286208
  52.2532103  72.9840455  77.2880674  52.5454846  73.0887359  75.8063463
  57.6280452  75.8787418  67.1335537  57.4898351  76.0689014  66.2056726
  57.2716671  76.6406801  67.5903588  45.7922578  69.8645513  73.2132549
  46.4321957  69.7234272  72.5155513  44.9600109  69.5780027  72.8371151
  57.6549832  77.9463945  72.1446809  58.0886338  77.8539234  72.9929863
  58.3681412  77.9221446  71.5066825  46.5682882  79.1647944  69.3267542
  47.3623481  78.6698264  69.1250117  45.8574574  78.6365807  68.9635247
  42.8765645  73.3091025  65.4027294  41.9463234  73.2475481  65.6197257
  42.9723117  72.7866978  64.6063936  42.7951195  69.8345838  67.9905536
  43.0558012  70.7491172  67.8814697  43.6168367  69.3670281  68.1402149
  44.2676120  71.2483595  75.1604361  44.9399173  71.0400958  74.5117009
  43.4405906  71.0505681  74.7209593  50.1701692  67.8745536  77.1770021
  49.5229607  68.5735486  77.0834498  50.9402707  68.3081680  77.5446270
  50.3465826  75.7126301  75.2366841  51.2757886  75.8637461  75.0635808
  49.9256856  75.8010322  74.3815488  49.1454158  79.7376966  73.0065379
  49.0065244  79.3695750  73.8791317  48.3568754  80.2524605  72.8349337
  49.7402310  84.8386062  64.3490915  49.9154066  84.3674105  65.1636538
  49.0535098  85.4651828  64.5772176  50.6959373  79.1158568  70.3954217
  50.3609206  79.0759338  71.2911866  50.1963319  78.4503284  69.9224627
  44.6703617  74.5226198  75.9206798  44.5323415  73.7906437  76.5218337
  45.5808541  74.4335099  75.6390985  53.6318565  76.4614603  60.6691276
  53.0147735  75.7361431  60.5724329  53.1635053  77.2223963  60.3258351
  47.2985918  74.2346158  75.4090477  48.0085536  73.5939350  75.3677096
  47.2555226  74.4859053  76.3316658  46.0114852  71.2211376  77.2286117
  45.4752209  70.7702114  77.8807713  45.4231560  71.3557284  76.4856581
  44.3063395  87.9875425  71.1230776  44.5459993  88.6193949  71.8009794
  43.4632592  87.6363465  71.4096135  36.9419251  75.4677187  69.8854088
  37.6290291  75.1538917  69.2975103  36.7867380  76.3718551  69.6121339
  41.7453973  70.3567383  74.3139111  41.6612162  69.7493053  73.5789521
  40.9236679  70.8476402  74.3148608  48.6081037  83.0326317  67.0375101
  47.8248559  83.5747998  67.1313326  49.3073782  83.5500297  67.4369342
  51.9177687  68.8420947  69.6809306  52.4146386  68.0890909  69.3610377
  51.1464668  68.8785264  69.1152516  59.7707444  74.5461312  71.3227598
  59.7597321  75.4286028  70.9521531  58.9024824  74.1932863  71.1282135
  53.0007468  77.5992634  67.2547730  52.0663746  77.7194097  67.0852434
  53.1784136  76.6965101  66.9907740  48.5012656  70.9838330  69.4080991
  48.1310443  70.4309370  70.0961897  48.9971748  70.3796463  68.8555991
  56.3880019  73.4409953  67.7897764  56.8540471  74.2737945  67.7158067
  56.8387519  72.9754935  68.4943022  54.4556250  79.7853775  64.7883916
  54.7316094  79.6710369  65.6977790  53.5860749  79.3871260  64.7496089
  54.3596682  65.8090540  71.8288665  53.4459761  66.0394767  71.9970872
  54.7889783  65.8928984  72.6802698  54.1303140  73.9980432  74.3288559
  53.4774590  74.2456340  73.6741012  54.5083520  73.1844571  73.9951037
  51.0910314  84.0340126  68.4316730  51.2732709  83.2161781  68.8944482
  51.9143300  84.2507818  67.9941620  51.4252480  82.9608311  65.6931778
  51.9540246  82.4500765  65.0801940  51.6880699  82.6450841  66.5577311
  41.9269572  80.9772180  73.4367112  42.5123009  80.2315868  73.5695016
  41.7294411  81.2876137  74.3203776  44.7808227  84.0123427  68.4529554
  44.1118603  84.4969555  67.9693594  44.6421097  84.2592648  69.3672933
  36.5187227  73.5477780  72.1571555  36.5571327  73.0141371  72.9508673
  36.0127520  73.0212986  71.5382532  43.8977989  68.3942321  75.6534097
  43.9619316  69.2557152  75.2411495  43.8345110  67.7816322  74.9206456
  43.3730262  70.4665453  79.3007131  44.0002301  70.0842531  79.9144656
  42.5158181  70.2479655  79.6662824  40.1495805  72.2741882  65.2325486
  40.4449246  71.3652561  65.1792540  39.2483840  72.2529622  64.9106489
  43.6790052  70.3497879  71.2153035  42.9576637  70.9633847  71.0760508
  44.4683307  70.8855644  71.1369681  46.4816365  67.6852305  77.4893687
  47.0050767  67.9314602  78.2519996  46.2628698  68.5172340  77.0696824
  41.8783646  69.9555980  65.3564811  41.5496352  69.0753359  65.1739917
  42.2323017  69.9003649  66.2441201  51.1263225  81.5910883  69.8659797
  50.9788187  80.6627590  70.0467367  51.9516719  81.6130973  69.3816872
  44.9925469  70.2428950  65.7240289  45.3321542  70.7714871  65.0018897
  45.4397590  70.5809356  66.4998856  54.7297347  82.4139441  70.9524670
  55.6543894  82.2082303  70.8149121  54.5612650  82.1655843  71.8614011
  47.6868910  68.6266000  75.1743357  47.3465730  67.8273814  75.5764037
  46.9807916  68.9267711  74.6020190  48.3385382  65.7115313  73.6270680
  49.1611451  65.2375791  73.5049570  48.5823445  66.4905797  74.1269366
  51.1224739  69.4448720  64.8591914  51.3388354  70.3273358  64.5580742
  50.6418806  69.0534934  64.1297556  45.8623961  72.4034434  71.4362659
  45.7168541  72.7174737  72.3286940  45.3849164  73.0219334  70.8833557
  47.7220344  69.3936982  71.4843548  47.7081912  68.4978075  71.1475846
  48.4392772  69.4007645  72.1181834  49.5746474  69.8274322  73.5296676
  49.3164252  70.7491392  73.5281006  49.0431515  69.4304756  74.2197140
  54.5192663  82.9325109  66.3086761  54.6929541  82.3671531  65.5560614
  55.0121554  83.7326004  66.1266251  40.3369623  74.9439778  74.3750320
  39.7923091  75.7199586  74.5070594  41.2148973  75.2910582  74.2169441
  47.1257240  68.2751362  66.7531118  47.2473151  67.3468008  66.9522006
  46.8359282  68.2890048  65.8409434  49.9948430  65.9606272  69.8897838
  50.0170127  66.0245605  68.9349818  50.4116489  65.1210781  70.0838344
  60.3732054  75.6961532  67.9277061  60.8163200  74.9468857  67.5296184
  59.4958565  75.6871668  67.5450793  55.5067836  82.2491873  63.4083659
  56.2018740  82.8698566  63.6270974  55.8490986  81.3987224  63.6836037
  41.1235645  74.0709674  77.2680477  40.3817381  74.2192310  77.8545107
  40.8028389  74.3317940  76.4047226  57.4059259  79.6991579  64.9370990
  57.9310583  80.0378852  64.2120310  57.3181611  78.7638594  64.7534125
  49.0899919  85.7663562  69.2966243  48.6504910  85.2739941  69.9899100
  49.8408036  85.2236530  69.0558319  41.5692258  81.9575103  69.2990871
  42.3950278  81.6578875  68.9189515  41.2186310  81.1882725  69.7480660
  46.5373792  81.3101571  71.3688545  45.9153801  80.6472276  71.0690773
  47.2078658  81.3362703  70.6862193  39.7700863  79.8761429  70.2579805
  38.9332772  79.4483604  70.0763806  39.7424509  80.0693873  71.1950596
  46.6098319  69.7883359  80.9621051  46.6586475  70.6645482  80.5798821
  47.1520833  69.2460752  80.3892694  46.0987298  79.8605495  64.8447006
  46.2475419  80.5440959  64.1913678  46.9053742  79.8410585  65.3596461
  48.8397608  70.5414732  77.7167410  47.9700917  70.8348298  77.4449998
  49.0757088  71.1255177  78.4374673  59.9164919  77.1666770  70.3199508
  60.7511810  77.6056574  70.4837069  60.0524048  76.6905423  69.5007754
  43.8539931  75.8870672  65.8508074  43.6085973  74.9833002  66.0488285
  44.0235846  75.8887823  64.9087552  51.5436641  66.7594349  75.2332830
  52.0618585  67.4955375  74.9079319  51.1891774  67.0658342  76.0679589
  43.1235579  71.6199030  63.3494236  42.4304824  71.6943385  62.6934272
  42.8787331  70.8559373  63.8715753  51.7949236  63.1794631  70.7533727
  52.0750989  62.5117820  71.3794153  52.5799842  63.3723727  70.2408390
  49.5982704  82.3553625  62.3158753  49.0256671  82.9743812  61.8629225
  50.1715498  82.9052987  62.8498675  55.6658094  71.6012265  74.5005302
  56.6175517  71.7010363  74.5217526  55.4961544  70.8090534  75.0103386
  53.6872473  68.6867848  74.6864703  53.0922405  68.9672861  73.9911191
  53.4022170  69.1761749  75.4581444  52.8179964  82.6390775  63.4467335
  53.7510637  82.5736337  63.6500211  52.7303177  83.4747042  62.9881868
  55.4467980  81.9556645  60.4071283  55.3681612  81.6216509  61.3007041
  56.2677647  82.4478413  60.4062755  58.1446172  74.8218385  73.6147601
  58.1122492  73.8834385  73.8007285  58.7546795  74.9002421  72.8813426
  49.9829503  73.6914438  59.6574805  50.9288607  73.5620646  59.7263223
  49.6043747  72.9529100  60.1344234  58.2940660  71.6129428  73.6605885
  57.7779709  70.8287885  73.4735813  59.1780609  71.2848145  73.8252404
  39.0850360  72.9370777  70.0428737  38.7653144  72.0836086  69.7503111
  38.5383788  73.1519356  70.7986704  42.8630268  75.6533218  73.7598244
  43.0816277  76.5850326  73.7786277  43.2756041  75.2941193  74.5453047
  38.9538620  76.5573689  72.0121859  38.2602091  76.1427642  71.4991813
  39.7011611  76.5994226  71.4155278  53.5407407  66.7484933  69.0798213
  54.0407185  66.8601468  68.2712532  54.1843015  66.4445986  69.7199022
  40.8675363  76.4891943  69.8887874  40.8446051  76.5879630  68.9369757
  41.1775999  77.3357094  70.2105040  43.5262740  78.5468098  74.0034488
  44.4805994  78.5152040  73.9364420  43.3275264  78.0858722  74.8184714
  44.1162123  77.1169214  76.5705286  44.9355012  77.6113293  76.5940123
  44.3898930  76.2001182  76.5422853  53.8728719  69.5079966  65.9333241
  52.9854574  69.7929617  65.7153436  54.2882708  69.3473730  65.0860518
  57.2243255  69.5326487  69.6487580  58.0003645  70.0222940  69.9212197
  56.4991389  69.9584541  70.1059450  59.6615814  70.2454106  70.7061521
  60.2560304  70.0049842  69.9954829  59.7342397  69.5261237  71.3335057
  41.8812969  84.0887717  71.0204686  41.7467437  83.3288118  70.4542684
  41.4645032  84.8128617  70.5533475  53.0171932  79.2724641  60.0281261
  53.7207782  79.4774643  60.6438917  52.2934581  79.8401403  60.2930345
  53.8469743  75.0234502  66.1483531  53.7904944  75.4803054  65.3091164
  54.3998085  74.2625187  65.9706374  57.6574548  70.8124234  66.9733651
  57.4011483  70.4120870  67.8041858  57.0327416  71.5268028  66.8483790
  61.9686886  73.5520307  69.4804942  61.4086444  73.6213497  70.2536504
  61.3630390  73.3761292  68.7604438  45.0382095  84.9857034  71.2323128
  44.9214479  85.9302467  71.1301819  44.2174541  84.6830596  71.6208928
  54.9258630  79.7107170  62.0779721  55.7604234  79.2788368  61.8957196
  54.7642973  79.5389184  63.0056616  54.5804522  76.2139283  63.4436060
  54.5253326  76.0483555  62.5024505  53.9550577  76.9215316  63.5998250
  39.3697037  71.4507348  77.2697483  40.0155900  70.9406302  77.7584708
  39.1614188  72.1876029  77.8440908  47.8190211  84.3916283  71.1089136
  46.8685842  84.3918144  70.9953508  48.1222697  83.6449017  70.5925170
  51.7052767  62.3090169  67.2767316  50.9385163  61.7548656  67.4223998
  52.1163472  62.3812038  68.1381467  43.7094528  68.5974965  81.3672497
  44.5725989  68.2411770  81.5775821  43.1359938  68.2588860  82.0547901
  55.7274613  92.7899831  63.8094913  56.5005489  92.2428818  63.6707789
  56.0800011  93.6544080  64.0209374  58.0640890  88.9492497  61.4413363
  58.3166411  88.4274018  60.6796826  57.1265450  88.7858642  61.5440046
  57.7837179  90.8520603  63.6437738  57.6673437  90.1765506  64.3118822
  57.8939439  90.3652977  62.8269891  59.7674207  85.3420649  62.3445775
  59.9348609  86.2100886  62.7116246  59.5771376  85.5047931  61.4207065
  59.7463428  87.7978307  63.3292442  59.6263053  88.2435358  64.1677923
  59.0516016  88.1463625  62.7705980  54.2355004  87.7351291  67.8826618
  53.4386167  87.8469985  68.4010114  54.0080596  88.0737943  67.0167509
  51.1987003  91.7728194  67.0475609  52.0362225  92.1825202  66.8309317
  51.3765271  90.8327636  67.0175803  63.0951435  89.4403275  62.7359442
  62.5798059  90.2107879  62.9747829  62.8228744  88.7668411  63.3592503
  60.6798546  84.2852975  67.7944680  59.8240143  83.8959826  67.6150319
  61.0925498  84.3644936  66.9344466  62.8837738  87.3130367  64.5619223
  62.5787874  87.6276516  65.4129366  63.8368181  87.3911787  64.6046556
  56.0602898  84.1340256  68.5718788  56.6346650  83.9115438  67.8391981
  56.6473880  84.2028951  69.3247390  56.3872485  86.1644717  62.5914674
  55.5509797  86.5019404  62.9123948  56.2477255  86.0293697  61.6541811
  58.3625566  81.0081505  67.2993858  57.7089978  80.6930522  66.6750473
  58.3206040  80.3857246  68.0253681  59.4736770  91.2900800  59.2147150
  58.5663832  91.0590054  59.4138299  59.9707802  90.4938420  59.4021132
  60.6525004  91.3913395  63.7371140  59.7436223  91.1072428  63.8343610
  60.6820088  91.8112474  62.8774447  64.9288818  78.7088223  69.3304744
  65.2347695  77.8485586  69.0430659  65.6541423  79.3005843  69.1303738
  51.2213174  89.1118909  67.7186342  51.0237574  88.5188270  66.9937409
  50.6659838  88.8071119  68.4362281  60.3501092  92.9322139  61.0759219
  59.9120522  92.2157998  60.6164856  61.0911533  93.1598254  60.5144310
  53.7159400  88.6382943  65.4027294  52.7856988  88.5767399  65.6197257
  53.8116872  88.1158896  64.6063936  53.6344949  85.1637756  67.9905536
  53.8951766  86.0783089  67.8814697  54.4562121  84.6962199  68.1402149
  64.4712319  91.7906520  60.6691276  63.8541490  91.0653349  60.5724329
  64.0028808  92.5515881  60.3258351  56.2610865  86.0091945  59.7912581
  55.3840332  85.8880746  59.4274827  56.7368618  85.2178023  59.5391469
  50.9889559  87.6033800  65.2325486  51.2843000  86.6944478  65.1792540
  50.0877595  87.5821539  64.9106489  52.7177401  85.2847898  65.3564811
  52.3890107  84.4045277  65.1739917  53.0716771  85.2295566  66.2441201
  55.8319224  85.5720867  65.7240289  56.1715296  86.1006789  65.0018897
  56.2791344  85.9101274  66.4998856  57.8187371  84.0695489  63.9233582
  58.5395733  84.4476742  63.4197299  57.1952675  84.7884366  64.0268560
  61.9618494  84.7740638  64.8591914  62.1782108  85.6565276  64.5580742
  61.4812561  84.3826851  64.1297556  57.9650994  83.6043279  66.7531118
  58.0866905  82.6759926  66.9522006  57.6753036  83.6181965  65.8409434
  60.8342184  81.2898190  69.8897838  60.8563881  81.3537523  68.9349818
  61.2510243  80.4502699  70.0838344  54.6933686  91.2162590  65.8508074
  54.4479728  90.3124920  66.0488285  54.8629601  91.2179740  64.9087552
  53.9629333  86.9490947  63.3494236  53.2698578  87.0235302  62.6934272
  53.7181085  86.1851291  63.8715753  60.8223257  89.0206355  59.6574805
  61.7682362  88.8912563  59.7263223  60.4437502  88.2821017  60.1344234
  59.0066174  86.9456332  59.5929691  58.0997630  86.6489444  59.6692404
  59.2842155  86.6486150  58.7263977  60.6228240  81.4893221  65.7473932
  59.8128968  81.1440306  66.1229178  61.3112657  81.1800765  66.3361544
  62.5518788  80.5671268  67.3698229  63.1049827  80.9866722  68.0288252
  62.7888875  79.6407016  67.4121185  57.7764959  83.8043267  59.7341670
  58.6384123  84.1298165  59.9937487  57.9615303  83.0174763  59.2214736
  65.9297595  82.6771793  66.8776893  65.3496264  83.3356597  66.4954945
  65.6633528  81.8549138  66.4664310  64.7122473  84.8371884  65.9333241
  63.8248328  85.1221534  65.7153436  65.1276462  84.6765647  65.0860518
  58.7294402  81.0439310  63.0221379  58.7173072  81.9881150  63.1789650
  59.6217824  80.8609455  62.7280840  62.5446521  77.6382087  67.2767316
  61.7778917  77.0840573  67.4223998  62.9557226  77.7103955  68.1381467
  20.1967888   5.9171273  58.8980205  20.8346298   5.7978020  58.1943545
  20.0788731   6.8652117  58.9568157  17.0057594   5.8698701  58.8341729
  16.6676106   5.7539766  57.9462264  17.8747363   5.4689866  58.8142735
  12.8644410   7.7234178  54.8238620  12.3009275   7.6324114  54.0554908
  12.7496805   6.9034082  55.3041113  10.4108842   9.2185369  57.6622841
  11.2030134   8.8776194  57.2469140  10.6505492   9.3280344  58.5824994
  18.4443969  11.3905145  50.1353085  17.7931949  11.9759226  49.7487099
  19.2388332  11.9211340  50.1948123  12.3699596   8.4794282  50.5340219
  13.1430472   7.9323269  50.3953095  12.7224995   9.3438532  50.7454681
  14.2084638   9.8070665  63.7407119  13.9174504  10.7116296  63.6253785
  14.8441623   9.8487192  64.4551188  15.1340845   7.1847513  60.3308478
  15.7304418   6.9603536  59.6165441  15.1915817   6.4432259  60.9333926
  14.7065874   4.6386949  48.1658669  14.9591394   4.1168470  47.4042132
  13.7690433   4.4753094  48.2685353  19.7509157   3.6422727  55.9733413
  20.5372246   3.2242150  55.6223830  20.0147861   4.5468819  56.1415061
  19.9219234   9.0795577  50.6722069  19.2865067   9.1530204  51.3842974
  19.5916640   9.6689176  49.9941149  25.1517584   3.5797960  56.8766391
  25.8842756   3.0097177  57.1104221  24.3956939   3.1919561  57.3172897
  14.4262162   6.5415054  50.3683044  14.3098421   5.8659958  51.0364129
  14.5364422   6.0547428  49.5515197  16.7693703   6.0025202  54.0729734
  16.4051911   5.4755823  54.7842655  17.6260819   5.6123671  53.8996219
  19.1674524   9.4932080  60.7356912  18.8675247  10.3957119  60.6272720
  18.8225583   9.2264263  61.5878065  12.6187005   5.9445877  56.7693617
  11.6937502   5.8122091  56.9771309  12.8671418   6.7240096  57.2663559
  22.5671667   2.0114620  58.4154350  21.6588545   1.9430029  58.1213111
  22.5159263   2.4886565  59.2436175  16.3888411   3.4872759  50.0537749
  16.2688036   3.9329810  50.8923229  15.6941000   3.8358076  49.4951287
  14.1495303  16.2576401  53.7027880  14.0719333  17.2084226  53.7816361
  13.5456947  15.9122273  54.3602806  24.4333314   0.2131059  60.1932224
  23.7907694   0.5063592  59.5472018  23.9288242   0.0983979  60.9985420
  22.0873477   3.9594232  50.8818083  22.9991334   4.1921619  50.7065780
  21.5783124   4.5431276  50.3193162  20.3714245   8.3818860  64.5179376
  20.7797601   7.9401270  63.7734008  19.6491507   7.8071487  64.7713568
  16.7245315   3.3191467  61.8912932  17.5706510   3.7430880  62.0347581
  16.6643953   2.6625091  62.5851496  20.6943060   8.9420050  58.2731664
  20.0651922   9.1065765  57.5707732  20.3068722   9.3561660  59.0442628
  24.5732292   9.8774488  55.6276028  23.8883330  10.2573390  55.0773061
  24.6576141  10.4869815  56.3607976  21.8283223   7.5234447  62.2271372
  22.0400118   8.1666207  61.5505753  21.7812971   6.6896764  61.7593302
  19.4309452   0.1352268  59.1307944  18.5693931   0.4333521  59.4224681
  19.4571887   0.3522667  58.1988976  16.2471022   8.6794458  55.5381750
  16.7109367   8.9582161  54.7486372  15.9827820   7.7777903  55.3554840
  13.1395103   8.2265940  58.4761513  13.7096460   8.6553208  57.8378997
  13.7303214   7.9448525  59.1745698  15.1839908   4.8017611  52.3471315
  15.8863951   5.2538655  52.8145241  14.8520536   4.1601430  52.9751208
  22.9429051  10.4006403  60.3993729  23.7646495   9.9986590  60.1176411
  22.9391454  10.2974637  61.3509845  16.7085655   9.9490446  62.5554440
  16.7730087  10.4110853  63.3912611  15.9996578   9.3187811  62.6836749
  31.0335044   6.7445151  56.7478701  30.2798753   6.1752549  56.5922705
  31.1682585   6.7107816  57.6949335  16.4233672  11.6158553  52.4233420
  16.2879347  12.4610089  52.8518268  16.9643485  11.8177831  51.6599354
   9.8763070   9.1333992  52.9961345  10.3887590   9.9277242  53.1466910
  10.5285782   8.4360282  52.9294946  11.6857954  12.2499748  55.0784098
  11.8624583  13.1717712  54.8905082  12.4814788  11.9358167  55.5078478
  18.0502149  12.2382120  66.5533762  17.6066003  11.4518499  66.2354666
  18.7119362  12.4261270  65.8877653  12.8089270  13.7677922  61.0794440
  13.3596695  13.6394985  60.3071434  11.9700746  14.0672811  60.7289333
  20.1483387  12.5184920  64.5815163  20.1301862  13.3393801  64.0895432
  21.0703307  12.3938995  64.8065304  16.6056441  10.0329049  65.4238672
  17.1384778   9.2717338  65.1937980  16.0770522   9.7402701  66.1662826
  19.7376419   5.1297726  49.4604748  19.2223042   5.9002331  49.6993136
  19.4653727   4.4562863  50.0837810  24.7110693   7.8830081  51.3957922
  23.9340135   7.5441241  50.9513084  25.3902174   7.8882704  50.7212887
  19.5262722   3.0024819  51.2864530  19.2212857   3.3170968  52.1374673
  20.4793164   3.0806238  51.3291863  17.9709154   9.1615042  52.9357484
  17.4430515   8.4267801  52.6230721  17.4696656   9.9389718  52.6897452
  22.9502000   7.3564062  58.0524530  22.2925674   8.0463324  58.1404659
  23.7542399   7.7460494  58.3958516  21.7607458   5.7108435  56.1028472
  22.2739340   6.3438427  56.6050181  22.4108682   5.1109631  55.7371832
  16.1161754   6.9795252  45.9392457  15.2088815   6.7484506  46.1383606
  16.6132786   6.1832871  46.1266438  19.0229833  15.6892759  48.8589143
  18.3491531  15.9924456  49.4674101  19.4095655  16.4921840  48.5094600
  18.2388289   3.1857891  58.3486812  17.3210851   3.4072838  58.1908500
  18.6548433   3.2604201  57.4898520  19.0223337   4.5849306  53.4789492
  19.7695156   5.0970703  53.1696614  19.2914927   4.2633359  54.3393886
  17.2949987   7.0807847  50.4616447  16.3861206   6.7966880  50.5588916
  17.3245071   7.5006926  49.6019754  22.5269255  10.6914437  54.2307614
  22.0731582   9.8505346  54.2872805  21.8963221  11.3275835  54.5682394
  21.4702174   1.6206423  55.4608282  20.7324931   1.1083809  55.7918524
  21.7228948   1.1806804  54.6491559  20.9702194  12.5290933  55.1657432
  21.2625168  13.0895990  54.4469798  21.4800814  12.8219494  55.9210592
  15.8434881   4.6936468  56.5626242  15.8983491   3.7410304  56.4868719
  15.0326083   4.8495907  57.0467540  16.9926075   8.6216591  47.8004525
  16.5545505   7.9052450  47.3410163  17.7336516   8.8492705  47.2389617
  15.9335819  13.3071284  56.2550886  15.8911998  13.5332131  55.3259418
  16.8498518  13.0734659  56.4036687  19.3801453   3.7755352  63.1531515
  19.7350841   4.0026825  64.0125981  20.0273584   4.1073729  62.5308770
  25.1099190   6.8973788  53.8580844  24.9717088   7.0875384  52.9302033
  24.7535409   7.6593171  54.3148895  25.1368569   8.9650315  58.8692115
  25.5705076   8.8725604  59.7175169  25.8500150   8.9407815  58.2312131
  14.0501620  10.1834313  56.0512848  14.8442218   9.6884633  55.8495423
  13.3393312   9.6552176  55.6880554  18.8696464  12.5652409  60.4025216
  18.9233487  13.1343345  61.1702932  18.0011246  12.7354294  60.0379253
  25.9984119   9.0074015  61.4025001  26.1920009   9.9119826  61.6484276
  25.8984737   8.5481434  62.2363586  21.0599228   9.1580758  66.9765881
  20.9084734   8.9291310  66.0595965  21.0503907  10.1151360  66.9897226
  17.8284564   6.7312671  61.9612148  18.7576624   6.8823830  61.7881115
  17.4075594   6.8196692  61.1060794  16.6272896  10.7563335  59.7310685
  16.4883982  10.3882120  60.6036624  15.8387492  11.2710975  59.5594643
  17.2221048  15.8572432  51.0736222  17.3972803  15.3860475  51.8881845
  16.5353836  16.4838198  51.3017483  18.1778111  10.1344938  57.1199523
  17.8427944  10.0945708  58.0157173  17.6782057   9.4689654  56.6469933
  21.1137303   7.4800972  47.3936583  20.4966473   6.7547800  47.2969636
  20.6453791   8.2410333  47.0503657  14.7804656   5.2532527  62.1335784
  15.4904274   4.6125720  62.0922402  14.7373964   5.5045422  63.0561965
  22.7691434  12.1899881  65.0542363  22.7103980  11.5059101  64.3872946
  23.1710953  12.9318871  64.6022989  11.7882133  19.0061795  57.8476082
  12.0278731  19.6380319  58.5255101  10.9451330  18.6549835  58.1341441
  22.7708842  10.1539465  63.2856343  21.8835620   9.8165386  63.4082742
  23.3407393   9.4222496  63.5225108  16.3009995  14.8140917  60.2517586
  16.2280166  15.6195888  60.7636891  15.8587388  15.0132883  59.4265608
  16.0899775  14.0512687  53.7620408  15.3067296  14.5934367  53.8558632
  16.7892520  14.5686667  54.1614649  27.2526182   5.5647682  58.0472905
  27.2416058   6.4472397  57.6766838  26.3843561   5.2119233  57.8527442
  18.7608678  14.7127751  62.4075745  19.4736651  15.3475216  62.3351646
  18.2698707  14.8091617  61.5915747  20.4826205   8.6179004  53.9793036
  19.5482484   8.7380466  53.8097741  20.6602874   7.7151470  53.7153046
  23.8698757   4.4596323  54.5143071  24.3359209   5.2924315  54.4403373
  24.3206257   3.9941305  55.2188329  13.8120592  12.4622194  63.2281316
  14.5130051  13.0958677  63.3810710  13.3415707  12.8036926  62.4676955
  21.9374988  10.8040144  51.5129223  22.2134832  10.6896739  52.4223097
  21.0679487  10.4057629  51.4741396  21.6121878   5.0166802  61.0533866
  20.9593328   5.2642709  60.3986319  21.9902258   4.2030940  60.7196343
  18.5729052  15.0526495  55.1562036  18.7551446  14.2348151  55.6189789
  19.3962038  15.2694187  54.7186926  18.9071217  13.9794680  52.4177085
  19.4358984  13.4687135  51.8047247  19.1699437  13.6637210  53.2822618
   9.4088310  11.9958549  60.1612418   9.9941747  11.2502237  60.2940322
   9.2113148  12.3062506  61.0449082  12.2626965  15.0309797  55.1774861
  11.5937341  15.5155925  54.6938901  12.1239835  15.2779017  56.0918239
  16.4032234  17.0653540  61.7757519  16.9550542  17.2285162  62.5406604
  16.7438427  17.6557978  61.1037544  21.2543108  11.8914798  67.6306173
  21.7983012  12.5044756  67.1361128  20.6729953  12.4494376  68.1473186
  19.5400621  15.0135516  58.7621201  19.4151761  14.2125256  58.2532147
  20.1979712  15.5081709  58.2735171  21.6035530  12.8144536  60.3900751
  20.6565865  12.6949887  60.3179078  21.9518303  11.9267034  60.4727013
  18.6081963  12.6097252  56.5905104  18.4606925  11.6813960  56.7712674
  19.4335456  12.6317343  56.1062179  22.2116085  13.4325811  57.6769976
  23.1362632  13.2268672  57.5394427  22.0431388  13.1842212  58.5859318
  22.0011401  13.9511478  53.0332068  22.1748278  13.3857901  52.2805920
  22.4940292  14.7512373  52.8511558  27.8550792   6.7147901  54.6522367
  28.2981938   5.9655227  54.2541491  26.9777302   6.7058038  54.2696099
  22.9886573  13.2678243  50.1328966  23.6837478  13.8884936  50.3516281
  23.3309723  12.4173594  50.4081344  24.8877996  10.7177948  51.6616297
  25.4129321  11.0565221  50.9365617  24.8000349   9.7824964  51.4779431
  16.5498045  14.6312022  63.7906173  16.8585172  14.3861169  64.6628873
  17.3473527  14.8358660  63.3025044  16.5718657  16.7849932  56.0211550
  16.1323648  16.2926310  56.7144407  17.3226774  16.2422899  55.7803625
   9.0510996  12.9761472  56.0236178   9.8769016  12.6765244  55.6434822
   8.7005048  12.2069095  56.4725967  14.0192529  12.3287941  58.0933852
  13.3972539  11.6658646  57.7936079  14.6897396  12.3549073  57.4107499
   7.2519601  10.8947799  56.9825112   6.4151510  10.4669973  56.8009113
   7.2243247  11.0880242  57.9195903  24.5771903  11.3510852  66.9667495
  23.7867446  11.3334991  66.4271994  24.3405257  11.8899146  67.7216531
  24.6969778   8.2003318  64.2800223  24.7467783   8.0353326  65.2215746
  24.5883701   7.3330577  63.8898104  13.5806036  10.8791864  51.5692312
  13.7294157  11.5627328  50.9158985  14.3872480  10.8596954  52.0841768
  26.1987974  10.6200260  64.5242245  25.9072783  10.9830240  65.3605706
  25.5860106   9.9067268  64.3455577  27.3983657   8.1853140  57.0444815
  28.2330548   8.6242944  57.2082375  27.5342786   7.7091793  56.2253061
  24.4475163   5.7432875  62.9922303  24.9229284   5.9360521  62.1841154
  23.5240728   5.7992060  62.7465686  11.3358669   6.9057042  52.5753381
  11.0904711   6.0019372  52.7733591  11.5054584   6.9074192  51.6332859
  17.0801442  13.3739994  49.0404060  16.5075409  13.9930182  48.5874531
  17.6534235  13.9239356  49.5743982  23.1476832   2.6198635  61.2250608
  24.0994255   2.7196732  61.2462832  22.9780282   1.8276903  61.7348693
  21.1691211  -0.2945782  61.4110009  20.5741143  -0.0140769  60.7156498
  20.8840908   0.1948119  62.1826750  20.2998702  13.6577145  50.1712642
  21.2329375  13.5922706  50.3745517  20.2121914  14.4933411  49.7127175
  22.9286718  12.9743015  47.1316589  22.8500350  12.6402879  48.0252347
  23.7496385  13.4664783  47.1308062  25.6264909   5.8404754  60.3392908
  25.5941230   4.9020755  60.5252592  26.2365533   5.9188791  59.6058733
  17.4648240   4.7100807  46.3820112  18.4107345   4.5807015  46.4508530
  17.0862485   3.9715469  46.8589540  25.7759398   2.6315798  60.3851191
  25.2598447   1.8474254  60.1981120  26.6599346   2.3034514  60.5497711
  31.4441459   6.9020761  59.4798945  32.1744848   6.6406049  60.0406648
  30.8348405   6.1649483  59.5201013  29.5256756   5.0428624  60.0773396
  28.7989920   4.9084589  59.4689888  29.1104043   5.3505452  60.8830114
  10.3449005   6.6719588  60.4843550  10.5635015   7.6036696  60.5031584
  10.7574779   6.3127562  61.2698354  11.0081478   9.5654467  60.7279795
  11.9624732   9.5338410  60.6609726  10.8094002   9.1045091  61.5430020
  11.5980860   8.1355583  63.2950592  12.4173749   8.6299662  63.3185430
  11.8717668   7.2187552  63.2668160  21.3547457   0.5266336  52.6578548
  20.4673312   0.8115986  52.4398743  21.7701446   0.3660099  51.8105825
  24.7061993   0.5512857  56.3732887  25.4822383   1.0409309  56.6457504
  23.9810127   0.9770911  56.8304757  27.1434551   1.2640476  57.4306828
  27.7379042   1.0236212  56.7200136  27.2161135   0.5447606  58.0580364
   9.3631707  15.1074087  57.7449992   9.2286175  14.3474488  57.1787991
   8.9463769  15.8314987  57.2778781  20.4990670  10.2911010  46.7526568
  21.2026520  10.4961013  47.3684223  19.7753319  10.8587772  47.0175651
  21.3288480   6.0420872  52.8728838  21.2723682   6.4989423  52.0336470
  21.8816823   5.2811556  52.6951681  25.1393286   1.8310604  53.6978957
  24.8830220   1.4307239  54.5287165  24.5146154   2.5454397  53.5729097
  29.4505624   4.5706677  56.2050249  28.8905182   4.6399866  56.9781811
  28.8449127   4.3947661  55.4849745  12.5200833  16.0043404  57.9568435
  12.4033217  16.9488836  57.8547125  11.6993279  15.7016965  58.3454234
  22.4077367  10.7293540  48.8025028  23.2422971  10.2974738  48.6202503
  22.2461710  10.5575553  49.7301922  22.0623260   7.2325653  50.1681367
  22.0072063   7.0669924  49.2269811  21.4369315   7.9401686  50.3243557
  13.5455347  16.6571666  61.1724364  14.4482594  16.6895276  61.4890858
  13.3192717  15.7272117  61.1870699  15.3008949  15.4102652  57.8334442
  14.3504580  15.4104514  57.7198814  15.6041435  14.6635387  57.3170477
  27.8451349  21.1990619  58.8341729  27.5069860  21.0831683  57.9462264
  28.7141117  20.7981784  58.8142735  23.7038165  23.0526095  54.8238620
  23.1403030  22.9616032  54.0554908  23.5890560  22.2326000  55.3041113
  28.3271132  22.3525471  64.7927935  28.3159773  21.9578269  63.9208438
  28.4891771  21.6191543  65.3861706  25.0478393  25.1362582  63.7407119
  24.7568259  26.0408213  63.6253785  25.6835377  25.1779110  64.4551188
  30.5902911  18.9714645  55.9733413  31.3766000  18.5534068  55.6223830
  30.8541615  19.8760737  56.1415061  35.9911338  18.9089878  56.8766391
  36.7236510  18.3389095  57.1104221  35.2350694  18.5211478  57.3172897
  27.6087458  21.3317119  54.0729734  27.2445665  20.8047740  54.7842655
  28.4654574  20.9415588  53.8996219  33.5136758  12.6211452  61.3361000
  33.1820083  13.4906863  61.1122215  32.9182372  12.3047736  62.0155030
  23.4580760  21.2737795  56.7693617  22.5331256  21.1414009  56.9771309
  23.7065173  22.0532014  57.2663559  33.4065422  17.3406538  58.4154350
  32.4982299  17.2721946  58.1213111  33.3553018  17.8178483  59.2436175
  20.8189571  20.9171068  57.6037406  20.9481952  21.1705547  58.5176818
  20.1387022  21.5098776  57.2842061  27.4806288  18.7596184  66.3589247
  26.7039622  19.3190104  66.3492112  28.1196851  19.2452967  66.8804117
  35.2727068  15.5422976  60.1932224  34.6301448  15.8355510  59.5472018
  34.7681997  15.4275897  60.9985420  32.9267232  19.2886150  50.8818083
  33.8385088  19.5213536  50.7065780  32.4176879  19.8723194  50.3193162
  25.7352660  21.5681637  65.9207214  26.4767344  22.1066681  65.6442038
  25.0289645  22.1947926  66.0778766  31.2108000  23.7110777  64.5179376
  31.6191356  23.2693188  63.7734008  30.4885261  23.1363405  64.7713568
  27.5639070  18.6483384  61.8912932  28.4100265  19.0722798  62.0347581
  27.5037707  17.9917009  62.5851496  30.7138515  16.3087753  63.5494106
  30.4699447  17.0629813  63.0128382  30.9898445  16.6873100  64.3841353
  32.6676978  22.8526365  62.2271372  32.8793873  23.4958125  61.5505753
  32.6206726  22.0188682  61.7593302  30.2703207  15.4644186  59.1307944
  29.4087686  15.7625439  59.4224681  30.2965641  15.6814584  58.1988976
  26.0233662  20.1309529  52.3471315  26.7257705  20.5830572  52.8145241
  25.6914291  19.4893347  52.9751208  24.4714024  18.7221285  66.7222524
  23.8412684  19.4037566  66.9557921  24.3650112  18.6104367  65.7775662
  19.7658996  18.3893081  57.6488448  18.9758050  18.6450610  57.1728559
  20.2570243  19.2041419  57.7540489  33.7822806  25.7298320  60.3993729
  34.6040249  25.3278508  60.1176411  33.7785209  25.6266555  61.3509845
  21.7173741  18.7537660  54.6071925  20.9204905  18.8656355  55.1255421
  21.4899334  19.0924313  53.7412815  27.5479409  25.2782364  62.5554440
  27.6123842  25.7402771  63.3912611  26.8390333  24.6479729  62.6836749
  18.0496699  18.6423572  60.0803439  18.3004737  19.5270582  60.3461015
  18.5856247  18.4628173  59.3078531  41.8728799  22.0737069  56.7478701
  41.1192507  21.5044467  56.5922705  42.0076340  22.0399733  57.6949335
  23.7494766  13.0242051  69.0847775  23.3561712  12.4708250  69.7595419
  24.5660907  13.3352629  69.4754293  26.6662727  14.4399930  66.6768032
  27.4072441  15.0407083  66.5972494  26.8980650  13.6977568  66.1186074
  21.8104065  19.6256297  64.9546261  21.6957581  18.7241555  65.2553360
  20.9548583  19.8719994  64.6031078  28.8895903  27.5674038  66.5533762
  28.4459757  26.7810416  66.2354666  29.5513117  27.7553188  65.8877653
  30.9877141  27.8476838  64.5815163  30.9695617  28.6685719  64.0895432
  31.9097061  27.7230913  64.8065304  27.4450195  25.3620967  65.4238672
  27.9778532  24.6009255  65.1937980  26.9164276  25.0694619  66.1662826
  30.6119890  10.4681033  60.9532313  30.2684160  11.3582675  60.8771424
  30.9798853  10.2782691  60.0901898  18.6805741  22.7914563  53.7720915
  19.5180963  23.2011572  53.5554623  18.8584009  21.8514006  53.7421109
  28.1617284  15.3039345  54.5189987  27.3058880  14.9146195  54.3395626
  28.5744236  15.3831306  53.6589772  29.6916431  12.8385688  58.9181547
  29.1881226  12.8015823  58.1049352  29.9847038  13.7478431  58.9778203
  25.9359317  12.9224418  57.9247728  26.8012313  12.7267227  57.5653618
  26.0036825  12.6934770  58.8517085  30.3656476  18.3316736  51.2864530
  30.0606612  18.6462885  52.1374673  31.3186918  18.4098156  51.3291863
  23.5421636  15.1526626  55.2964095  24.1165388  14.9301807  54.5637288
  24.1292618  15.2215320  56.0492696  23.8691223  17.1831087  49.3159980
  23.0328535  17.5205773  49.6369255  23.7295992  17.0480067  48.3787117
  25.8444303  12.0267875  54.0239165  25.1908716  11.7116892  53.3995779
  25.8024778  11.4043615  54.7498987  29.0782044  18.5149808  58.3486812
  28.1604605  18.7364755  58.1908500  29.4942187  18.5896119  57.4898520
  29.8617091  19.9141224  53.4789492  30.6088910  20.4262621  53.1696614
  30.1308681  19.5925277  54.3393886  32.3095929  16.9498340  55.4608282
  31.5718685  16.4375726  55.7918524  32.5622702  16.5098722  54.6491559
  32.4107556   9.7274592  56.0550051  32.7166433   8.8671956  55.7675966
  33.1360161  10.3192212  55.8549045  18.7031912  20.1305279  54.4431649
  18.5056312  19.5374640  53.7182715  18.1478576  19.8257489  55.1607588
  26.6828636  20.0228385  56.5626242  26.7377245  19.0702222  56.4868719
  25.8719838  20.1787824  57.0467540  24.6220996  18.6405445  54.3216621
  23.8088861  18.9399616  54.7281813  25.1179990  18.2461134  55.0391103
  30.2195207  19.1047270  63.1531515  30.5744595  19.3318743  64.0125981
  30.8667339  19.4365646  62.5308770  24.1135070  16.2123801  59.9377856
  24.7534450  16.0712560  59.2400819  23.2812601  15.9258314  59.5616458
  21.1978138  19.6569313  52.1272601  20.2675726  19.5953768  52.3442563
  21.2935610  19.1345265  51.3309242  21.1163687  16.1824126  54.7150843
  21.3770504  17.0969459  54.6060003  21.9380859  15.7148568  54.8647456
  22.5888612  17.5961883  61.8849667  23.2611666  17.3879245  61.2362316
  21.7618399  17.3983969  61.4454900  36.8377873  24.3365933  61.4025001
  37.0313764  25.2411744  61.6484276  36.7378492  23.8773352  62.2363586
  28.4914184  14.2223824  63.9015328  27.8442099  14.9213773  63.8079805
  29.2615200  14.6559968  64.2691576  31.8992982  24.4872676  66.9765881
  31.7478489  24.2583227  66.0595965  31.8897662  25.4443277  66.9897226
  28.6678319  22.0604589  61.9612148  29.5970379  22.2115748  61.7881115
  28.2469349  22.1488609  61.1060794  22.9916109  20.8704486  62.6452104
  22.8535907  20.1384725  63.2463643  23.9021033  20.7813386  62.3636292
  25.6198410  20.5824445  62.1335784  26.3298029  19.9417637  62.0922402
  25.5767718  20.8337340  63.0561965  33.6085189  27.5191798  65.0542363
  33.5497735  26.8351018  64.3872946  34.0104707  28.2610788  64.6022989
  24.3327344  17.5689663  63.9531424  23.7964701  17.1180401  64.6053020
  23.7444053  17.7035572  63.2101888  22.6275888  34.3353712  57.8476082
  22.8672486  34.9672236  58.5255101  21.7845084  33.9841752  58.1341441
  33.6102596  25.4831382  63.2856343  32.7229375  25.1457304  63.4082742
  34.1801147  24.7514414  63.5225108  15.2631743  21.8155474  56.6099394
  15.9502783  21.5017204  56.0220410  15.1079872  22.7196839  56.3366646
  20.0666465  16.7045671  61.0384418  19.9824654  16.0971340  60.3034828
  19.2449172  17.1954689  61.0393914  30.2390179  15.1899234  56.4054613
  30.7358879  14.4369196  56.0855683  29.4677161  15.2263551  55.8397822
  38.0919937  20.8939600  58.0472905  38.0809813  21.7764315  57.6766838
  37.2237316  20.5411150  57.8527442  29.6002433  30.0419669  62.4075745
  30.3130405  30.6767133  62.3351646  29.1092462  30.1383535  61.5915747
  26.8225148  17.3316617  56.1326298  26.4522935  16.7787657  56.8207203
  27.3184240  16.7274751  55.5801298  34.7092511  19.7888241  54.5143071
  35.1752963  20.6216232  54.4403373  35.1600012  19.3233222  55.2188329
  32.4515632  20.3458720  61.0533866  31.7987083  20.5934627  60.3986319
  32.8296012  19.5322858  60.7196343  28.5003205  21.0878531  67.5399903
  27.8243842  20.9872660  68.2102278  29.3230839  20.9317744  68.0035900
  14.8399719  19.8956067  58.8816861  14.8783819  19.3619658  59.6753980
  14.3340012  19.3691273  58.2627839  27.2425988  32.3945458  61.7757519
  27.7944296  32.5577080  62.5406604  27.5832182  32.9849896  61.1037544
  22.2190482  14.7420608  62.3779404  22.2831808  15.6035439  61.9656801
  22.1557602  14.1294610  61.6451762  21.6942754  16.8143740  66.0252438
  22.3214793  16.4320818  66.6389962  20.8370673  16.5957942  66.3908130
  32.0936863  27.2206716  67.6306173  32.6376767  27.8336674  67.1361128
  31.5123708  27.7786294  68.1473186  18.4708297  18.6220170  51.9570793
  18.7661738  17.7130848  51.9037847  17.5696333  18.6007909  51.6351795
  22.0002544  16.6976166  57.9398341  21.2789130  17.3112134  57.8005815
  22.7895800  17.2333931  57.8614987  24.8028857  14.0330593  64.2138993
  25.3263259  14.2792889  64.9765302  24.5841191  14.8650627  63.7942131
  20.1996138  16.3034267  52.0810118  19.8708845  15.4231646  51.8985224
  20.5535509  16.2481936  52.9686507  23.3137962  16.5907237  52.4485596
  23.6534034  17.1193158  51.7264204  23.7610082  16.9287643  53.2244162
  26.0081402  14.9744288  61.8988664  25.6678223  14.1752101  62.3009344
  25.3020409  15.2745999  61.3265497  26.6597874  12.0593600  60.3515987
  27.4823944  11.5854078  60.2294877  26.9035938  12.8384084  60.8514673
  25.3006109  15.0881859  50.6478888  26.0214471  15.4663111  50.1442605
  24.6771413  15.8070735  50.7513866  29.4437232  15.7927008  51.5837221
  29.6600846  16.6751645  51.2826049  28.9631299  15.4013221  50.8542863
  24.1836453  18.7512721  58.1607965  24.0381034  19.0653024  59.0532247
  23.7061657  19.3697621  57.6078864  26.0432836  15.7415269  58.2088855
  26.0294405  14.8456362  57.8721153  26.7605264  15.7485933  58.8427141
  27.8958967  16.1752609  60.2541982  27.6376744  17.0969680  60.2526313
  27.3644007  15.7783044  60.9442446  18.6582115  21.2918065  61.0995627
  18.1135583  22.0677873  61.2315901  19.5361465  21.6388870  60.9414748
  25.4469732  14.6229649  53.4776425  25.5685643  13.6946295  53.6767313
  25.1571774  14.6368335  52.5654740  28.3160922  12.3084559  56.6143145
  28.3382619  12.3723893  55.6595124  28.7328981  11.4689068  56.8083651
  38.6944547  22.0439819  54.6522367  39.1375693  21.2947144  54.2541491
  37.8171057  22.0349955  54.2696099  19.4448137  20.4187961  63.9925783
  18.7029873  20.5670597  64.5790414  19.1240881  20.6796227  63.1292533
  27.3891800  29.9603940  63.7906173  27.6978926  29.7153086  64.6628873
  28.1867282  30.1650578  63.3025044  19.8904751  28.3053390  56.0236178
  20.7162771  28.0057162  55.6434822  19.5398803  27.5361013  56.4725967
  18.0913356  26.2239717  56.9825112  17.2545264  25.7961891  56.8009113
  18.0637001  26.4172160  57.9195903  24.9310811  16.1361646  67.6866358
  24.9798967  17.0123769  67.3044127  25.4733326  15.5939039  67.1138001
  35.4165657  26.6802770  66.9667495  34.6261201  26.6626909  66.4271994
  35.1799012  27.2191063  67.7216531  35.5363532  23.5295236  64.2800223
  35.5861537  23.3645243  65.2215746  35.4277455  22.6622495  63.8898104
  32.8267294  19.5126164  65.5959530  33.7277157  19.3732629  65.3043528
  32.9015269  19.6780619  66.5357707  27.1610100  16.8893019  64.4412716
  26.2913409  17.1826585  64.1695305  27.3969580  17.4733464  65.1619980
  37.0381729  25.9492178  64.5242245  36.7466537  26.3122158  65.3605706
  36.4253860  25.2359186  64.3455577  38.2377411  23.5145057  57.0444815
  39.0724303  23.9534861  57.2082375  38.3736540  23.0383711  56.2253061
  35.2868917  21.0724792  62.9922303  35.7623039  21.2652438  62.1841154
  34.3634483  21.1283978  62.7465686  22.1752424  22.2348959  52.5753381
  21.9298466  21.3311289  52.7733591  22.3448338  22.2366110  51.6332859
  29.8649134  13.1072636  61.9578137  30.3831077  13.8433663  61.6324625
  29.5104266  13.4136629  62.7924896  21.4448071  17.9677317  50.0739543
  20.7517316  18.0421672  49.4179579  21.1999823  17.2037661  50.5961059
  30.1161728   9.5272918  57.4779033  30.3963482   8.8596107  58.1039460
  30.9012335   9.7202014  56.9653697  33.9870586  17.9490552  61.2250608
  34.9388009  18.0488650  61.2462832  33.8174037  17.1568821  61.7348693
  32.0084966  15.0346135  61.4110009  31.4134898  15.3151148  60.7156498
  31.7234662  15.5240036  62.1826750  36.4658664  21.1696672  60.3392908
  36.4334984  20.2312673  60.5252592  37.0759288  21.2480709  59.6058733
  36.6153152  17.9607715  60.3851191  36.0992201  17.1766172  60.1981120
  37.4993101  17.6326432  60.5497711  34.2763879  11.7048731  56.3447004
  34.0788700  11.3963819  57.2290336  34.8863585  12.4310370  56.4744934
  42.2835214  22.2312679  59.4798945  43.0138602  21.9697967  60.0406648
  41.6742159  21.4941401  59.5201013  40.3650511  20.3720541  60.0773396
  39.6383674  20.2376506  59.4689888  39.9497798  20.6797370  60.8830114
  28.1880687  24.0910471  67.8420769  29.1083697  24.2689070  68.0360816
  28.1530270  23.1466516  67.6900468  17.4062852  19.2849065  56.7674044
  17.0865637  18.4314373  56.4748418  16.8596281  19.4997643  57.5232011
  21.1842760  22.0011506  60.4843550  21.4028770  22.9328614  60.5031584
  21.5968534  21.6419480  61.2698354  28.1046978  12.5079591  52.4719239
  27.2947706  12.1626676  52.8474485  28.7931395  12.1987135  53.0606850
  30.0337526  11.5857638  54.0943535  30.5868565  12.0053091  54.7533558
  30.2707612  10.6593386  54.1366491  26.0570625  17.5744711  69.8746299
  25.9567352  18.5239068  69.8058390  25.8392167  17.2462950  69.0022369
  17.2751112  22.9051976  58.7367165  16.5814584  22.4905929  58.2237120
  18.0224103  22.9472513  58.1400584  33.4116333  13.6958163  53.6022200
  32.8315002  14.3542967  53.2200252  33.1452266  12.8735508  53.1909617
  31.8619899  13.0963221  55.8043520  32.3619678  13.2079755  54.9957839
  32.5055507  12.7924274  56.4444328  25.9201895  21.0041850  68.6911361
  25.4368977  21.8042210  68.8975250  26.0062834  21.0149795  67.7378805
  19.1887855  22.8370230  56.6133180  19.1658543  22.9357917  55.6615063
  19.4988491  23.6835381  56.9350346  22.4374615  23.4647501  63.2950592
  23.2567504  23.9591580  63.3185430  22.7111423  22.5479469  63.2668160
  32.1941211  15.8558253  52.6578548  31.3067066  16.1407904  52.4398743
  32.6095200  15.6952017  51.8105825  35.5455747  15.8804774  56.3732887
  36.3216137  16.3701227  56.6457504  34.8203881  16.3062829  56.8304757
  37.9828306  16.5932394  57.4306828  38.5772797  16.3528130  56.7200136
  38.0554890  15.8739524  58.0580364  20.2025462  30.4366005  57.7449992
  20.0679929  29.6766405  57.1787991  19.7857524  31.1606904  57.2778781
  35.9787041  17.1602521  53.6978957  35.7223975  16.7599157  54.5287165
  35.3539909  17.8746315  53.5729097  40.2899379  19.8998594  56.2050249
  39.7298937  19.9691784  56.9781811  39.6842882  19.7239579  55.4849745
  17.6909529  17.7985635  63.9942789  18.3368393  17.2884589  64.4830014
  17.4826680  18.5354317  64.5686215  30.2162921  24.8666482  69.4934930
  31.0854081  25.0407135  69.1321565  29.7369673  25.6860899  69.3710659
  26.2113140  12.0625680  49.7466685  26.1991809  13.0067519  49.9034956
  27.1036561  11.8795825  49.4526147  24.3849102  31.9863583  61.1724364
  25.2876348  32.0187194  61.4890858  24.1586472  31.0564034  61.1870699
  30.0265259   8.6568456  54.0012622  29.2597655   8.1026943  54.1469305
  30.4375964   8.7290325  54.8626774  22.0307020  14.9453252  68.0917804
  22.8938482  14.5890057  68.3021128  21.4572431  14.6067147  68.7793208
  39.1664886  37.6817388  64.7927935  39.1553527  37.2870186  63.9208438
  39.3285526  36.9483461  65.3861706  36.8128354  37.8431349  60.3308478
  37.4091927  37.6187371  59.6165441  36.8703326  37.1016094  60.9333926
  44.3530513  27.9503370  61.3361000  44.0213838  28.8198780  61.1122215
  43.7576126  27.6339654  62.0155030  40.8462033  40.1515916  60.7356912
  40.5462756  41.0540954  60.6272720  40.5013092  39.8848099  61.5878065
  38.3200042  34.0888101  66.3589247  37.5433376  34.6482021  66.3492112
  38.9590605  34.5744884  66.8804117  46.1120823  30.8714894  60.1932224
  45.4695203  31.1647427  59.5472018  45.6075751  30.7567814  60.9985420
  36.5746414  36.8973555  65.9207214  37.3161099  37.4358599  65.6442038
  35.8683400  37.5239843  66.0778766  42.0501754  39.0402695  64.5179376
  42.4585110  38.5985106  63.7734008  41.3279016  38.4655323  64.7713568
  38.4032824  33.9775302  61.8912932  39.2494019  34.4014715  62.0347581
  38.3431462  33.3208926  62.5851496  42.3730569  39.6003886  58.2731664
  41.7439431  39.7649600  57.5707732  41.9856231  40.0145495  59.0442628
  41.5532269  31.6379670  63.5494106  41.3093201  32.3921731  63.0128382
  41.8292200  32.0165018  64.3841353  43.5070732  38.1818283  62.2271372
  43.7187627  38.8250043  61.5505753  43.4600480  37.3480599  61.7593302
  34.8182612  38.8849775  58.4761513  35.3883969  39.3137044  57.8378997
  35.4090723  38.6032360  59.1745698  35.3107778  34.0513203  66.7222524
  34.6806439  34.7329484  66.9557921  35.2043866  33.9396284  65.7775662
  44.6216560  41.0590238  60.3993729  45.4434004  40.6570425  60.1176411
  44.6178963  40.9558472  61.3509845  38.3873164  40.6074281  62.5554440
  38.4517596  41.0694689  63.3912611  37.6784087  39.9771646  62.6836749
  34.5888521  28.3533969  69.0847775  34.1955466  27.8000167  69.7595419
  35.4054661  28.6644547  69.4754293  37.5056482  29.7691848  66.6768032
  38.2466195  30.3699001  66.5972494  37.7374405  29.0269486  66.1186074
  32.6497820  34.9548215  64.9546261  32.5351335  34.0533472  65.2553360
  31.7942338  35.2011912  64.6031078  39.7289658  42.8965955  66.5533762
  39.2853512  42.1102334  66.2354666  40.3906871  43.0845106  65.8877653
  41.8270896  43.1768755  64.5815163  41.8089371  43.9977636  64.0895432
  42.7490816  43.0522830  64.8065304  38.2843950  40.6912885  65.4238672
  38.8172287  39.9301173  65.1937980  37.7558031  40.3986537  66.1662826
  41.4513645  25.7972951  60.9532313  41.1077914  26.6874592  60.8771424
  41.8192607  25.6074608  60.0901898  40.5310185  28.1677606  58.9181547
  40.0274981  28.1307741  58.1049352  40.8240792  29.0770349  58.9778203
  44.6289509  38.0147898  58.0524530  43.9713183  38.7047159  58.1404659
  45.4329908  38.4044330  58.3958516  43.2501310  25.0566510  56.0550051
  43.5560187  24.1963873  55.7675966  43.9753915  25.6484130  55.8549045
  41.0588962  34.4339187  63.1531515  41.4138350  34.6610660  64.0125981
  41.7061093  34.7657564  62.5308770  34.9528825  31.5415718  59.9377856
  35.5928204  31.4004477  59.2400819  34.1206355  31.2550232  59.5616458
  39.3307939  29.5515741  63.9015328  38.6835854  30.2505691  63.8079805
  40.1008954  29.9851885  64.2691576  42.7386737  39.8164593  66.9765881
  42.5872243  39.5875145  66.0595965  42.7291416  40.7735195  66.9897226
  39.5072073  37.3896506  61.9612148  40.4364133  37.5407666  61.7881115
  39.0863103  37.4780527  61.1060794  33.8309864  36.1996403  62.6452104
  33.6929662  35.4676642  63.2463643  34.7414787  36.1105303  62.3636292
  36.4592165  35.9116363  62.1335784  37.1691783  35.2709555  62.0922402
  36.4161473  36.1629258  63.0561965  44.4478943  42.8483716  65.0542363
  44.3891489  42.1642936  64.3872946  44.8498462  43.5902706  64.6022989
  35.1721099  32.8981581  63.9531424  34.6358456  32.4472319  64.6053020
  34.5837807  33.0327489  63.2101888  44.4496351  40.8123300  63.2856343
  43.5623129  40.4749222  63.4082742  45.0194902  40.0806331  63.5225108
  26.1025498  37.1447392  56.6099394  26.7896537  36.8309122  56.0220410
  25.9473626  38.0488756  56.3366646  43.5202928  27.4860745  58.5533972
  42.6066008  27.7164972  58.7216179  43.9496030  27.5699189  59.4048004
  39.3396960  36.4170448  67.5399903  38.6637597  36.3164578  68.2102278
  40.1624594  36.2609662  68.0035900  33.0584236  30.0712526  62.3779404
  33.1225563  30.9327356  61.9656801  32.9951356  29.4586527  61.6451762
  32.5336509  32.1435658  66.0252438  33.1608547  31.7612735  66.6389962
  31.6764427  31.9249860  66.3908130  42.9330617  42.5498633  67.6306173
  43.4770521  43.1628592  67.1361128  42.3517462  43.1078212  68.1473186
  35.6422612  29.3622510  64.2138993  36.1657014  29.6084807  64.9765302
  35.4234945  30.1942545  63.7942131  36.8475157  30.3036205  61.8988664
  36.5071977  29.5044018  62.3009344  36.1414163  30.6037916  61.3265497
  37.4991629  27.3885518  60.3515987  38.3217698  26.9145996  60.2294877
  37.7429692  28.1676002  60.8514673  36.8826590  31.0707186  58.2088855
  36.8688159  30.1748280  57.8721153  37.5999018  31.0777850  58.8427141
  38.7352721  31.5044527  60.2541982  38.4770499  32.4261597  60.2526313
  38.2037761  31.1074961  60.9442446  29.4975870  36.6209983  61.0995627
  28.9529338  37.3969791  61.2315901  30.3755220  36.9680787  60.9414748
  39.1554677  27.6376477  56.6143145  39.1776374  27.7015810  55.6595124
  39.5722736  26.7980986  56.8083651  30.2841892  35.7479879  63.9925783
  29.5423628  35.8962514  64.5790414  29.9634636  36.0088145  63.1292533
  35.7704566  31.4653564  67.6866358  35.8192721  32.3415687  67.3044127
  36.3127080  30.9230957  67.1138001  46.2559412  42.0094687  66.9667495
  45.4654955  41.9918826  66.4271994  46.0192766  42.5482981  67.7216531
  46.3757287  38.8587154  64.2800223  46.4255291  38.6937161  65.2215746
  46.2671210  37.9914413  63.8898104  43.6661049  34.8418082  65.5959530
  44.5670912  34.7024547  65.3043528  43.7409023  35.0072537  66.5357707
  38.0003854  32.2184937  64.4412716  37.1307164  32.5118503  64.1695305
  38.2363335  32.8025382  65.1619980  47.8775483  41.2784095  64.5242245
  47.5860292  41.6414076  65.3605706  47.2647615  40.5651104  64.3455577
  46.1262672  36.4016710  62.9922303  46.6016793  36.5944356  62.1841154
  45.2028237  36.4575896  62.7465686  40.7042888  28.4364553  61.9578137
  41.2224832  29.1725580  61.6324625  40.3498021  28.7428547  62.7924896
  40.9555482  24.8564836  57.4779033  41.2357236  24.1888025  58.1039460
  41.7406089  25.0493932  56.9653697  44.8264341  33.2782470  61.2250608
  45.7781764  33.3780568  61.2462832  44.6567791  32.4860739  61.7348693
  42.8478720  30.3638053  61.4110009  42.2528652  30.6443066  60.7156498
  42.5628417  30.8531954  62.1826750  45.1157634  27.0340649  56.3447004
  44.9182455  26.7255737  57.2290336  45.7257339  27.7602288  56.4744934
  39.0274442  39.4202389  67.8420769  39.9477451  39.5980988  68.0360816
  38.9924025  38.4758434  67.6900468  32.0236514  37.3303423  60.4843550
  32.2422524  38.2620531  60.5031584  32.4362288  36.9711398  61.2698354
  40.8731280  26.9149556  54.0943535  41.4262319  27.3345009  54.7533558
  41.1101367  25.9885304  54.1366491  36.8964380  32.9036629  69.8746299
  36.7961107  33.8530986  69.8058390  36.6785922  32.5754868  69.0022369
  42.7013654  28.4255138  55.8043520  43.2013432  28.5371673  54.9957839
  43.3449262  28.1216191  56.4444328  36.7595650  36.3333768  68.6911361
  36.2762731  37.1334128  68.8975250  36.8456589  36.3441713  67.7378805
  33.2768369  38.7939419  63.2950592  34.0961258  39.2883497  63.3185430
  33.5505177  37.8771387  63.2668160  28.5303284  33.1277553  63.9942789
  29.1762147  32.6176507  64.4830014  28.3220435  33.8646234  64.5686215
  41.0556676  40.1958400  69.4934930  41.9247835  40.3699052  69.1321565
  40.5763427  41.0152817  69.3710659  40.8659014  23.9860374  54.0012622
  40.0991409  23.4318861  54.1469305  41.2769718  24.0582243  54.8626774
  32.8700775  30.2745170  68.0917804  33.7332236  29.9181975  68.3021128
  32.2966185  29.9359065  68.7793208  50.0058641  53.0109306  64.7927935
  49.9947282  52.6162104  63.9208438  50.1679280  52.2775378  65.3861706
  55.1924267  43.2795287  61.3361000  54.8607592  44.1490698  61.1122215
  54.5969881  42.9631571  62.0155030  55.0852931  47.9990373  58.4154350
  54.1769808  47.9305782  58.1213111  55.0340527  48.4762318  59.2436175
  49.1593797  49.4180019  66.3589247  48.3827131  49.9773939  66.3492112
  49.7984360  49.9036802  66.8804117  56.9514577  46.2006812  60.1932224
  56.3088957  46.4939345  59.5472018  56.4469506  46.0859732  60.9985420
  47.4140169  52.2265472  65.9207214  48.1554853  52.7650516  65.6442038
  46.7077154  52.8531761  66.0778766  52.8895509  54.3694613  64.5179376
  53.2978865  53.9277023  63.7734008  52.1672770  53.7947240  64.7713568
  49.2426579  49.3067220  61.8912932  50.0887774  49.7306633  62.0347581
  49.1825216  48.6500844  62.5851496  52.3926024  46.9671588  63.5494106
  52.1486956  47.7213648  63.0128382  52.6685954  47.3456936  64.3841353
  54.3464487  53.5110200  62.2271372  54.5581382  54.1541960  61.5505753
  54.2994235  52.6772517  61.7593302  51.9490716  46.1228021  59.1307944
  51.0875195  46.4209275  59.4224681  51.9753150  46.3398420  58.1988976
  46.1501533  49.3805121  66.7222524  45.5200193  50.0621401  66.9557921
  46.0437621  49.2688202  65.7775662  45.4282275  43.6825886  69.0847775
  45.0349221  43.1292085  69.7595419  46.2448416  43.9936465  69.4754293
  48.3450236  45.0983765  66.6768032  49.0859950  45.6990919  66.5972494
  48.5768159  44.3561403  66.1186074  43.4891574  50.2840133  64.9546261
  43.3745090  49.3825390  65.2553360  42.6336092  50.5303829  64.6031078
  50.5683412  58.2257873  66.5533762  50.1247266  57.4394252  66.2354666
  51.2300626  58.4137024  65.8877653  52.6664650  58.5060673  64.5815163
  52.6483126  59.3269554  64.0895432  53.5884570  58.3814748  64.8065304
  49.1237704  56.0204802  65.4238672  49.6566041  55.2593091  65.1937980
  48.5951785  55.7278454  66.1662826  52.2907399  41.1264868  60.9532313
  51.9471669  42.0166510  60.8771424  52.6586362  40.9366526  60.0901898
  51.8982716  49.7631105  63.1531515  52.2532104  49.9902578  64.0125981
  52.5454848  50.0949482  62.5308770  50.1701693  44.8807659  63.9015328
  49.5229608  45.5797609  63.8079805  50.9402709  45.3143803  64.2691576
  53.5780491  55.1456511  66.9765881  53.4265997  54.9167063  66.0595965
  53.5685171  56.1027113  66.9897226  50.3465827  52.7188424  61.9612148
  51.2757887  52.8699584  61.7881115  49.9256858  52.8072445  61.1060794
  47.2985919  51.2408280  62.1335784  48.0085538  50.6001473  62.0922402
  47.2555227  51.4921175  63.0561965  55.2872698  58.1775634  65.0542363
  55.2285244  57.4934854  64.3872946  55.6892216  58.9194624  64.6022989
  46.0114853  48.2273498  63.9531424  45.4752210  47.7764237  64.6053020
  45.4231561  48.3619407  63.2101888  54.3596683  42.8152663  58.5533972
  53.4459763  43.0456890  58.7216179  54.7889784  42.8991107  59.4048004
  54.1303141  51.0042555  61.0533866  53.4774592  51.2518462  60.3986319
  54.5083521  50.1906693  60.7196343  50.1790714  51.7462366  67.5399903
  49.5031351  51.6456495  68.2102278  51.0018348  51.5901580  68.0035900
  43.8977991  45.4004443  62.3779404  43.9619317  46.2619274  61.9656801
  43.8345111  44.7878445  61.6451762  43.3730263  47.4727576  66.0252438
  44.0002302  47.0904653  66.6389962  42.5158182  47.2541778  66.3908130
  53.7724372  57.8790551  67.6306173  54.3164276  58.4920509  67.1361128
  53.1911216  58.4370129  68.1473186  46.4816366  44.6914428  64.2138993
  47.0050768  44.9376725  64.9765302  46.2628700  45.5234463  63.7942131
  46.6098320  46.7945482  67.6866358  46.6586476  47.6707605  67.3044127
  47.1520835  46.2522875  67.1138001  57.0953166  57.3386605  66.9667495
  56.3048710  57.3210744  66.4271994  56.8586521  57.8774899  67.7216531
  57.2151041  54.1879071  64.2800223  57.2649046  54.0229079  65.2215746
  57.1064964  53.3206330  63.8898104  54.5054803  50.1709999  65.5959530
  55.4064666  50.0316464  65.3043528  54.5802778  50.3364454  66.5357707
  48.8397609  47.5476854  64.4412716  47.9700918  47.8410420  64.1695305
  49.0757089  48.1317299  65.1619980  58.7169238  56.6076013  64.5242245
  58.4254046  56.9705993  65.3605706  58.1041369  55.8943021  64.3455577
  56.9656426  51.7308628  62.9922303  57.4410548  51.9236274  62.1841154
  56.0421992  51.7867813  62.7465686  51.5436643  43.7656471  61.9578137
  52.0618586  44.5017498  61.6324625  51.1891775  44.0720464  62.7924896
  55.6658095  48.6074388  61.2250608  56.6175518  48.7072485  61.2462832
  55.4961546  47.8152656  61.7348693  53.6872475  45.6929971  61.4110009
  53.0922407  45.9734984  60.7156498  53.4022171  46.1823872  62.1826750
  58.2940661  48.6191551  60.3851191  57.7779710  47.8350007  60.1981120
  59.1780610  48.2910267  60.5497711  55.9551388  42.3632566  56.3447004
  55.7576209  42.0547655  57.2290336  56.5651094  43.0894205  56.4744934
  49.8668196  54.7494306  67.8420769  50.7871206  54.9272905  68.0360816
  49.8317779  53.8050352  67.6900468  47.7358134  48.2328547  69.8746299
  47.6354861  49.1822904  69.8058390  47.5179676  47.9046786  69.0022369
  47.5989404  51.6625686  68.6911361  47.1156486  52.4626046  68.8975250
  47.6850343  51.6733631  67.7378805  39.3697038  48.4569470  63.9942789
  40.0155902  47.9468424  64.4830014  39.1614189  49.1938152  64.5686215
  51.8950430  55.5250318  69.4934930  52.7641590  55.6990970  69.1321565
  51.4157182  56.3444735  69.3710659  43.7094529  45.6037087  68.0917804
  44.5725991  45.2473892  68.3021128  43.1359940  45.2650982  68.7793208
  63.5542906  67.2338944  58.8980205  64.1921316  67.1145691  58.1943545
  63.4363749  68.1819788  58.9568157  60.8452395  68.3401224  64.7927935
  60.8341036  67.9454022  63.9208438  61.0073035  67.6067296  65.3861706
  61.8018987  72.7072816  50.1353085  61.1506966  73.2926896  49.7487099
  62.5963350  73.2379011  50.1948123  57.5659656  71.1238335  63.7407119
  57.2749522  72.0283966  63.6253785  58.2016641  71.1654863  64.4551188
  58.4915863  68.5015184  60.3308478  59.0879436  68.2771206  59.6165441
  58.5490835  67.7599929  60.9333926  63.2794252  70.3963248  50.6722069
  62.6440085  70.4697874  51.3842974  62.9491658  70.9856847  49.9941149
  68.5092602  64.8965631  56.8766391  69.2417774  64.3264848  57.1104221
  67.7531957  64.5087231  57.3172897  66.0318022  58.6087205  61.3361000
  65.7001347  59.4782616  61.1122215  65.4363635  58.2923489  62.0155030
  62.5249542  70.8099751  60.7356912  62.2250265  71.7124790  60.6272720
  62.1800601  70.5431934  61.5878065  65.9246685  63.3282291  58.4154350
  65.0163563  63.2597699  58.1213111  65.8734281  63.8054236  59.2436175
  57.5070321  77.5744071  53.7027880  57.4294351  78.5251896  53.7816361
  56.9031965  77.2289944  54.3602806  59.9987551  64.7471937  66.3589247
  59.2220885  65.3065857  66.3492112  60.6378114  65.2328720  66.8804117
  67.7908332  61.5298729  60.1932224  67.1482712  61.8231263  59.5472018
  67.2863260  61.4151650  60.9985420  58.2533923  67.5557390  65.9207214
  58.9948608  68.0942434  65.6442038  57.5470909  68.1823679  66.0778766
  63.7289263  69.6986530  64.5179376  64.1372619  69.2568941  63.7734008
  63.0066525  69.1239158  64.7713568  60.0820333  64.6359137  61.8912932
  60.9281528  65.0598551  62.0347581  60.0218971  63.9792762  62.5851496
  64.0518078  70.2587721  58.2731664  63.4226940  70.4233435  57.5707732
  63.6643740  70.6729331  59.0442628  67.9307310  71.1942159  55.6276028
  67.2458348  71.5741060  55.0773061  68.0151159  71.8037486  56.3607976
  63.2319778  62.2963506  63.5494106  62.9880710  63.0505566  63.0128382
  63.5079709  62.6748853  64.3841353  65.1858241  68.8402118  62.2271372
  65.3975136  69.4833878  61.5505753  65.1387989  68.0064435  61.7593302
  59.6046040  69.9962129  55.5381750  60.0684385  70.2749832  54.7486372
  59.3402838  69.0945574  55.3554840  66.3004069  71.7174073  60.3993729
  67.1221513  71.3154261  60.1176411  66.2966472  71.6142308  61.3509845
  60.0660673  71.2658117  62.5554440  60.1305105  71.7278524  63.3912611
  59.3571596  70.6355482  62.6836749  74.3910062  68.0612822  56.7478701
  73.6373771  67.4920220  56.5922705  74.5257603  68.0275486  57.6949335
  59.7808690  72.9326224  52.4233420  59.6454365  73.7777760  52.8518268
  60.3218503  73.1345502  51.6599354  56.2676030  59.0117804  69.0847775
  55.8742975  58.4584003  69.7595419  57.0842170  59.3228383  69.4754293
  55.0432972  73.5667419  55.0784098  55.2199601  74.4885383  54.8905082
  55.8389806  73.2525838  55.5078478  59.1843991  60.4275683  66.6768032
  59.9253704  61.0282836  66.5972494  59.4161914  59.6853321  66.1186074
  61.4077167  73.5549791  66.5533762  60.9641021  72.7686169  66.2354666
  62.0694380  73.7428941  65.8877653  56.1664288  75.0845592  61.0794440
  56.7171713  74.9562656  60.3071434  55.3275764  75.3840481  60.7289333
  63.5058405  73.8352591  64.5815163  63.4876880  74.6561472  64.0895432
  64.4278325  73.7106666  64.8065304  59.9631459  71.3496720  65.4238672
  60.4959796  70.5885008  65.1937980  59.4345540  71.0570372  66.1662826
  63.1301154  56.4556786  60.9532313  62.7865423  57.3458428  60.8771424
  63.4980116  56.2658444  60.0901898  68.0685711  69.1997752  51.3957922
  67.2915153  68.8608911  50.9513084  68.7477192  69.2050375  50.7212887
  61.3284172  70.4782713  52.9357484  60.8005533  69.7435472  52.6230721
  60.8271674  71.2557389  52.6897452  66.3077018  68.6731733  58.0524530
  65.6500692  69.3630994  58.1404659  67.1117417  69.0628165  58.3958516
  65.1182476  67.0276106  56.1028472  65.6314358  67.6606098  56.6050181
  65.7683700  66.4277301  55.7371832  62.3804851  77.0060430  48.8589143
  61.7066549  77.3092127  49.4674101  62.7670673  77.8089510  48.5094600
  65.8844273  72.0082107  54.2307614  65.4306600  71.1673017  54.2872805
  65.2538239  72.6443506  54.5682394  64.3277212  73.8458604  55.1657432
  64.6200186  74.4063661  54.4469798  64.8375832  74.1387165  55.9210592
  59.2910837  74.6238955  56.2550886  59.2487016  74.8499801  55.3259418
  60.2073536  74.3902330  56.4036687  62.7376471  65.0923023  63.1531515
  63.0925859  65.3194496  64.0125981  63.3848602  65.4241399  62.5308770
  68.4674208  68.2141458  53.8580844  68.3292106  68.4043054  52.9302033
  68.1110427  68.9760841  54.3148895  68.4943587  70.2817985  58.8692115
  68.9280094  70.1893275  59.7175169  69.2075168  70.2575486  58.2312131
  62.2271482  73.8820080  60.4025216  62.2808505  74.4511016  61.1702932
  61.3586264  74.0521965  60.0379253  69.3559137  70.3241686  61.4025001
  69.5495027  71.2287497  61.6484276  69.2559755  69.8649105  62.2363586
  61.0095448  60.2099577  63.9015328  60.3623363  60.9089526  63.8079805
  61.7796463  60.6435721  64.2691576  64.4174246  70.4748429  66.9765881
  64.2659752  70.2458981  66.0595965  64.4078925  71.4319030  66.9897226
  61.1859582  68.0480342  61.9612148  62.1151642  68.1991501  61.7881115
  60.7650612  68.1364362  61.1060794  59.9847914  72.0731006  59.7310685
  59.8458999  71.7049790  60.6036624  59.1962510  72.5878645  59.5594643
  60.5796066  77.1740102  51.0736222  60.7547821  76.7028146  51.8881845
  59.8928854  77.8005869  51.3017483  61.5353129  71.4512609  57.1199523
  61.2002962  71.4113379  58.0157173  61.0357075  70.7857325  56.6469933
  64.4712321  68.7968643  47.3936583  63.8541491  68.0715471  47.2969636
  64.0028809  69.5578003  47.0503657  58.1379674  66.5700198  62.1335784
  58.8479292  65.9293390  62.0922402  58.0948982  66.8213093  63.0561965
  66.1266452  73.5067551  65.0542363  66.0678998  72.8226772  64.3872946
  66.5285971  74.2486541  64.6022989  55.1457151  80.3229465  57.8476082
  55.3853749  80.9547989  58.5255101  54.3026348  79.9717505  58.1341441
  66.1283859  71.4707135  63.2856343  65.2410638  71.1333057  63.4082742
  66.6982411  70.7390167  63.5225108  59.6585013  76.1308588  60.2517586
  59.5855184  76.9363559  60.7636891  59.2162406  76.3300553  59.4265608
  59.4474793  75.3680358  53.7620408  58.6642314  75.9102038  53.8558632
  60.1467538  75.8854337  54.1614649  70.6101200  66.8815353  58.0472905
  70.5991076  67.7640068  57.6766838  69.7418579  66.5286904  57.8527442
  62.1183696  76.0295422  62.4075745  62.8311669  76.6642887  62.3351646
  61.6273725  76.1259288  61.5915747  63.8401223  69.9346674  53.9793036
  62.9057502  70.0548137  53.8097741  64.0177892  69.0319141  53.7153046
  67.2273775  65.7763994  54.5143071  67.6934227  66.6091985  54.4403373
  67.6781275  65.3108975  55.2188329  57.1695610  73.7789865  63.2281316
  57.8705069  74.4126348  63.3810710  56.6990725  74.1204597  62.4676955
  65.2950006  72.1207815  51.5129223  65.5709850  72.0064410  52.4223097
  64.4254505  71.7225300  51.4741396  65.1990437  58.1444581  58.5533972
  64.2853517  58.3748807  58.7216179  65.6283539  58.2283025  59.4048004
  64.9696896  66.3334473  61.0533866  64.3168346  66.5810380  60.3986319
  65.3477276  65.5198611  60.7196343  61.9304070  76.3694166  55.1562036
  62.1126464  75.5515822  55.6189789  62.7537056  76.5861858  54.7186926
  62.2646235  75.2962351  52.4177085  62.7934002  74.7854806  51.8047247
  62.5274455  74.9804881  53.2822618  61.0184469  67.0754284  67.5399903
  60.3425106  66.9748413  68.2102278  61.8412103  66.9193497  68.0035900
  52.7663328  73.3126220  60.1612418  53.3516765  72.5669908  60.2940322
  52.5688166  73.6230177  61.0449082  55.6201983  76.3477468  55.1774861
  54.9512358  76.8323595  54.6938901  55.4814853  76.5946688  56.0918239
  59.7607252  78.3821211  61.7757519  60.3125560  78.5452833  62.5406604
  60.1013445  78.9725649  61.1037544  64.6118126  73.2082469  67.6306173
  65.1558030  73.8212427  67.1361128  64.0304971  73.7662047  68.1473186
  62.8975639  76.3303187  58.7621201  62.7726779  75.5292926  58.2532147
  63.5554730  76.8249380  58.2735171  64.9610547  74.1312207  60.3900751
  64.0140883  74.0117558  60.3179078  65.3093321  73.2434705  60.4727013
  57.3210121  60.0206346  64.2138993  57.8444523  60.2668642  64.9765302
  57.1022454  60.8526380  63.7942131  61.9656981  73.9264923  56.5905104
  61.8181943  72.9981630  56.7712674  62.7910474  73.9485014  56.1062179
  65.5691103  74.7493482  57.6769976  66.4937650  74.5436343  57.5394427
  65.4006406  74.5009883  58.5859318  65.3586419  75.2679149  53.0332068
  65.5323296  74.7025572  52.2805920  65.8515310  76.0680044  52.8511558
  71.2125810  68.0315572  54.6522367  71.6556956  67.2822897  54.2541491
  70.3352320  68.0225708  54.2696099  66.3461591  74.5845914  50.1328966
  67.0412496  75.2052606  50.3516281  66.6884741  73.7341265  50.4081344
  68.2453014  72.0345619  51.6616297  68.7704339  72.3732892  50.9365617
  68.1575367  71.0992634  51.4779431  59.9073063  75.9479693  63.7906173
  60.2160190  75.7028839  64.6628873  60.7048545  76.1526331  63.3025044
  59.9293675  78.1017602  56.0211550  59.4898665  77.6093981  56.7144407
  60.6801792  77.5590570  55.7803625  52.4086014  74.2929143  56.0236178
  53.2344034  73.9932915  55.6434822  52.0580066  73.5236766  56.4725967
  57.3767547  73.6455611  58.0933852  56.7547557  72.9826316  57.7936079
  58.0472414  73.6716743  57.4107499  50.6094619  72.2115470  56.9825112
  49.7726528  71.7837644  56.8009113  50.5818265  72.4047913  57.9195903
  67.9346921  72.6678523  66.9667495  67.1442464  72.6502662  66.4271994
  67.6980275  73.2066816  67.7216531  68.0544796  69.5170989  64.2800223
  68.1042800  69.3520997  65.2215746  67.9458719  68.6498248  63.8898104
  65.3448558  65.5001917  65.5959530  66.2458421  65.3608382  65.3043528
  65.4196532  65.6656372  66.5357707  59.6791363  62.8768772  64.4412716
  58.8094673  63.1702338  64.1695305  59.9150844  63.4609217  65.1619980
  69.5562992  71.9367931  64.5242245  69.2647801  72.2997911  65.3605706
  68.9435124  71.2234939  64.3455577  70.7558675  69.5020810  57.0444815
  71.5905566  69.9410614  57.2082375  70.8917803  69.0259464  56.2253061
  67.8050181  67.0600545  62.9922303  68.2804302  67.2528192  62.1841154
  66.8815746  67.1159731  62.7465686  62.3830397  59.0948389  61.9578137
  62.9012341  59.8309416  61.6324625  62.0285530  59.4012382  62.7924896
  60.4376460  74.6907665  49.0404060  59.8650427  75.3097852  48.5874531
  61.0109253  75.2407027  49.5743982  66.5051850  63.9366305  61.2250608
  67.4569273  64.0364403  61.2462832  66.3355300  63.1444574  61.7348693
  64.5266229  61.0221889  61.4110009  63.9316161  61.3026901  60.7156498
  64.2415926  61.5115789  62.1826750  63.6573720  74.9744815  50.1712642
  64.5904393  74.9090377  50.3745517  63.5696932  75.8101082  49.7127175
  66.2861736  74.2910686  47.1316589  66.2075368  73.9570549  48.0252347
  67.1071403  74.7832454  47.1308062  68.9839927  67.1572425  60.3392908
  68.9516248  66.2188426  60.5252592  69.5940551  67.2356462  59.6058733
  69.1334416  63.9483468  60.3851191  68.6173465  63.1641925  60.1981120
  70.0174364  63.6202185  60.5497711  74.8016477  68.2188432  59.4798945
  75.5319866  67.9573720  60.0406648  74.1923423  67.4817154  59.5201013
  72.8831774  66.3596294  60.0773396  72.1564938  66.2252259  59.4689888
  72.4679061  66.6673123  60.8830114  60.7061951  70.0786224  67.8420769
  61.6264960  70.2564823  68.0360816  60.6711534  69.1342269  67.6900468
  58.5751889  63.5620465  69.8746299  58.4748616  64.5114821  69.8058390
  58.3573431  63.2338703  69.0022369  58.4383159  66.9917603  68.6911361
  57.9550240  67.7917963  68.8975250  58.5244098  67.0025548  67.7378805
  54.9555878  69.4523254  63.2950592  55.7748767  69.9467333  63.3185430
  55.2292686  68.5355222  63.2668160  68.0637011  61.8680527  56.3732887
  68.8397401  62.3576980  56.6457504  67.3385145  62.2938582  56.8304757
  70.5009569  62.5808147  57.4306828  71.0954060  62.3403883  56.7200136
  70.5736153  61.8615277  58.0580364  52.7206725  76.4241758  57.7449992
  52.5861193  75.6642158  57.1787991  52.3038787  77.1482657  57.2778781
  63.8565688  71.6078681  46.7526568  64.5601538  71.8128684  47.3684223
  63.1328337  72.1755443  47.0175651  68.4968304  63.1478274  53.6978957
  68.2405238  62.7474910  54.5287165  67.8721172  63.8622068  53.5729097
  72.8080642  65.8874347  56.2050249  72.2480200  65.9567537  56.9781811
  72.2024145  65.7115332  55.4849745  55.8775851  77.3211075  57.9568435
  55.7608235  78.2656507  57.8547125  55.0568297  77.0184636  58.3454234
  65.7652385  72.0461210  48.8025028  66.5997989  71.6142409  48.6202503
  65.6036728  71.8743224  49.7301922  65.4198278  68.5493324  50.1681367
  65.3647081  68.3837595  49.2269811  64.7944333  69.2569357  50.3243557
  62.7344185  70.8542235  69.4934930  63.6035344  71.0282888  69.1321565
  62.2550936  71.6736652  69.3710659  56.9030365  77.9739336  61.1724364
  57.8057612  78.0062947  61.4890858  56.6767735  77.0439787  61.1870699
  58.6583967  76.7270323  57.8334442  57.7079598  76.7272185  57.7198814
  58.9616453  75.9803058  57.3170477  54.5488284  60.9329005  68.0917804
  55.4119745  60.5765810  68.3021128  53.9753694  60.5942900  68.7793208
  74.3936660  82.5630861  58.8980205  75.0315070  82.4437609  58.1943545
  74.2757503  83.5111705  58.9568157  71.2026367  82.5158290  58.8341729
  70.8644878  82.3999354  57.9462264  72.0716135  82.1149455  58.8142735
  67.0613182  84.3693766  54.8238620  66.4978048  84.2783703  54.0554908
  66.9465578  83.5493670  55.3041113  64.6077614  85.8644958  57.6622841
  65.3998906  85.5235782  57.2469140  64.8474265  85.9739933  58.5824994
  66.5668368  85.1253871  50.5340219  67.3399244  84.5782858  50.3953095
  66.9193767  85.9898120  50.7454681  69.3309618  83.8307102  60.3308478
  69.9273190  83.6063124  59.6165441  69.3884589  83.0891847  60.9333926
  68.9034646  81.2846537  48.1658669  69.1560167  80.7628058  47.4042132
  67.9659205  81.1212682  48.2685353  73.9477929  80.2882315  55.9733413
  74.7341018  79.8701738  55.6223830  74.2116633  81.1928407  56.1415061
  79.3486356  80.2257548  56.8766391  80.0811528  79.6556765  57.1104221
  78.5925712  79.8379149  57.3172897  68.6230935  83.1874643  50.3683044
  68.5067193  82.5119546  51.0364129  68.7333195  82.7007017  49.5515197
  70.9662476  82.6484790  54.0729734  70.6020683  82.1215411  54.7842655
  71.8229592  82.2583259  53.8996219  76.8711776  73.9379123  61.3361000
  76.5395101  74.8074534  61.1122215  76.2757390  73.6215407  62.0155030
  70.6067963  77.6774690  49.0691082  70.7742365  78.5454926  49.4361553
  70.4165132  77.8401971  48.1452371  66.8155777  82.5905465  56.7693617
  65.8906274  82.4581680  56.9771309  67.0640191  83.3699685  57.2663559
  76.7640440  78.6574209  58.4154350  75.8557317  78.5889617  58.1213111
  76.7128036  79.1346154  59.2436175  70.5857184  80.1332347  50.0537749
  70.4656809  80.5789398  50.8923229  69.8909772  80.4817665  49.4951287
  64.1764589  82.2338739  57.6037406  64.3056970  82.4873218  58.5176818
  63.4962040  82.8266447  57.2842061  78.6302086  76.8590647  60.1932224
  77.9876466  77.1523180  59.5472018  78.1257015  76.7443567  60.9985420
  76.2842250  80.6053820  50.8818083  77.1960106  80.8381207  50.7065780
  75.7751897  81.1890865  50.3193162  70.9214088  79.9651055  61.8912932
  71.7675283  80.3890468  62.0347581  70.8612725  79.3084679  62.5851496
  74.0713533  77.6255423  63.5494106  73.8274465  78.3797484  63.0128382
  74.3473463  78.0040771  64.3841353  73.6278225  76.7811856  59.1307944
  72.7662704  77.0793110  59.4224681  73.6540659  76.9982255  58.1988976
  70.4439794  85.3254047  55.5381750  70.9078140  85.6041750  54.7486372
  70.1796592  84.4237491  55.3554840  67.3363875  84.8725528  58.4761513
  67.9065232  85.3012797  57.8378997  67.9271987  84.5908113  59.1745698
  69.3808680  81.4477199  52.3471315  70.0832723  81.8998243  52.8145241
  69.0489309  80.8061018  52.9751208  67.8289042  80.0388956  66.7222524
  67.1987702  80.7205237  66.9557921  67.7225130  79.9272037  65.7775662
  63.1234014  79.7060752  57.6488448  62.3333068  79.9618280  57.1728559
  63.6145261  80.5209090  57.7540489  65.0748759  80.0705331  54.6071925
  64.2779923  80.1824025  55.1255421  64.8474352  80.4091983  53.7412815
  61.4071717  79.9591242  60.0803439  61.6579755  80.8438252  60.3461015
  61.9431265  79.7795844  59.3078531  67.1069784  74.3409722  69.0847775
  66.7136730  73.7875920  69.7595419  67.9235925  74.6520300  69.4754293
  64.0731842  85.7793580  52.9961345  64.5856363  86.5736830  53.1466910
  64.7254555  85.0819870  52.9294946  65.8826727  88.8959336  55.0784098
  66.0593355  89.8177301  54.8905082  66.6783560  88.5817755  55.5078478
  70.0237745  75.7567601  66.6768032  70.7647459  76.3574754  66.5972494
  70.2555668  75.0145239  66.1186074  65.1679083  80.9423968  64.9546261
  65.0532598  80.0409225  65.2553360  64.3123601  81.1887665  64.6031078
  73.9694908  71.7848704  60.9532313  73.6259178  72.6750345  60.8771424
  74.3373871  71.5950361  60.0901898  62.0380759  84.1082234  53.7720915
  62.8755981  84.5179243  53.5554623  62.2159027  83.1681676  53.7421109
  73.9345191  81.7757315  49.4604748  73.4191814  82.5461919  49.6993136
  73.6622499  81.1022451  50.0837810  71.5192302  76.6207016  54.5189987
  70.6633898  76.2313866  54.3395626  71.9319254  76.6998976  53.6589772
  73.0491449  74.1553359  58.9181547  72.5456244  74.1183494  58.1049352
  73.3422056  75.0646102  58.9778203  69.2934335  74.2392089  57.9247728
  70.1587331  74.0434897  57.5653618  69.3611843  74.0102440  58.8517085
  73.7231494  79.6484407  51.2864530  73.4181630  79.9630556  52.1374673
  74.6761936  79.7265827  51.3291863  72.1677926  85.8074630  52.9357484
  71.6399288  85.0727390  52.6230721  71.6665429  86.5849307  52.6897452
  66.8996654  76.4694297  55.2964095  67.4740406  76.2469478  54.5637288
  67.4867636  76.5382991  56.0492696  75.9576231  82.3568023  56.1028472
  76.4708113  82.9898015  56.6050181  76.6077455  81.7569219  55.7371832
  67.2266241  78.4998758  49.3159980  66.3903553  78.8373444  49.6369255
  67.0871010  78.3647737  48.3787117  69.2019321  73.3435545  54.0239165
  68.5483734  73.0284563  53.3995779  69.1599795  72.7211286  54.7498987
  70.3130526  83.6254841  45.9392457  69.4057588  83.3944094  46.1383606
  70.8101558  82.8292460  46.1266438  72.4357062  79.8317479  58.3486812
  71.5179623  80.0532426  58.1908500  72.8517205  79.9063789  57.4898520
  73.2192109  81.2308895  53.4789492  73.9663928  81.7430292  53.1696614
  73.4883699  80.9092947  54.3393886  71.4918760  83.7267435  50.4616447
  70.5829979  83.4426468  50.5588916  71.5213843  84.1466514  49.6019754
  75.6670947  78.2666011  55.4608282  74.9293703  77.7543397  55.7918524
  75.9197720  77.8266393  54.6491559  75.7682574  71.0442263  56.0550051
  76.0741451  70.1839626  55.7675966  76.4935179  71.6359883  55.8549045
  62.0606930  81.4472950  54.4431649  61.8631330  80.8542310  53.7182715
  61.5053594  81.1425160  55.1607588  70.0403654  81.3396056  56.5626242
  70.0952263  80.3869892  56.4868719  69.2294856  81.4955495  57.0467540
  71.1894847  85.2676179  47.8004525  70.7514277  84.5512038  47.3410163
  71.9305288  85.4952294  47.2389617  67.9796014  79.9573116  54.3216621
  67.1663879  80.2567286  54.7281813  68.4755008  79.5628805  55.0391103
  73.5770225  80.4214940  63.1531515  73.9319613  80.6486413  64.0125981
  74.2242357  80.7533317  62.5308770  67.4710088  77.5291471  59.9377856
  68.1109468  77.3880230  59.2400819  66.6387619  77.2425985  59.5616458
  68.2470392  86.8293902  56.0512848  69.0410991  86.3344222  55.8495423
  67.5362085  86.3011765  55.6880554  64.5553156  80.9736983  52.1272601
  63.6250744  80.9121439  52.3442563  64.6510628  80.4512936  51.3309242
  64.4738705  77.4991796  54.7150843  64.7345522  78.4137129  54.6060003
  65.2955877  77.0316239  54.8647456  65.9463630  78.9129553  61.8849667
  66.6186684  78.7046916  61.2362316  65.1193417  78.7151639  61.4454900
  71.8489202  75.5391494  63.9015328  71.2017117  76.2381444  63.8079805
  72.6190218  75.9727638  64.2691576  72.0253336  83.3772259  61.9612148
  72.9545396  83.5283419  61.7881115  71.6044366  83.4656280  61.1060794
  70.8241668  87.4022924  59.7310685  70.6852754  87.0341708  60.6036624
  70.0356264  87.9170563  59.5594643  66.3491127  82.1872156  62.6452104
  66.2110925  81.4552395  63.2463643  67.2596051  82.0981056  62.3636292
  75.3106075  84.1260561  47.3936583  74.6935246  83.4007389  47.2969636
  74.8422564  84.8869921  47.0503657  68.9773428  81.8992116  62.1335784
  69.6873047  81.2585308  62.0922402  68.9342736  82.1505011  63.0561965
  67.6902362  78.8857334  63.9531424  67.1539719  78.4348072  64.6053020
  67.1019070  79.0203242  63.2101888  67.1004621  78.3445985  46.5157887
  66.2234087  78.2234786  46.1520134  67.5762374  77.5532063  46.2636776
  58.6206761  83.1323145  56.6099394  59.3077801  82.8184875  56.0220410
  58.4654890  84.0364509  56.3366646  63.4241483  78.0213341  61.0384418
  63.3399672  77.4139011  60.3034828  62.6024190  78.5122360  61.0393914
  73.5965197  76.5066905  56.4054613  74.0933897  75.7536867  56.0855683
  72.8252179  76.5431221  55.8397822  70.1800166  78.6484288  56.1326298
  69.8097953  78.0955328  56.8207203  70.6759258  78.0442421  55.5801298
  78.0667529  81.1055911  54.5143071  78.5327981  81.9383903  54.4403373
  78.5175030  80.6400893  55.2188329  76.0384192  73.4736498  58.5533972
  75.1247272  73.7040725  58.7216179  76.4677293  73.5574942  59.4048004
  75.8090650  81.6626390  61.0533866  75.1562101  81.9102298  60.3986319
  76.1871030  80.8490528  60.7196343  63.6057082  88.6418138  60.1612418
  64.1910519  87.8961826  60.2940322  63.4081921  88.9522095  61.0449082
  58.1974737  81.2123738  58.8816861  58.2358837  80.6787329  59.6753980
  57.6915030  80.6858944  58.2627839  65.5765500  76.0588279  62.3779404
  65.6406826  76.9203110  61.9656801  65.5132620  75.4462280  61.6451762
  65.0517772  78.1311411  66.0252438  65.6789811  77.7488488  66.6389962
  64.1945691  77.9125613  66.3908130  61.8283315  79.9387840  51.9570793
  62.1236756  79.0298519  51.9037847  60.9271351  79.9175580  51.6351795
  65.3577562  78.0143837  57.9398341  64.6364148  78.6279805  57.8005815
  66.1470818  78.5501602  57.8614987  68.1603875  75.3498263  64.2138993
  68.6838277  75.5960560  64.9765302  67.9416209  76.1818298  63.7942131
  63.5571156  77.6201938  52.0810118  63.2283863  76.7399317  51.8985224
  63.9110527  77.5649607  52.9686507  66.6712980  77.9074908  52.4485596
  67.0109052  78.4360829  51.7264204  67.1185100  78.2455314  53.2244162
  69.3656420  76.2911958  61.8988664  69.0253241  75.4919771  62.3009344
  68.6595427  76.5913669  61.3265497  70.0172892  73.3761271  60.3515987
  70.8398962  72.9021749  60.2294877  70.2610956  74.1551755  60.8514673
  68.6581127  76.4049529  50.6478888  69.3789489  76.7830782  50.1442605
  68.0346431  77.1238406  50.7513866  72.8012250  77.1094678  51.5837221
  73.0175864  77.9919316  51.2826049  72.3206317  76.7180892  50.8542863
  67.5411471  80.0680391  58.1607965  67.3956052  80.3820695  59.0532247
  67.0636675  80.6865292  57.6078864  69.4007854  77.0582939  58.2088855
  69.3869423  76.1624033  57.8721153  70.1180282  77.0653603  58.8427141
  71.2533985  77.4920280  60.2541982  70.9951762  78.4137350  60.2526313
  70.7219025  77.0950714  60.9442446  62.0157133  82.6085736  61.0995627
  61.4710601  83.3845544  61.2315901  62.8936483  82.9556540  60.9414748
  68.8044750  75.9397320  53.4776425  68.9260661  75.0113966  53.6767313
  68.5146792  75.9536006  52.5654740  71.6735940  73.6252230  56.6143145
  71.6957637  73.6891563  55.6595124  72.0903999  72.7856739  56.8083651
  62.8023155  81.7355632  63.9925783  62.0604891  81.8838268  64.5790414
  62.4815899  81.9963898  63.1292533  63.2479769  89.6221061  56.0236178
  64.0737789  89.3224833  55.6434822  62.8973821  88.8528683  56.4725967
  68.2161302  88.9747529  58.0933852  67.5941311  88.3118234  57.7936079
  68.8866169  89.0008661  57.4107499  61.4488374  87.5407387  56.9825112
  60.6120282  87.1129562  56.8009113  61.4212019  87.7339831  57.9195903
  68.2885829  77.4529317  67.6866358  68.3373985  78.3291440  67.3044127
  68.8308344  76.9106710  67.1138001  67.7774809  87.5251452  51.5692312
  67.9262929  88.2086917  50.9158985  68.5841252  87.5056543  52.0841768
  70.5185118  78.2060690  64.4412716  69.6488427  78.4994256  64.1695305
  70.7544598  78.7901135  65.1619980  65.5327442  83.5516630  52.5753381
  65.2873484  82.6478960  52.7733591  65.7023356  83.5533781  51.6332859
  73.2224152  74.4240306  61.9578137  73.7406095  75.1601333  61.6324625
  72.8679284  74.7304300  62.7924896  64.8023089  79.2844988  50.0739543
  64.1092334  79.3589343  49.4179579  64.5574841  78.5205331  50.5961059
  73.4736746  70.8440589  57.4779033  73.7538500  70.1763778  58.1039460
  74.2587353  71.0369685  56.9653697  77.3445604  79.2658223  61.2250608
  78.2963027  79.3656321  61.2462832  77.1749055  78.4736492  61.7348693
  75.3659984  76.3513806  61.4110009  74.7709916  76.6318819  60.7156498
  75.0809680  76.8407707  62.1826750  71.6617013  81.3560396  46.3820112
  72.6076117  81.2266604  46.4508530  71.2831258  80.6175058  46.8589540
  79.9728170  79.2775386  60.3851191  79.4567219  78.4933843  60.1981120
  80.8568119  78.9494103  60.5497711  77.6338897  73.0216402  56.3447004
  77.4363718  72.7131490  57.2290336  78.2438603  73.7478041  56.4744934
  69.8459930  79.2810372  46.3174997  68.9391385  78.9843485  46.3937711
  70.1235911  78.9840190  45.4509284  60.7637870  80.6016735  56.7674044
  60.4440655  79.7482044  56.4748418  60.2171298  80.8165314  57.5232011
  64.5417778  83.3179176  60.4843550  64.7603788  84.2496284  60.5031584
  64.9543552  82.9587151  61.2698354  71.4621996  73.8247262  52.4719239
  70.6522724  73.4794347  52.8474485  72.1506413  73.5154805  53.0606850
  73.3912544  72.9025309  54.0943535  73.9443583  73.3220762  54.7533558
  73.6282630  71.9761057  54.1366491  68.6158715  76.1397307  46.4586977
  69.4777879  76.4652206  46.7182794  68.8009059  75.3528803  45.9460042
  60.6326130  84.2219647  58.7367165  59.9389602  83.8073600  58.2237120
  61.3799121  84.2640183  58.1400584  76.7691351  75.0125834  53.6022200
  76.1890020  75.6710638  53.2200252  76.5027284  74.1903178  53.1909617
  75.2194917  74.4130891  55.8043520  75.7194696  74.5247426  54.9957839
  75.8630525  74.1091944  56.4444328  62.5462873  84.1537901  56.6133180
  62.5233561  84.2525588  55.6615063  62.8563509  85.0003052  56.9350346
  65.2050251  86.2114056  60.7279795  66.1593504  86.1797998  60.6609726
  65.0062774  85.7504679  61.5430020  65.7949633  84.7815172  63.2950592
  66.6142522  85.2759250  63.3185430  66.0686441  83.8647140  63.2668160
  75.5516229  77.1725924  52.6578548  74.6642084  77.4575575  52.4398743
  75.9670218  77.0119687  51.8105825  78.9030765  77.1972445  56.3732887
  79.6791155  77.6868898  56.6457504  78.1778899  77.6230499  56.8304757
  81.3403324  77.9100064  57.4306828  81.9347815  77.6695800  56.7200136
  81.4129907  77.1907195  58.0580364  63.5600479  91.7533675  57.7449992
  63.4254947  90.9934076  57.1787991  63.1432542  92.4774575  57.2778781
  75.5257253  82.6880460  52.8728838  75.4692454  83.1449011  52.0336470
  76.0785595  81.9271145  52.6951681  79.3362059  78.4770192  53.6978957
  79.0798993  78.0766828  54.5287165  78.7114927  79.1913986  53.5729097
  61.0484547  79.1153306  63.9942789  61.6943411  78.6052260  64.4830014
  60.8401698  79.8521987  64.5686215  69.5688158  73.3793350  49.7466685
  69.5566827  74.3235190  49.9034956  70.4611579  73.1963496  49.4526147
  73.3840277  69.9736127  54.0012622  72.6172673  69.4194614  54.1469305
  73.7950982  70.0457996  54.8626774  65.3882038  76.2620923  68.0917804
  66.2513500  75.9057728  68.3021128  64.8147449  75.9234818  68.7793208
  31.0361644  -1.7474687  45.6225511  31.6740054  -1.8667939  44.9188851
  30.9182487  -0.7993843  45.6813463  27.8451350  -1.7947259  45.5587036
  27.5069862  -1.9106194  44.6707571  28.7141118  -2.1956094  45.5388042
  23.7038166   0.0588218  41.5483927  23.1403031  -0.0321845  40.7800215
  23.5890561  -0.7611878  42.0286419  28.3271133  -0.6412407  51.5173241
  28.3159774  -1.0359609  50.6453745  28.4891773  -1.3746334  52.1107013
  21.2502598   1.5539409  44.3868147  22.0423890   1.2130234  43.9714447
  21.4899248   1.6634384  45.3070301  29.2837725   3.7259186  36.8598392
  28.6325704   4.3113266  36.4732406  30.0782087   4.2565380  36.9193429
  23.2093352   0.8148323  37.2585526  23.9824228   0.2677310  37.1198402
  23.5618751   1.6792572  37.4699987  25.0478394   2.1424705  50.4652425
  24.7568260   3.0470336  50.3499092  25.6835379   2.1841233  51.1796495
  25.9734601  -0.4798447  47.0553785  26.5698173  -0.7042424  46.3410748
  26.0309573  -1.2213701  47.6579233  25.5459629  -3.0259011  34.8903976
  25.7985150  -3.5477490  34.1287439  24.6084189  -3.1892866  34.9930660
  30.5902912  -4.0223233  42.6978719  31.3766002  -4.4403810  42.3469136
  30.8541617  -3.1177141  42.8660368  30.7612990   1.4149617  37.3967376
  30.1258823   1.4884244  38.1088281  30.4310396   2.0043216  36.7186455
  35.9911339  -4.0848000  43.6011698  36.7236511  -4.6548783  43.8349527
  35.2350695  -4.4726399  44.0418203  25.2655918  -1.1230905  37.0928351
  25.1492176  -1.7986002  37.7609435  25.3758178  -1.6098531  36.2760504
  27.6087459  -1.6620758  40.7975040  27.2445666  -2.1890137  41.5087962
  28.4654575  -2.0522289  40.6241526  30.0068279   1.8286120  47.4602219
  29.7069002   2.7311159  47.3518026  29.6619339   1.5618304  48.3123372
  23.4580761  -1.7200083  43.4938923  22.5331257  -1.8523869  43.7016615
  23.7065174  -0.9405863  43.9908866  33.4065423  -5.6531339  45.1399656
  32.4982300  -5.7215931  44.8458417  33.3553019  -5.1759394  45.9681482
  27.2282167  -4.1773201  36.7783056  27.1081792  -3.7316150  37.6168536
  26.5334755  -3.8287883  36.2196594  24.9889059   8.5930441  40.4273187
  24.9113089   9.5438266  40.5061667  24.3850703   8.2476313  41.0848113
  27.4806289  -4.2341694  53.0834554  26.7039623  -3.6747774  53.0737418
  28.1196852  -3.7484911  53.6049424  32.9267233  -3.7051728  37.6063390
  33.8385089  -3.4724341  37.4311087  32.4176880  -3.1214684  37.0438468
  25.7352661  -1.4256240  52.6452521  26.4767346  -0.8871196  52.3687344
  25.0289647  -0.7989952  52.8024072  31.2108001   0.7172900  51.2424682
  31.6191357   0.2755311  50.4979315  30.4885262   0.1425528  51.4958875
  27.5639071  -4.3454493  48.6158239  28.4100266  -3.9215080  48.7592888
  27.5037709  -5.0020869  49.3096802  31.5336815   1.2774091  44.9976971
  30.9045678   1.4419805  44.2953039  31.1462478   1.6915700  45.7687935
  35.4126047   2.2128529  42.3521335  34.7277086   2.5927430  41.8018368
  35.4969897   2.8223855  43.0853283  30.7138516  -6.6850125  50.2739413
  30.4699448  -5.9308064  49.7373688  30.9898447  -6.3064777  51.1086660
  32.6676979  -0.1411512  48.9516678  32.8793874   0.5020247  48.2751059
  32.6206727  -0.9749196  48.4838608  27.0864777   1.0148499  42.2627056
  27.5503123   1.2936202  41.4731679  26.8221575   0.1131943  42.0800147
  23.9788858   0.5619980  45.2006819  24.5490215   0.9907249  44.5624304
  24.5696970   0.2802565  45.8991005  26.0233663  -2.8628349  39.0716621
  26.7257707  -2.4107305  39.5390548  25.6914292  -3.5044530  39.6996514
  33.7822807   2.7360443  47.1239036  34.6040251   2.3340630  46.8421717
  33.7785210   2.6328677  48.0755151  27.5479410   2.2844486  49.2799746
  27.6123843   2.7464893  50.1157918  26.8390334   1.6541851  49.4082056
  41.8728800  -0.9200809  43.4724007  41.1192508  -1.4893410  43.3168012
  42.0076341  -0.9538144  44.4194642  27.2627428   3.9512594  39.1478726
  27.1273103   4.7964129  39.5763574  27.8037241   4.1531871  38.3844660
  20.7156825   1.4688032  39.7206652  21.2281346   2.2631282  39.8712216
  21.3679538   0.7714322  39.6540253  22.5251710   4.5853788  41.8029405
  22.7018338   5.5071753  41.6150389  23.3208544   4.2712207  42.2323785
  28.8895904   4.5736160  53.2779069  28.4459759   3.7872539  52.9599973
  29.5513118   4.7615311  52.6122959  23.6483026   6.1031962  47.8039747
  24.1990451   5.9749025  47.0316741  22.8094501   6.4026851  47.4534640
  30.9877142   4.8538960  51.3060470  30.9695618   5.6747841  50.8140739
  31.9097063   4.7293035  51.5310611  27.4450197   2.3683090  52.1483978
  27.9778533   1.6071378  51.9183286  26.9164278   2.0756741  52.8908133
  30.5770174  -2.5348233  36.1850055  30.0616798  -1.7643629  36.4238442
  30.3047483  -3.2083097  36.8083117  35.5504448   0.2184121  38.1203229
  34.7733891  -0.1204719  37.6758391  36.2295929   0.2236745  37.4458194
  30.3656477  -4.6621141  38.0109836  30.0606613  -4.3474992  38.8619979
  31.3186920  -4.5839721  38.0537169  28.8102909   1.4969082  39.6602790
  28.2824271   0.7621842  39.3476028  28.3090412   2.2743758  39.4142759
  33.7895755  -0.3081897  44.7769837  33.1319430   0.3817364  44.8649965
  34.5936155   0.0814535  45.1203823  32.6001214  -1.9537525  42.8273778
  33.1133096  -1.3207533  43.3295488  33.2502438  -2.5536329  42.4617138
  26.9555509  -0.6850708  32.6637763  26.0482571  -0.9161454  32.8628912
  27.4526541  -1.4813088  32.8511745  29.8623588   8.0246800  35.5834449
  29.1885287   8.3278496  36.1919407  30.2489410   8.8275880  35.2339906
  29.0782045  -4.4788069  45.0732119  28.1604606  -4.2573122  44.9153807
  29.4942189  -4.4041759  44.2143826  29.8617093  -3.0796653  40.2034799
  30.6088912  -2.5675256  39.8941921  30.1308682  -3.4012601  41.0639193
  28.1343743  -0.5838113  37.1861753  27.2254962  -0.8679080  37.2834223
  28.1638827  -0.1639034  36.3265060  33.3663010   3.0268477  40.9552921
  32.9125337   2.1859387  41.0118111  32.7356977   3.6629875  41.2927701
  31.8095950   4.8644973  41.8902739  32.1018924   5.4250031  41.1715105
  32.3194570   5.1573534  42.6455898  26.6828637  -2.9709492  43.2871549
  26.7377247  -3.9235656  43.2114025  25.8719839  -2.8150053  43.7712847
  27.8319831   0.9570631  34.5249832  27.3939261   0.2406490  34.0655469
  28.5730272   1.1846746  33.9634923  26.7729575   5.6425325  42.9796192
  26.7305754   5.8686171  42.0504724  27.6892274   5.4088699  43.1281993
  30.2195209  -3.8890608  49.8776821  30.5744596  -3.6619135  50.7371287
  30.8667340  -3.5572231  49.2554077  35.9492946  -0.7672172  40.5826150
  35.8110844  -0.5770576  39.6547340  35.5929164  -0.0052789  41.0394202
  35.9762325   1.3004355  45.5937422  36.4098832   1.2079644  46.4420476
  36.6893906   1.2761855  44.9557438  24.8895376   2.5188354  42.7758155
  25.6835974   2.0238674  42.5740730  24.1787068   1.9906217  42.4125861
  29.7090220   4.9006449  47.1270523  29.7627242   5.4697385  47.8948239
  28.8405001   5.0708334  46.7624560  36.8377875   1.3428056  48.1270307
  37.0313765   2.2473866  48.3729582  36.7378493   0.8835475  48.9608892
  31.8992983   1.4934798  53.7011188  31.7478490   1.2645350  52.7841272
  31.8897663   2.4505400  53.7142533  28.6678320  -0.9333289  48.6857454
  29.5970380  -0.7822129  48.5126422  28.2469350  -0.8449268  47.8306101
  27.4666652   3.0917376  46.4555992  27.3277737   2.7236160  47.3281930
  26.6781248   3.6065015  46.2839950  28.0614804   8.1926472  37.7981529
  28.2366559   7.7214515  38.6127151  27.3747592   8.8192238  38.0262789
  29.0171867   2.4698978  43.8444830  28.6821699   2.4299748  44.7402480
  28.5175812   1.8043694  43.3715240  31.9531058  -0.1844987  34.1181890
  31.3360229  -0.9098159  34.0214942  31.4847547   0.5764373  33.7748964
  25.6198411  -2.4113432  48.8581091  26.3298030  -3.0520240  48.8167709
  25.5767719  -2.1600538  49.7807271  33.6085190   4.5253921  51.7787670
  33.5497736   3.8413141  51.1118253  34.0104708   5.2672911  51.3268296
  22.6275889  11.3415835  44.5721389  22.8672487  11.9734359  45.2500407
  21.7845085  10.9903875  44.8586748  33.6102597   2.4893505  50.0101650
  32.7229376   2.1519427  50.1328048  34.1801148   1.7576536  50.2470415
  27.1403751   7.1494957  46.9762893  27.0673922   7.9549929  47.4882197
  26.6981144   7.3486923  46.1510914  26.9293530   6.3866727  40.4865714
  26.1461052   6.9288407  40.5803939  27.6286275   6.9040707  40.8859955
  38.0919938  -2.0998278  44.7718211  38.0809814  -1.2173562  44.4012144
  37.2237317  -2.4526727  44.5772748  29.6002434   7.0481791  49.1321051
  30.3130406   7.6829256  49.0596953  29.1092463   7.1445657  48.3161053
  31.3219961   0.9533044  40.7038343  30.3876240   1.0734506  40.5343047
  31.4996630   0.0505511  40.4398353  34.7092512  -3.2049637  41.2388377
  35.1752965  -2.3721645  41.1648680  35.1600013  -3.6704655  41.9433636
  24.6514348   4.7976235  49.9526622  25.3523807   5.4312718  50.1056016
  24.1809463   5.1390966  49.1922261  32.7768744   3.1394185  38.2374529
  33.0528587   3.0250779  39.1468403  31.9073242   2.7411669  38.1986702
  32.4515634  -2.6479158  47.7779173  31.7987084  -2.4003250  47.1231625
  32.8296014  -3.4615020  47.4441650  29.4122808   7.3880535  41.8807343
  29.5945202   6.5702191  42.3435095  30.2355794   7.6048228  41.4432233
  29.7464973   6.3148720  39.1422391  30.2752739   5.8041175  38.5292553
  30.0093193   5.9991251  40.0067924  28.5003207  -1.9059347  54.2645210
  27.8243844  -2.0065217  54.9347585  29.3230841  -2.0620133  54.7281207
  20.2482066   4.3312590  46.8857725  20.8335503   3.5856278  47.0185629
  20.0506904   4.6416546  47.7694389  23.1020721   7.3663837  41.9020167
  22.4331096   7.8509965  41.4184207  22.9633591   7.6133058  42.8163546
  27.2425990   9.4007581  48.5002826  27.7944298   9.5639202  49.2651911
  27.5832183   9.9912019  47.8282851  32.0936864   4.2268838  54.3551480
  32.6376768   4.8398796  53.8606435  31.5123709   4.7848417  54.8718493
  30.3794377   7.3489556  45.4866508  30.2545516   6.5479296  44.9777453
  31.0373468   7.8435750  44.9980478  32.4429285   5.1498576  47.1146058
  31.4959621   5.0303927  47.0424385  32.7912058   4.2621074  47.1972319
  29.4475719   4.9451293  43.3150410  29.3000681   4.0168000  43.4957980
  30.2729212   4.9671383  42.8307485  33.0509840   5.7679851  44.4015283
  33.9756388   5.5622713  44.2639734  32.8825144   5.5196252  45.3104624
  32.8405157   6.2865519  39.7577374  33.0142034   5.7211941  39.0051227
  33.3334048   7.0866414  39.5756864  38.6944548  -0.9498058  41.3767674
  39.1375694  -1.6990733  40.9786797  37.8171058  -0.9587922  40.9941406
  33.8280329   5.6032283  36.8574273  34.5231234   6.2238976  37.0761587
  34.1703479   4.7527634  37.1326651  35.7271752   3.0531989  38.3861603
  36.2523076   3.3919261  37.6610923  35.6394105   2.1179004  38.2024738
  27.3891801   6.9666062  50.5151480  27.6978927   6.7215209  51.3874180
  28.1867283   7.1712701  50.0270350  27.4112413   9.1203972  42.7456857
  26.9717403   8.6280351  43.4389713  28.1620530   8.5776940  42.5048932
  19.8904752   5.3115513  42.7481485  20.7162772   5.0119285  42.3680128
  19.5398804   4.5423135  43.1971273  24.8586285   4.6641981  44.8179158
  24.2366294   4.0012686  44.5181386  25.5291152   4.6903113  44.1352806
  18.0913357   3.2301839  43.7070418  17.2545265   2.8024014  43.5254419
  18.0637002   3.4234283  44.6441209  35.4165658   3.6864892  53.6912801
  34.6261202   3.6689031  53.1517301  35.1799013   4.2253186  54.4461838
  35.5363533   0.5357359  51.0045530  35.5861538   0.3707366  51.9461053
  35.4277457  -0.3315382  50.6143411  24.4199792   3.2145904  38.2937619
  24.5687912   3.8981369  37.6404292  25.2266235   3.1950994  38.8087075
  32.8267296  -3.4811713  52.3204837  33.7277158  -3.6205248  52.0288834
  32.9015270  -3.3157258  53.2603014  37.0381730   2.9554300  51.2487551
  36.7466538   3.3184281  52.0851012  36.4253861   2.2421308  51.0700883
  38.2377412   0.5207180  43.7690122  39.0724304   0.9596984  43.9327682
  38.3736541   0.0445833  42.9498367  35.2868918  -1.9213085  49.7167609
  35.7623040  -1.7285439  48.9086461  34.3634484  -1.8653899  49.4710993
  22.1752425  -0.7588918  39.2998688  21.9298467  -1.6626588  39.4978898
  22.3448340  -0.7571768  38.3578166  27.9195198   5.7094035  35.7649366
  27.3469165   6.3284222  35.3119838  28.4927991   6.2593396  36.2989288
  33.9870587  -5.0447325  47.9495915  34.9388010  -4.9449227  47.9708139
  33.8174038  -5.8369057  48.4593999  31.1392457   5.9931185  36.8957948
  32.0723130   5.9276747  37.0990824  31.0515670   6.8287452  36.4372481
  33.7680474   5.3097055  33.8561896  33.6894106   4.9756919  34.7497654
  34.5890141   5.8018823  33.8553368  36.4658665  -1.8241205  47.0638215
  36.4334985  -2.7625205  47.2497898  37.0759289  -1.7457169  46.3304040
  28.3041996  -2.9545152  33.1065419  29.2501101  -3.0838944  33.1753837
  27.9256241  -3.6930491  33.5834847  42.2835215  -0.7625199  46.2044251
  43.0138604  -1.0239910  46.7651955  41.6742161  -1.4996477  46.2446319
  40.3650512  -2.6217336  46.8018703  39.6383676  -2.7561371  46.1935194
  39.9497799  -2.3140507  47.6075421  28.1880689   1.0972594  54.5666076
  29.1083698   1.2751193  54.7606122  28.1530272   0.1528639  54.4145775
  21.1842761  -0.9926372  47.2088857  21.4028771  -0.0609264  47.2276891
  21.5968535  -1.3518397  47.9943661  25.9201897  -1.9896027  55.4156667
  25.4368978  -1.1895667  55.6220556  26.0062836  -1.9788082  54.4624111
  21.8475234   1.9008508  47.4525101  22.8018488   1.8692450  47.3855033
  21.6487758   1.4399131  48.2675327  22.4374616   0.4709624  50.0195899
  23.2567505   0.9653702  50.0430736  22.7111424  -0.4458408  49.9913466
  20.2025463   7.4428127  44.4695299  20.0679931   6.6828528  43.9033297
  19.7857525   8.1669027  44.0024088  31.3384426   2.6265051  33.4771874
  32.0420276   2.8315053  34.0929530  30.6147075   3.1941813  33.7420958
  32.1682236  -1.6225088  39.5974145  32.1117437  -1.1656537  38.7581777
  32.7210579  -2.3834403  39.4196987  40.2899380  -3.0939283  42.9295555
  39.7298938  -3.0246094  43.7027118  39.6842883  -3.2698298  42.2095052
  23.3594589   8.3397444  44.6813742  23.2426973   9.2842877  44.5792432
  22.5387035   8.0371006  45.0699541  33.2471123   3.0647580  35.5270334
  34.0816727   2.6328778  35.3447809  33.0855466   2.8929594  36.4547229
  32.9017015  -0.4320307  36.8926674  32.8465819  -0.5976035  35.9515118
  32.2763071   0.2755726  37.0488863  30.2162923   1.8728605  56.2180237
  31.0854082   2.0469257  55.8566871  29.7369674   2.6923022  56.0955966
  24.3849103   8.9925706  47.8969670  25.2876349   9.0249316  48.2136165
  24.1586473   8.0626157  47.9116006  26.1402705   7.7456693  44.5579749
  25.1898336   7.7458554  44.4444121  26.4435191   6.9989427  44.0415783
  41.8755398  13.5817231  45.6225511  42.5133808  13.4623978  44.9188851
  41.7576241  14.5298075  45.6813463  38.6845105  13.5344659  45.5587036
  38.3463616  13.4185724  44.6707571  39.5534873  13.1335824  45.5388042
  34.5431920  15.3880135  41.5483927  33.9796785  15.2970072  40.7800215
  34.4284315  14.5680040  42.0286419  39.1664888  14.6879511  51.5173241
  39.1553528  14.2932309  50.6453745  39.3285527  13.9545583  52.1107013
  32.0896352  16.8831327  44.3868147  32.8817644  16.5422152  43.9714447
  32.3293002  16.9926302  45.3070301  34.0487106  16.1440240  37.2585526
  34.8217982  15.5969227  37.1198402  34.4012505  17.0084490  37.4699987
  35.8872149  17.4716623  50.4652425  35.5962015  18.3762253  50.3499092
  36.5229133  17.5133150  51.1796495  36.8128356  14.8493471  47.0553785
  37.4091928  14.6249494  46.3410748  36.8703327  14.1078217  47.6579233
  36.3853384  12.3032906  34.8903976  36.6378905  11.7814428  34.1287439
  35.4477943  12.1399052  34.9930660  41.4296667  11.3068685  42.6978719
  42.2159756  10.8888108  42.3469136  41.6935371  12.2114777  42.8660368
  41.6006744  16.7441535  37.3967376  40.9652577  16.8176162  38.1088281
  41.2704151  17.3335134  36.7186455  46.8305094  11.2443918  43.6011698
  47.5630266  10.6743135  43.8349527  46.0744450  10.8565518  44.0418203
  36.1049673  14.2061012  37.0928351  35.9885931  13.5305916  37.7609435
  36.2151933  13.7193386  36.2760504  38.4481214  13.6671160  40.7975040
  38.0839421  13.1401780  41.5087962  39.3048330  13.2769629  40.6241526
  44.3530514   4.9565492  48.0606306  44.0213839   5.8260903  47.8367521
  43.7576128   4.6401776  48.7400337  38.0886701   8.6961059  35.7936389
  38.2561103   9.5641296  36.1606860  37.8983870   8.8588341  34.8697678
  40.8462034  17.1578038  47.4602219  40.5462757  18.0603077  47.3518026
  40.5013093  16.8910221  48.3123372  34.2974515  13.6091835  43.4938923
  33.3725012  13.4768049  43.7016615  34.5458928  14.3886054  43.9908866
  44.2459178   9.6760578  45.1399656  43.3376055   9.6075987  44.8458417
  44.1946773  10.1532523  45.9681482  38.0675921  11.1518717  36.7783056
  37.9475547  11.5975767  37.6168536  37.3728510  11.5004034  36.2196594
  31.6583326  13.2525109  44.3282713  31.7875707  13.5059587  45.2422124
  30.9780778  13.8452817  44.0087368  38.3200043  11.0950224  53.0834554
  37.5433377  11.6544144  53.0737418  38.9590606  11.5807007  53.6049424
  46.1120824   7.8777017  46.9177530  45.4695204   8.1709550  46.2717325
  45.6075752   7.7629937  47.7230727  43.7660988  11.6240190  37.6063390
  44.6778844  11.8567577  37.4311087  43.2570635  12.2077234  37.0438468
  36.5746416  13.9035677  52.6452521  37.3161100  14.4420721  52.3687344
  35.8683401  14.5301966  52.8024072  42.0501755  16.0464818  51.2424682
  42.4585111  15.6047228  50.4979315  41.3279017  15.4717445  51.4958875
  38.4032825  10.9837424  48.6158239  39.2494021  11.4076838  48.7592888
  38.3431463  10.3271049  49.3096802  42.3730570  16.6066008  44.9976971
  41.7439432  16.7711722  44.2953039  41.9856232  17.0207618  45.7687935
  46.2519802  17.5420446  42.3521335  45.5670840  17.9219348  41.8018368
  46.3363651  18.1515773  43.0853283  41.5532271   8.6441793  50.2739413
  41.3093203   9.3983853  49.7373688  41.8292201   9.0227140  51.1086660
  43.5070733  15.1880405  48.9516678  43.7187629  15.8312165  48.2751059
  43.4600482  14.3542722  48.4838608  41.1096962   7.7998226  45.8553250
  40.2481441   8.0979479  46.1469988  41.1359397   8.0168625  44.9234283
  37.9258532  16.3440416  42.2627056  38.3896877  16.6228119  41.4731679
  37.6615330  15.4423861  42.0800147  34.8182613  15.8911898  45.2006819
  35.3883970  16.3199166  44.5624304  35.4090725  15.6094483  45.8991005
  36.8627418  12.4663569  39.0716621  37.5651461  12.9184612  39.5390548
  36.5308046  11.8247388  39.6996514  35.3107779  11.0575325  53.4467831
  34.6806440  11.7391606  53.6803227  35.2043867  10.9458407  52.5020969
  30.6052752  10.7247121  44.3733755  29.8151806  10.9804650  43.8973865
  31.0963999  11.5395459  44.4785795  44.6216561  18.0652361  47.1239036
  45.4434005  17.6632548  46.8421717  44.6178964  17.9620595  48.0755151
  32.5567497  11.0891701  41.3317232  31.7598660  11.2010395  41.8500727
  32.3293089  11.4278353  40.4658122  38.3873165  17.6136404  49.2799746
  38.4517597  18.0756811  50.1157918  37.6784089  16.9833769  49.4082056
  28.8890455  10.9777612  46.8048746  29.1398493  11.8624622  47.0706322
  29.4250003  10.7982213  46.0323837  52.7122554  14.4091109  43.4724007
  51.9586263  13.8398507  43.3168012  52.8470096  14.3753774  44.4194642
  34.5888522   5.3596091  55.8093082  34.1955468   4.8062290  56.4840726
  35.4054662   5.6706670  56.1999599  31.5550580  16.7979949  39.7206652
  32.0675100  17.5923200  39.8712216  32.2073293  16.1006240  39.6540253
  33.3645465  19.9145706  41.8029405  33.5412093  20.8363670  41.6150389
  34.1602298  19.6004125  42.2323785  37.5056483   6.7753970  53.4013338
  38.2466196   7.3761123  53.3217801  37.7374406   6.0331608  52.8431381
  32.6497821  11.9610338  51.6791568  32.5351336  11.0595595  51.9798667
  31.7942339  12.2074034  51.3276384  39.7289659  19.9028078  53.2779069
  39.2853513  19.1164456  52.9599973  40.3906872  20.0907228  52.6122959
  41.8270897  20.1830878  51.3060470  41.8089372  21.0039759  50.8140739
  42.7490817  20.0584953  51.5310611  38.2843951  17.6975007  52.1483978
  38.8172288  16.9363296  51.9183286  37.7558032  17.4048659  52.8908133
  41.4513646   2.8035073  47.6777620  41.1077915   3.6936715  47.6016731
  41.8192609   2.6136731  46.8147205  29.5199497  15.1268604  40.4966222
  30.3574719  15.5365612  40.2799930  29.6977764  14.1868046  40.4666416
  41.4163929  12.7943684  36.1850055  40.9010552  13.5648289  36.4238442
  41.1441237  12.1208821  36.8083117  39.0011040   7.6393385  41.2435293
  38.1452636   7.2500236  41.0640932  39.4137992   7.7185346  40.3835079
  40.5310186   5.1739728  45.6426853  40.0274982   5.1369864  44.8294658
  40.8240793   6.0832471  45.7023510  36.7753072   5.2578458  44.6493035
  37.6406069   5.0621267  44.2898924  36.8430581   5.0288810  45.5762392
  46.3898203  15.5476039  38.1203229  45.6127646  15.2087199  37.6758391
  47.0689684  15.5528662  37.4458194  41.2050232  10.6670777  38.0109836
  40.9000368  10.9816926  38.8619979  42.1580674  10.7452196  38.0537169
  39.6496664  16.8261000  39.6602790  39.1218025  16.0913759  39.3476028
  39.1484167  17.6035676  39.4142759  44.6289510  15.0210020  44.7769837
  43.9713184  15.7109282  44.8649965  45.4329909  15.4106452  45.1203823
  34.3815391   7.4880666  42.0209402  34.9559143   7.2655848  41.2882595
  34.9686374   7.5569361  42.7738003  43.4394969  13.3754393  42.8273778
  43.9526850  14.0084385  43.3295488  44.0896193  12.7755589  42.4617138
  34.7084979   9.5185127  36.0405287  33.8722291   9.8559814  36.3614562
  34.5689748   9.3834107  35.1032424  36.6838059   4.3621915  40.7484471
  36.0302471   4.0470932  40.1241086  36.6418533   3.7397655  41.4744294
  39.9175799  10.8503849  45.0732119  38.9998361  11.0718796  44.9153807
  40.3335943  10.9250159  44.2143826  40.7010847  12.2495264  40.2034799
  41.4482666  12.7616661  39.8941921  40.9702437  11.9279317  41.0639193
  38.9737497  14.7453805  37.1861753  38.0648717  14.4612838  37.2834223
  39.0032581  15.1652884  36.3265060  44.2056765  18.3560394  40.9552921
  43.7519092  17.5151304  41.0118111  43.5750732  18.9921793  41.2927701
  43.1489684   9.2852380  42.1853588  42.4112441   8.7729767  42.5163831
  43.4016458   8.8452762  41.3736865  42.6489704  20.1936891  41.8902739
  42.9412678  20.7541948  41.1715105  43.1588325  20.4865452  42.6455898
  43.2501312   2.0628632  42.7795358  43.5560189   1.2025996  42.4921273
  43.9753917   2.6546253  42.5794352  29.5425668  12.4659319  41.1676956
  29.3450068  11.8728680  40.4428022  28.9872332  12.1611529  41.8852894
  37.5222391  12.3582426  43.2871549  37.5771001  11.4056262  43.2114025
  36.7113593  12.5141865  43.7712847  35.4614751  10.9759485  41.0461928
  34.6482617  11.2753656  41.4527120  35.9573746  10.5815174  41.7636410
  41.0588963  11.4401310  49.8776821  41.4138351  11.6672783  50.7371287
  41.7061094  11.7719687  49.2554077  46.7886700  14.5619746  40.5826150
  46.6504599  14.7521342  39.6547340  46.4322919  15.3239128  41.0394202
  34.9528826   8.5477841  46.6623163  35.5928205   8.4066600  45.9646126
  34.1206357   8.2612354  46.2861765  46.8156080  16.6296273  45.5937422
  47.2492586  16.5371562  46.4420476  47.5287660  16.6053773  44.9557438
  35.7289130  17.8480271  42.7758155  36.5229729  17.3530591  42.5740730
  35.0180822  17.3198134  42.4125861  40.5483975  20.2298367  47.1270523
  40.6020997  20.7989303  47.8948239  39.6798756  20.4000252  46.7624560
  32.0371894  11.9923353  38.8517908  31.1069482  11.9307808  39.0687870
  32.1329366  11.4699306  38.0554549  31.9557443   8.5178166  41.4396149
  32.2164260   9.4323499  41.3305310  32.7774615   8.0502608  41.5892762
  33.4282368   9.9315923  48.6094974  34.1005421   9.7233285  47.9607623
  32.6012154   9.7338009  48.1700206  47.6771629  16.6719973  48.1270307
  47.8707519  17.5765784  48.3729582  47.5772247  16.2127392  48.9608892
  39.3307940   6.5577864  50.6260635  38.6835855   7.2567814  50.5325111
  40.1008955   6.9914008  50.9936883  42.7386738  16.8226716  53.7011188
  42.5872244  16.5937268  52.7841272  42.7291417  17.7797317  53.7142533
  39.5072074  14.3958629  48.6857454  40.4364134  14.5469788  48.5126422
  39.0863104  14.4842650  47.8306101  39.8565621  17.7990896  43.8444830
  39.5215454  17.7591666  44.7402480  39.3569567  17.1335612  43.3715240
  33.8309865  13.2058526  49.3697411  33.6929663  12.4738765  49.9708950
  34.7414789  13.1167426  49.0881599  42.7924813  15.1446930  34.1181890
  42.1753983  14.4193758  34.0214942  42.3241301  15.9056291  33.7748964
  36.4592166  12.9178485  48.8581091  37.1691784  12.2771677  48.8167709
  36.4161474  13.1691380  49.7807271  44.4478944  19.8545839  51.7787670
  44.3891491  19.1705059  51.1118253  44.8498463  20.5964829  51.3268296
  35.1721100   9.9043703  50.6776730  34.6358457   9.4534442  51.3298326
  34.5837808  10.0389612  49.9347194  34.5823359   9.3632355  33.2403194
  33.7052825   9.2421155  32.8765440  35.0581112   8.5718433  32.9882082
  44.4496352  17.8185423  50.0101650  43.5623131  17.4811344  50.1328048
  45.0194903  17.0868454  50.2470415  26.1025499  14.1509514  43.3344701
  26.7896539  13.8371244  42.7465716  25.9473628  15.0550879  43.0611952
  30.9060221   9.0399711  47.7629725  30.8218410   8.4325380  47.0280135
  30.0842927   9.5308729  47.7639221  41.0783935   7.5253274  43.1299920
  41.5752634   6.7723237  42.8100990  40.3070916   7.5617591  42.5643129
  48.9313692  13.2293640  44.7718211  48.9203569  14.1118355  44.4012144
  48.0631072  12.8765191  44.5772748  40.4396189  22.3773709  49.1321051
  41.1524161  23.0121174  49.0596953  39.9486217  22.4737575  48.3161053
  42.1613716  16.2824962  40.7038343  41.2269994  16.4026424  40.5343047
  42.3390384  15.3797428  40.4398353  37.6618904   9.6670657  42.8571604
  37.2916691   9.1141698  43.5452510  38.1577996   9.0628791  42.3046604
  45.5486267  12.1242281  41.2388377  46.0146719  12.9570272  41.1648680
  45.9993767  11.6587262  41.9433636  43.6162498  18.4686102  38.2374529
  43.8922342  18.3542697  39.1468403  42.7466997  18.0703587  38.1986702
  43.5202930   4.4922868  45.2779279  42.6066009   4.7227095  45.4461485
  43.9496031   4.5761312  46.1293311  43.2909388  12.6812760  47.7779173
  42.6380838  12.9288667  47.1231625  43.6689768  11.8676898  47.4441650
  39.3396961  13.4232571  54.2645210  38.6637598  13.3226700  54.9347585
  40.1624595  13.2671785  54.7281207  25.6793475  12.2310108  45.6062168
  25.7177575  11.6973698  46.3999286  25.1733768  11.7045313  44.9873145
  33.0584237   7.0774648  49.1024710  33.1225564   7.9389479  48.6902108
  32.9951358   6.4648650  48.3697069  32.5336510   9.1497781  52.7497745
  33.1608549   8.7674858  53.3635269  31.6764429   8.9311983  53.1153437
  42.9330618  19.5560756  54.3551480  43.4770522  20.1690714  53.8606435
  42.3517463  20.1140334  54.8718493  29.3102053  10.9574210  38.6816099
  29.6055494  10.0484888  38.6283153  28.4090088  10.9361949  38.3597102
  32.8396300   9.0330206  44.6643648  32.1182885   9.6466174  44.5251121
  33.6289555   9.5687971  44.5860294  43.2823040  20.4790494  47.1146058
  42.3353375  20.3595845  47.0424385  43.6305813  19.5912992  47.1972319
  35.6422613   6.3684633  50.9384300  36.1657015   6.6146929  51.7010609
  35.4234946   7.2004668  50.5187437  31.0389894   8.6388307  38.8055425
  30.7102600   7.7585686  38.6230531  31.3929265   8.5835976  39.6931814
  40.2869473  20.2743210  43.3150410  40.1394435  19.3459918  43.4957980
  41.1122967  20.2963301  42.8307485  34.1531717   8.9261277  39.1730902
  34.4927790   9.4547199  38.4509511  34.6003838   9.2641683  39.9489469
  43.8903595  21.0971769  44.4015283  44.8150142  20.8914630  44.2639734
  43.7218898  20.8488170  45.3104624  36.8475158   7.3098328  48.6233970
  36.5071979   6.5106141  49.0254650  36.1414164   7.6100039  48.0510804
  37.4991630   4.3947640  47.0761293  38.3217699   3.9208119  46.9540184
  37.7429694   5.1738124  47.5759980  36.1399864   7.4235899  37.3724195
  36.8608227   7.8017152  36.8687912  35.5165169   8.1424776  37.4759173
  40.2830987   8.1281048  38.3082527  40.4994602   9.0105686  38.0071356
  39.8025055   7.7367261  37.5788169  35.0230209  11.0866761  44.8853272
  34.8774789  11.4007064  45.7777553  34.5455412  11.7051661  44.3324171
  36.8826592   8.0769309  44.9334162  36.8688160   7.1810402  44.5966459
  37.5999020   8.0839973  45.5672448  38.7352722   8.5106649  46.9787289
  38.4770500   9.4323720  46.9771619  38.2037763   8.1137084  47.6687753
  36.2863488   6.9583689  40.2021732  36.4079399   6.0300336  40.4012619
  35.9965530   6.9722375  39.2900047  39.1554678   4.6438600  43.3388452
  39.1776375   4.7077933  42.3840431  39.5722737   3.8043108  43.5328958
  49.5338302  14.3793859  41.3767674  49.9769448  13.6301185  40.9786797
  48.6564813  14.3703996  40.9941406  30.2841893  12.7542002  50.7171090
  29.5423629  12.9024637  51.3035720  29.9634637  13.0150267  49.8537839
  46.5665507  18.3823906  38.3861603  47.0916831  18.7211179  37.6610923
  46.4787859  17.4470922  38.2024738  35.7704567   8.4715687  54.4111664
  35.8192723   9.3477809  54.0289434  36.3127081   7.9293080  53.8383307
  46.2559413  19.0156810  53.6912801  45.4654956  18.9980949  53.1517301
  46.0192767  19.5545104  54.4461838  46.3757288  15.8649276  51.0045530
  46.4255293  15.6999284  51.9461053  46.2671211  14.9976535  50.6143411
  43.6661050  11.8480204  52.3204837  44.5670913  11.7086669  52.0288834
  43.7409025  12.0134659  53.2603014  38.0003856   9.2247059  51.1658023
  37.1307165   9.5180625  50.8940611  38.2363336   9.8087504  51.8865287
  47.8775485  18.2846218  51.2487551  47.5860293  18.6476198  52.0851012
  47.2647616  17.5713226  51.0700883  49.0771167  15.8499098  43.7690122
  49.9118058  16.2888902  43.9327682  49.2130296  15.3737751  42.9498367
  46.1262673  13.4078832  49.7167609  46.6016794  13.6006479  48.9086461
  45.2028238  13.4638018  49.4710993  33.0146179  14.5703000  39.2998688
  32.7692221  13.6665330  39.4978898  33.1842094  14.5720150  38.3578166
  40.7042889   5.4426676  48.6823443  41.2224833   6.1787703  48.3569932
  40.3498022   5.7490669  49.5170202  32.2841827  10.3031357  36.7984849
  31.5911072  10.3775712  36.1424885  32.0393579   9.5391701  37.3206366
  40.9555484   1.8626959  44.2024340  41.2357237   1.1950148  44.8284766
  41.7406090   2.0556054  43.6899004  44.8264342  10.2844593  47.9495915
  45.7781765  10.3842690  47.9708139  44.6567792   9.4922861  48.4593999
  42.8478721   7.3700176  48.1355316  42.2528653   7.6505188  47.4401805
  42.5628418   7.8594077  48.9072057  44.6074228  20.6388973  33.8561896
  44.5287860  20.3048837  34.7497654  45.4283895  21.1310741  33.8553368
  47.3052420  13.5050712  47.0638215  47.2728740  12.5666713  47.2497898
  47.9153043  13.5834749  46.3304040  39.1435751  12.3746765  33.1065419
  40.0894855  12.2452973  33.1753837  38.7649995  11.6361427  33.5834847
  47.4546908  10.2961756  47.1096498  46.9385957   9.5120212  46.9226427
  48.3386857   9.9680472  47.2743017  45.1157635   4.0402771  43.0692311
  44.9182456   3.7317859  43.9535642  45.7257341   4.7664410  43.1990240
  53.1228970  14.5666719  46.2044251  53.8532358  14.3052007  46.7651955
  52.5135915  13.8295441  46.2446319  51.2044267  12.7074582  46.8018703
  50.4777430  12.5730547  46.1935194  50.7891554  13.0151410  47.6075421
  39.0274443  16.4264511  54.5666076  39.9477453  16.6043110  54.7606122
  38.9924026  15.4820557  54.4145775  37.3278668  10.2996742  33.0420304
  36.4210123  10.0029854  33.1183018  37.6054649  10.0026560  32.1754590
  28.2456608  11.6203105  43.4919350  27.9259392  10.7668413  43.1993724
  27.6990036  11.8351683  44.2477318  32.0236516  14.3365546  47.2088857
  32.2422525  15.2682654  47.2276891  32.4362289  13.9773520  47.9943661
  38.9440733   4.8433631  39.1964545  38.1341462   4.4980716  39.5719791
  39.6325150   4.5341175  39.7852157  40.8731282   3.9211678  40.8188842
  41.4262320   4.3407132  41.4778865  41.1101368   2.9947426  40.8611798
  36.8964381   9.9098752  56.5991606  36.7961108  10.8593109  56.5303697
  36.6785923   9.5816991  55.7267676  36.0977452   7.1583677  33.1832283
  36.9596616   7.4838575  33.4428100  36.2827796   6.3715173  32.6705349
  44.2510089   6.0312203  40.3267506  43.6708758   6.6897007  39.9445559
  43.9846021   5.2089548  39.9154924  42.7013655   5.4317261  42.5288826
  43.2013434   5.5433796  41.7203145  43.3449263   5.1278314  43.1689635
  36.7595651  13.3395891  55.4156667  36.2762733  14.1396251  55.6220556
  36.8456590  13.3503835  54.4624111  30.0281611  15.1724270  43.3378487
  30.0052299  15.2711958  42.3860370  30.3382247  16.0189421  43.6595653
  32.6868988  17.2300425  47.4525101  33.6412242  17.1984368  47.3855033
  32.4881512  16.7691049  48.2675327  33.2768371  15.8001541  50.0195899
  34.0961260  16.2945620  50.0430736  33.5505178  14.8833509  49.9913466
  43.0334967   8.1912294  39.3823854  42.1460822   8.4761944  39.1644049
  43.4488956   8.0306057  38.5351131  46.3849503   8.2158815  43.0978194
  47.1609893   8.7055267  43.3702810  45.6597637   8.6416869  43.5550063
  48.8222062   8.9286434  44.1552134  49.4166552   8.6882170  43.4445442
  48.8948645   8.2093564  44.7825671  42.1778180  17.9556968  33.4771874
  42.8814030  18.1606971  34.0929530  41.4540829  18.5233730  33.7420958
  43.0075991  13.7066830  39.5974145  42.9511192  14.1635381  38.7581777
  43.5604333  12.9457514  39.4196987  46.8180796   9.4956561  40.4224264
  46.5617731   9.0953197  41.2532472  46.1933665  10.2100355  40.2974403
  51.1293134  12.2352635  42.9295555  50.5692692  12.3045824  43.7027118
  50.5236638  12.0593619  42.2095052  44.0864878  18.3939498  35.5270334
  44.9210482  17.9620696  35.3447809  43.9249221  18.2221511  36.4547229
  43.7410770  14.8971611  36.8926674  43.6859574  14.7315882  35.9515118
  43.1156825  15.6047644  37.0488863  28.5303285  10.1339675  50.7188096
  29.1762148   9.6238629  51.2075321  28.3220436  10.8708357  51.2931521
  41.0556677  17.2020523  56.2180237  41.9247837  17.3761175  55.8566871
  40.5763429  18.0214940  56.0955966  37.0506895   4.3979720  36.4711992
  37.0385565   5.3421560  36.6280263  37.9430317   4.2149865  36.1771453
  40.8659015   0.9922496  40.7257929  40.0991411   0.4380983  40.8714611
  41.2769720   1.0644365  41.5872081  32.8700776   7.2807292  54.8163110
  33.7332237   6.9244097  55.0266435  32.2966187   6.9421187  55.5038514
  52.2690421  26.6360602  42.6978719  53.0553510  26.2180026  42.3469136
  52.5329126  27.5406695  42.8660368  57.6698848  26.5735836  43.6011698
  58.4024020  26.0035053  43.8349527  56.9138204  26.1857436  44.0418203
  55.1924269  20.2857410  48.0606306  54.8607594  21.1552821  47.8367521
  54.5969882  19.9693694  48.7400337  55.0852932  25.0052496  45.1399656
  54.1769809  24.9367904  44.8458417  55.0340528  25.4824441  45.9681482
  49.1593798  26.4242142  53.0834554  48.3827132  26.9836062  53.0737418
  49.7984361  26.9098925  53.6049424  56.9514578  23.2068934  46.9177530
  56.3088959  23.5001468  46.2717325  56.4469507  23.0921855  47.7230727
  54.6054742  26.9532108  37.6063390  55.5172598  27.1859494  37.4311087
  54.0964389  27.5369152  37.0438468  52.3926025  23.9733711  50.2739413
  52.1486957  24.7275771  49.7373688  52.6685956  24.3519058  51.1086660
  51.9490717  23.1290144  45.8553250  51.0875196  23.4271397  46.1469988
  51.9753152  23.3460542  44.9234283  45.4282277  20.6888009  55.8093082
  45.0349222  20.1354208  56.4840726  46.2448417  20.9998587  56.1999599
  48.3450238  22.1045888  53.4013338  49.0859951  22.7053041  53.3217801
  48.5768160  21.3623526  52.8431381  52.2907401  18.1326991  47.6777620
  51.9471670  19.0228633  47.6016731  52.6586363  17.9428649  46.8147205
  49.8404794  22.9685303  41.2435293  48.9846391  22.5792153  41.0640932
  50.2531746  23.0477264  40.3835079  51.3703941  20.5031646  45.6426853
  50.8668737  20.4661781  44.8294658  51.6634548  21.4124389  45.7023510
  47.6146827  20.5870376  44.6493035  48.4799824  20.3913185  44.2898924
  47.6824336  20.3580728  45.5762392  57.2291957  30.8767957  38.1203229
  56.4521400  30.5379116  37.6758391  57.9083438  30.8820580  37.4458194
  45.2209146  22.8172584  42.0209402  45.7952898  22.5947765  41.2882595
  45.8080128  22.8861278  42.7738003  54.2788723  28.7046311  42.8273778
  54.7920605  29.3376303  43.3295488  54.9289947  28.1047506  42.4617138
  47.5231814  19.6913833  40.7484471  46.8696226  19.3762850  40.1241086
  47.4812288  19.0689573  41.4744294  50.7569554  26.1795766  45.0732119
  49.8392115  26.4010713  44.9153807  51.1729698  26.2542077  44.2143826
  53.9883439  24.6144298  42.1853588  53.2506196  24.1021684  42.5163831
  54.2410212  24.1744680  41.3736865  54.0895066  17.3920550  42.7795358
  54.3953943  16.5317914  42.4921273  54.8147671  17.9838170  42.5794352
  51.8982718  26.7693227  49.8776821  52.2532105  26.9964701  50.7371287
  52.5454849  27.1011604  49.2554077  45.7922581  23.8769759  46.6623163
  46.4321960  23.7358518  45.9646126  44.9600111  23.5904272  46.2861765
  50.1701694  21.8869782  50.6260635  49.5229609  22.5859731  50.5325111
  50.9402710  22.3205926  50.9936883  53.6318567  30.4738848  34.1181890
  53.0147738  29.7485676  34.0214942  53.1635056  31.2348208  33.7748964
  51.9177689  22.8545192  43.1299920  52.4146389  22.1015154  42.8100990
  51.1464671  22.8909509  42.5643129  59.7707447  28.5585558  44.7718211
  59.7597323  29.4410273  44.4012144  58.9024826  28.2057108  44.5772748
  48.5012658  24.9962575  42.8571604  48.1310446  24.4433615  43.5452510
  48.9971751  24.3920709  42.3046604  56.3880021  27.4534199  41.2388377
  56.8540474  28.2862190  41.1648680  56.8387522  26.9879180  41.9433636
  54.3596684  19.8214786  45.2779279  53.4459764  20.0519012  45.4461485
  54.7889786  19.9053230  46.1293311  54.1303143  28.0104678  47.7779173
  53.4774593  28.2580585  47.1231625  54.5083523  27.1968816  47.4441650
  50.1790716  28.7524489  54.2645210  49.5031353  28.6518618  54.9347585
  51.0018350  28.5963702  54.7281207  43.8977992  22.4066566  49.1024710
  43.9619318  23.2681397  48.6902108  43.8345112  21.7940567  48.3697069
  43.3730264  24.4789698  52.7497745  44.0002303  24.0966776  53.3635269
  42.5158183  24.2603900  53.1153437  46.4816368  21.6976551  50.9384300
  47.0050769  21.9438847  51.7010609  46.2628701  22.5296585  50.5187437
  47.6868913  22.6390246  48.6233970  47.3465733  21.8398059  49.0254650
  46.9807919  22.9391957  48.0510804  48.3385384  19.7239558  47.0761293
  49.1611454  19.2500036  46.9540184  48.5823448  20.5030042  47.5759980
  47.7220346  23.4061227  44.9334162  47.7081915  22.5102320  44.5966459
  48.4392774  23.4131890  45.5672448  49.5746477  23.8398567  46.9787289
  49.3164255  24.7615638  46.9771619  49.0431517  23.4429001  47.6687753
  47.1257242  22.2875607  40.2021732  47.2473153  21.3592253  40.4012619
  46.8359284  22.3014293  39.2900047  49.9948432  19.9730517  43.3388452
  50.0170129  20.0369851  42.3840431  50.4116491  19.1335026  43.5328958
  46.6098322  23.8007604  54.4111664  46.6586477  24.6769727  54.0289434
  47.1520836  23.2584997  53.8383307  54.5054805  27.1772122  52.3204837
  55.4064667  27.0378587  52.0288834  54.5802779  27.3426577  53.2603014
  48.8397610  24.5538977  51.1658023  47.9700919  24.8472543  50.8940611
  49.0757090  25.1379422  51.8865287  58.7169239  33.6138136  51.2487551
  58.4254047  33.9768116  52.0851012  58.1041370  32.9005144  51.0700883
  51.5436644  20.7718594  48.6823443  52.0618588  21.5079621  48.3569932
  51.1891777  21.0782587  49.5170202  51.7949238  17.1918876  44.2024340
  52.0750992  16.5242065  44.8284766  52.5799845  17.3847972  43.6899004
  55.6658096  25.6136510  47.9495915  56.6175519  25.7134608  47.9708139
  55.4961547  24.8214779  48.4593999  53.6872476  22.6992093  48.1355316
  53.0922408  22.9797106  47.4401805  53.4022173  23.1885994  48.9072057
  49.9829505  27.7038683  33.1065419  50.9288610  27.5744891  33.1753837
  49.6043750  26.9653345  33.5834847  58.2940663  25.6253673  47.1096498
  57.7779711  24.8412130  46.9226427  59.1780611  25.2972390  47.2743017
  55.9551390  19.3694689  43.0692311  55.7576211  19.0609777  43.9535642
  56.5651095  20.0956328  43.1990240  48.1672422  25.6288659  33.0420304
  47.2603878  25.3321772  33.1183018  48.4448403  25.3318477  32.1754590
  49.7834488  20.1725549  39.1964545  48.9735216  19.8272634  39.5719791
  50.4718905  19.8633093  39.7852157  51.7125036  19.2503596  40.8188842
  52.2656075  19.6699049  41.4778865  51.9495123  18.3239344  40.8611798
  47.7358135  25.2390669  56.5991606  47.6354862  26.1885026  56.5303697
  47.5179677  24.9108908  55.7267676  46.9371207  22.4875594  33.1832283
  47.7990371  22.8130493  33.4428100  47.1221551  21.7007090  32.6705349
  55.0903843  21.3604121  40.3267506  54.5102512  22.0188925  39.9445559
  54.8239776  20.5381466  39.9154924  53.5407410  20.7609179  42.5288826
  54.0407188  20.8725713  41.7203145  54.1843018  20.4570232  43.1689635
  47.5989405  28.6687808  55.4156667  47.1156487  29.4688168  55.6220556
  47.6850345  28.6795753  54.4624111  53.8728721  23.5204211  39.3823854
  52.9854576  23.8053862  39.1644049  54.2882710  23.3597975  38.5351131
  57.2243257  23.5450732  43.0978194  58.0003648  24.0347185  43.3702810
  56.4991392  23.9708787  43.5550063  59.6615816  24.2578352  44.1552134
  60.2560307  24.0174087  43.4445442  59.7342400  23.5385482  44.7825671
  53.0171935  33.2848886  33.4771874  53.7207785  33.4898889  34.0929530
  52.2934584  33.8525648  33.7420958  53.8469745  29.0358747  39.5974145
  53.7904946  29.4927299  38.7581777  54.3998088  28.2749432  39.4196987
  57.6574551  24.8248479  40.4224264  57.4011485  24.4245115  41.2532472
  57.0327419  25.5392273  40.2974403  61.9686889  27.5644552  42.9295555
  61.4086447  27.6337742  43.7027118  61.3630392  27.3885537  42.2095052
  54.9258632  33.7231415  35.5270334  55.7604236  33.2912614  35.3447809
  54.7642975  33.5513429  36.4547229  54.5804524  30.2263529  36.8926674
  54.5253328  30.0607800  35.9515118  53.9550580  30.9339561  37.0488863
  47.8900650  19.7271638  36.4711992  47.8779320  20.6713477  36.6280263
  48.7824072  19.5441783  36.1771453  51.7052769  16.3214414  40.7257929
  50.9385165  15.7672901  40.8714611  52.1163474  16.3936283  41.5872081
  43.7094530  22.6099210  54.8163110  44.5725992  22.2536015  55.0266435
  43.1359941  22.2713105  55.5038514  63.2319780  39.3025628  50.2739413
  62.9880712  40.0567689  49.7373688  63.5079710  39.6810976  51.1086660
  74.3910063  45.0674944  43.4724007  73.6373772  44.4982343  43.3168012
  74.5257605  45.0337609  44.4194642  67.9346922  49.6740645  53.6912801
  67.1442465  49.6564784  53.1517301  67.6980276  50.2128939  54.4461838
  69.5562994  48.9430053  51.2487551  69.2647802  49.3060034  52.0851012
  68.9435125  48.2297061  51.0700883  69.1334417  40.9545591  47.1096498
  68.6173466  40.1704048  46.9226427  70.0174366  40.6264308  47.2743017
  74.8016479  45.2250554  46.2044251  75.5319867  44.9635843  46.7651955
  74.1923424  44.4879276  46.2446319  72.8831776  43.3658417  46.8018703
  72.1564939  43.2314382  46.1935194  72.4679063  43.6735246  47.6075421
  58.5751890  40.5682587  56.5991606  58.4748617  41.5176944  56.5303697
  58.3573432  40.2400826  55.7267676  70.5009571  39.5870269  44.1552134
  71.0954061  39.3466005  43.4445442  70.5736154  38.8677400  44.7825671
  72.8080643  42.8936470  42.9295555  72.2480201  42.9629659  43.7027118
  72.2024147  42.7177455  42.2095052  62.7344186  47.8604358  56.2180237
  63.6035346  48.0345010  55.8566871  62.2550938  48.6798775  56.0955966
  74.3936662  59.5692984  45.6225511  75.0315072  59.4499731  44.9188851
  74.2757505  60.5173828  45.6813463  71.2026368  59.5220412  45.5587036
  70.8644880  59.4061477  44.6707571  72.0716136  59.1211577  45.5388042
  67.0613184  61.3755889  41.5483927  66.4978049  61.2845825  40.7800215
  66.9465579  60.5555793  42.0286419  71.6846151  60.6755264  51.5173241
  71.6734792  60.2808062  50.6453745  71.8466791  59.9421336  52.1107013
  72.6412742  65.0426856  36.8598392  71.9900722  65.6280937  36.4732406
  73.4357105  65.5733051  36.9193429  66.5668370  62.1315993  37.2585526
  67.3399246  61.5844980  37.1198402  66.9193768  62.9960243  37.4699987
  68.4053412  63.4592376  50.4652425  68.1143278  64.3638006  50.3499092
  69.0410397  63.5008903  51.1796495  69.3309619  60.8369224  47.0553785
  69.9273191  60.6125247  46.3410748  69.3884591  60.0953970  47.6579233
  68.9034647  58.2908659  34.8903976  69.1560168  57.7690181  34.1287439
  67.9659207  58.1274805  34.9930660  73.9477930  57.2944438  42.6978719
  74.7341019  56.8763861  42.3469136  74.2116635  58.1990530  42.8660368
  74.1188008  62.7317288  37.3967376  73.4833841  62.8051915  38.1088281
  73.7885414  63.3210887  36.7186455  79.3486357  57.2319671  43.6011698
  80.0811529  56.6618888  43.8349527  78.5925713  56.8441271  44.0418203
  68.6230936  60.1936765  37.0928351  68.5067194  59.5181669  37.7609435
  68.7333196  59.7069139  36.2760504  70.9662477  59.6546913  40.7975040
  70.6020684  59.1277534  41.5087962  71.8229593  59.2645382  40.6241526
  76.8711778  50.9441245  48.0606306  76.5395103  51.8136656  47.8367521
  76.2757391  50.6277529  48.7400337  70.6067964  54.6836812  35.7936389
  70.7742366  55.5517049  36.1606860  70.4165133  54.8464094  34.8697678
  73.3643297  63.1453791  47.4602219  73.0644020  64.0478830  47.3518026
  73.0194357  62.8785974  48.3123372  76.7640441  55.6636331  45.1399656
  75.8557318  55.5951740  44.8458417  76.7128037  56.1408276  45.9681482
  70.5857185  57.1394470  36.7783056  70.4656810  57.5851521  37.6168536
  69.8909773  57.4879787  36.2196594  68.3464077  69.9098111  40.4273187
  68.2688107  70.8605937  40.5061667  67.7425721  69.5643984  41.0848113
  70.8381307  57.0825977  53.0834554  70.0614641  57.6419897  53.0737418
  71.4771870  57.5682760  53.6049424  78.6302087  53.8652770  46.9177530
  77.9876468  54.1585303  46.2717325  78.1257016  53.7505690  47.7230727
  76.2842251  57.6115943  37.6063390  77.1960107  57.8443330  37.4311087
  75.7751898  58.1952987  37.0438468  69.0927679  59.8911430  52.6452521
  69.8342364  60.4296474  52.3687344  68.3864665  60.5177719  52.8024072
  74.5683019  62.0340571  51.2424682  74.9766375  61.5922981  50.4979315
  73.8460280  61.4593198  51.4958875  70.9214089  56.9713178  48.6158239
  71.7675284  57.3952591  48.7592888  70.8612726  56.3146802  49.3096802
  74.8911833  62.5941761  44.9976971  74.2620696  62.7587476  44.2953039
  74.5037496  63.0083371  45.7687935  78.7701065  63.5296199  42.3521335
  78.0852103  63.9095101  41.8018368  78.8544915  64.1391526  43.0853283
  74.0713534  54.6317546  50.2739413  73.8274466  55.3859606  49.7373688
  74.3473465  55.0102893  51.1086660  76.0251997  61.1756158  48.9516678
  76.2368892  61.8187918  48.2751059  75.9781745  60.3418475  48.4838608
  73.6278226  53.7873979  45.8553250  72.7662705  54.0855232  46.1469988
  73.6540661  54.0044378  44.9234283  70.4439795  62.3316169  42.2627056
  70.9078141  62.6103872  41.4731679  70.1796593  61.4299614  42.0800147
  69.3808681  58.4539322  39.0716621  70.0832725  58.9060365  39.5390548
  69.0489310  57.8123141  39.6996514  77.1397825  64.0528114  47.1239036
  77.9615269  63.6508301  46.8421717  77.1360228  63.9496348  48.0755151
  70.9054428  63.6012157  49.2799746  70.9698861  64.0632564  50.1157918
  70.1965352  62.9709522  49.4082056  85.2303818  60.3966862  43.4724007
  84.4767526  59.8274260  43.3168012  85.3651359  60.3629527  44.4194642
  70.6202446  65.2680264  39.1478726  70.4848121  66.1131800  39.5763574
  71.1612258  65.4699542  38.3844660  67.1069786  51.3471844  55.8093082
  66.7136731  50.7938043  56.4840726  67.9235926  51.6582423  56.1999599
  70.0237747  52.7629723  53.4013338  70.7647460  53.3636877  53.3217801
  70.2555669  52.0207361  52.8431381  72.2470922  65.8903831  53.2779069
  71.8034777  65.1040210  52.9599973  72.9088136  66.0782981  52.6122959
  67.0058044  67.4199633  47.8039747  67.5565469  67.2916696  47.0316741
  66.1669519  67.7194522  47.4534640  74.3452160  66.1706631  51.3060470
  74.3270636  66.9915512  50.8140739  75.2672080  66.0460706  51.5310611
  70.8025215  63.6850760  52.1483978  71.3353551  62.9239049  51.9183286
  70.2739296  63.3924412  52.8908133  73.9694910  48.7910826  47.6777620
  73.6259179  49.6812468  47.6016731  74.3373872  48.6012484  46.8147205
  73.9345192  58.7819437  36.1850055  73.4191816  59.5524042  36.4238442
  73.6622501  58.1084574  36.8083117  71.5192303  53.6269138  41.2435293
  70.6633900  53.2375989  41.0640932  71.9319255  53.7061099  40.3835079
  73.0491450  51.1615481  45.6426853  72.5456246  51.1245617  44.8294658
  73.3422057  52.0708224  45.7023510  78.9079466  61.5351792  38.1203229
  78.1308909  61.1962952  37.6758391  79.5870947  61.5404415  37.4458194
  73.7231495  56.6546530  38.0109836  73.4181631  56.9692679  38.8619979
  74.6761938  56.7327949  38.0537169  72.1677927  62.8136753  39.6602790
  71.6399289  62.0789512  39.3476028  71.6665430  63.5911429  39.4142759
  77.1470773  61.0085773  44.7769837  76.4894448  61.6985035  44.8649965
  77.9511173  61.3982205  45.1203823  75.9576232  59.3630146  42.8273778
  76.4708114  59.9960138  43.3295488  76.6077456  58.7631342  42.4617138
  67.2266242  55.5060880  36.0405287  66.3903554  55.8435567  36.3614562
  67.0871012  55.3709860  35.1032424  70.3130527  60.6316963  32.6637763
  69.4057589  60.4006217  32.8628912  70.8101559  59.8354582  32.8511745
  73.2198606  69.3414470  35.5834449  72.5460305  69.6446167  36.1919407
  73.6064428  70.1443551  35.2339906  72.4357063  56.8379602  45.0732119
  71.5179624  57.0594549  44.9153807  72.8517207  56.9125912  44.2143826
  73.2192111  58.2371017  40.2034799  73.9663930  58.7492414  39.8941921
  73.4883700  57.9155070  41.0639193  71.4918761  60.7329558  37.1861753
  70.5829980  60.4488591  37.2834223  71.5213845  61.1528637  36.3265060
  76.7238028  64.3436147  40.9552921  76.2700355  63.5027057  41.0118111
  76.0931995  64.9797546  41.2927701  75.6670948  55.2728134  42.1853588
  74.9293705  54.7605520  42.5163831  75.9197721  54.8328515  41.3736865
  75.1670968  66.1812644  41.8902739  75.4593942  66.7417701  41.1715105
  75.6769588  66.4741205  42.6455898  75.7682575  48.0504386  42.7795358
  76.0741452  47.1901749  42.4921273  76.4935180  48.6422006  42.5794352
  71.1894849  62.2738302  34.5249832  70.7514279  61.5574161  34.0655469
  71.9305290  62.5014416  33.9634923  70.1304593  66.9592995  42.9796192
  70.0880772  67.1853842  42.0504724  71.0467292  66.7256370  43.1281993
  73.5770227  57.4277063  49.8776821  73.9319614  57.6548536  50.7371287
  74.2242358  57.7595440  49.2554077  79.3067963  60.5495499  40.5826150
  79.1685862  60.7397095  39.6547340  78.9504182  61.3114882  41.0394202
  79.3337343  62.6172026  45.5937422  79.7673850  62.5247315  46.4420476
  80.0468924  62.5929526  44.9557438  68.2470394  63.8356024  42.7758155
  69.0410992  63.3406344  42.5740730  67.5362086  63.3073887  42.4125861
  73.0665238  66.2174120  47.1270523  73.1202260  66.7865056  47.8948239
  72.1980019  66.3876005  46.7624560  80.1952893  62.6595726  48.1270307
  80.3888783  63.5641537  48.3729582  80.0953511  62.2003145  48.9608892
  71.8489203  52.5453617  50.6260635  71.2017118  53.2443567  50.5325111
  72.6190219  52.9789761  50.9936883  75.2568001  62.8102469  53.7011188
  75.1053508  62.5813021  52.7841272  75.2472681  63.7673071  53.7142533
  72.0253338  60.3834382  48.6857454  72.9545398  60.5345541  48.5126422
  71.6044368  60.4718403  47.8306101  70.8241670  64.4085046  46.4555992
  70.6852755  64.0403831  47.3281930  70.0356266  64.9232686  46.2839950
  71.4189821  69.5094143  37.7981529  71.5941577  69.0382186  38.6127151
  70.7322610  70.1359909  38.0262789  72.3746885  63.7866649  43.8444830
  72.0396717  63.7467419  44.7402480  71.8750830  63.1211365  43.3715240
  75.3106076  61.1322683  34.1181890  74.6935247  60.4069511  34.0214942
  74.8422565  61.8932044  33.7748964  68.9773429  58.9054238  48.8581091
  69.6873048  58.2647431  48.8167709  68.9342737  59.1567133  49.7807271
  76.9660208  65.8421592  51.7787670  76.9072754  65.1580812  51.1118253
  77.3679726  66.5840582  51.3268296  65.9850907  72.6583505  44.5721389
  66.2247505  73.2902030  45.2500407  65.1420103  72.3071546  44.8586748
  67.1004622  55.3508108  33.2403194  66.2234089  55.2296908  32.8765440
  67.5762375  54.5594186  32.9882082  76.9677615  63.8061176  50.0101650
  76.0804394  63.4687097  50.1328048  77.5376166  63.0744207  50.2470415
  70.4978769  68.4662628  46.9762893  70.4248940  69.2717599  47.4882197
  70.0556162  68.6654594  46.1510914  70.2868548  67.7034398  40.4865714
  69.5036070  68.2456078  40.5803939  70.9861293  68.2208378  40.8859955
  73.5965198  53.5129027  43.1299920  74.0933898  52.7598990  42.8100990
  72.8252180  53.5493344  42.5643129  81.4494956  59.2169393  44.7718211
  81.4384832  60.0994108  44.4012144  80.5812335  58.8640944  44.5772748
  72.9577452  68.3649462  49.1321051  73.6705424  68.9996927  49.0596953
  72.4667481  68.4613328  48.3161053  74.6794979  62.2700715  40.7038343
  73.7451258  62.3902177  40.5343047  74.8571648  61.3673181  40.4398353
  78.0667530  58.1118034  41.2388377  78.5327983  58.9446026  41.1648680
  78.5175031  57.6463015  41.9433636  68.0089366  66.1143905  49.9526622
  68.7098825  66.7480388  50.1056016  67.5384481  66.4558637  49.1922261
  76.1343762  64.4561855  38.2374529  76.4103605  64.3418450  39.1468403
  75.2648260  64.0579340  38.1986702  76.0384193  50.4798621  45.2779279
  75.1247273  50.7102848  45.4461485  76.4677295  50.5637065  46.1293311
  75.8090652  58.6688513  47.7779173  75.1562102  58.9164420  47.1231625
  76.1871032  57.8552651  47.4441650  72.7697826  68.7048206  41.8807343
  72.9520220  67.8869862  42.3435095  73.5930812  68.9215898  41.4432233
  73.1039991  67.6316391  39.1422391  73.6327757  67.1208846  38.5292553
  73.3668211  67.3158921  40.0067924  71.8578225  59.4108324  54.2645210
  71.1818862  59.3102453  54.9347585  72.6805859  59.2547538  54.7281207
  66.4595739  68.6831508  41.9020167  65.7906114  69.1677636  41.4184207
  66.3208609  68.9300728  42.8163546  70.6001008  70.7175251  48.5002826
  71.1519316  70.8806873  49.2651911  70.9407201  71.3079689  47.8282851
  75.4511882  65.5436509  54.3551480  75.9951786  66.1566467  53.8606435
  74.8698727  66.1016087  54.8718493  73.7369395  68.6657227  45.4866508
  73.6120534  67.8646967  44.9777453  74.3948486  69.1603420  44.9980478
  75.8004303  66.4666247  47.1146058  74.8534639  66.3471598  47.0424385
  76.1487076  65.5788745  47.1972319  72.8050737  66.2618963  43.3150410
  72.6575699  65.3335671  43.4957980  73.6304230  66.2839054  42.8307485
  76.4084858  67.0847522  44.4015283  77.3331406  66.8790383  44.2639734
  76.2400162  66.8363923  45.3104624  69.3656422  53.2974081  48.6233970
  69.0253242  52.4981894  49.0254650  68.6595428  53.5975792  48.0510804
  72.8012251  54.1156801  38.3082527  73.0175865  54.9981439  38.0071356
  72.3206318  53.7243014  37.5788169  71.2533986  54.4982402  46.9787289
  70.9951764  55.4199473  46.9771619  70.7219026  54.1012837  47.6687753
  76.1980175  67.6033189  39.7577374  76.3717052  67.0379612  39.0051227
  76.6909066  68.4034084  39.5756864  82.0519566  60.3669612  41.3767674
  82.4950712  59.6176938  40.9786797  81.1746076  60.3579749  40.9941406
  77.1855347  66.9199954  36.8574273  77.8806252  67.5406646  37.0761587
  77.5278497  66.0695305  37.1326651  79.0846770  64.3699659  38.3861603
  79.6098094  64.7086932  37.6610923  78.9969123  63.4346675  38.2024738
  70.7466819  68.2833733  50.5151480  71.0553945  68.0382880  51.3874180
  71.5442301  68.4880371  50.0270350  70.7687431  70.4371643  42.7456857
  70.3292421  69.9448021  43.4389713  71.5195548  69.8944610  42.5048932
  68.2161303  65.9809652  44.8179158  67.5941312  65.3180357  44.5181386
  68.8866170  66.0070784  44.1352806  78.7740676  65.0032563  53.6912801
  77.9836220  64.9856702  53.1517301  78.5374031  65.5420857  54.4461838
  78.8938551  61.8525029  51.0045530  78.9436556  61.6875037  51.9461053
  78.7852475  60.9852288  50.6143411  67.7774810  64.5313575  38.2937619
  67.9262930  65.2149039  37.6404292  68.5841253  64.5118665  38.8087075
  76.1842314  57.8355957  52.3204837  77.0852176  57.6962422  52.0288834
  76.2590288  58.0010412  53.2603014  70.5185119  55.2122812  51.1658023
  69.6488428  55.5056378  50.8940611  70.7544599  55.7963257  51.8865287
  80.3956748  64.2721971  51.2487551  80.1041556  64.6351951  52.0851012
  79.7828879  63.5588979  51.0700883  81.5952430  61.8374851  43.7690122
  82.4299322  62.2764655  43.9327682  81.7311559  61.3613504  42.9498367
  78.6443936  59.3954585  49.7167609  79.1198058  59.5882232  48.9086461
  77.7209502  59.4513771  49.4710993  73.2224153  51.4302429  48.6823443
  73.7406097  52.1663456  48.3569932  72.8679286  51.7366422  49.5170202
  73.4736747  47.8502712  44.2024340  73.7538501  47.1825901  44.8284766
  74.2587354  48.0431807  43.6899004  71.2770216  67.0261705  35.7649366
  70.7044183  67.6451893  35.3119838  71.8503009  67.5761067  36.2989288
  77.3445605  56.2720346  47.9495915  78.2963028  56.3718443  47.9708139
  77.1749056  55.4798614  48.4593999  75.3659985  53.3575929  48.1355316
  74.7709917  53.6380942  47.4401805  75.0809682  53.8469830  48.9072057
  74.4967475  67.3098856  36.8957948  75.4298148  67.2444417  37.0990824
  74.4090688  68.1455122  36.4372481  77.1255492  66.6264726  33.8561896
  77.0469123  66.2924590  34.7497654  77.9465159  67.1186494  33.8553368
  79.8233683  59.4926465  47.0638215  79.7910003  58.5542466  47.2497898
  80.4334307  59.5710502  46.3304040  71.6617014  58.3622518  33.1065419
  72.6076119  58.2328726  33.1753837  71.2831259  57.6237180  33.5834847
  79.9728172  56.2837509  47.1096498  79.4567220  55.4995965  46.9226427
  80.8568120  55.9556225  47.2743017  77.6338899  50.0278524  43.0692311
  77.4363720  49.7193612  43.9535642  78.2438604  50.7540163  43.1990240
  85.6410233  60.5542472  46.2044251  86.3713621  60.2927760  46.7651955
  85.0317178  59.8171194  46.2446319  83.7225530  58.6950335  46.8018703
  82.9958694  58.5606300  46.1935194  83.3072817  59.0027163  47.6075421
  71.5455707  62.4140264  54.5666076  72.4658716  62.5918863  54.7606122
  71.5105290  61.4696310  54.4145775  69.8459931  56.2872495  33.0420304
  68.9391387  55.9905607  33.1183018  70.1235912  55.9902313  32.1754590
  73.3912545  49.9087431  40.8188842  73.9443584  50.3282885  41.4778865
  73.6282632  48.9823179  40.8611798  69.4145644  55.8974505  56.5991606
  69.3142371  56.8468862  56.5303697  69.1967186  55.5692744  55.7267676
  68.6158716  53.1459430  33.1832283  69.4777880  53.4714328  33.4428100
  68.8009060  52.3590926  32.6705349  76.7691352  52.0187956  40.3267506
  76.1890021  52.6772760  39.9445559  76.5027285  51.1965301  39.9154924
  75.2194919  51.4193014  42.5288826  75.7194697  51.5309549  41.7203145
  75.8630527  51.1154067  43.1689635  69.2776914  59.3271644  55.4156667
  68.7943996  60.1272004  55.6220556  69.3637854  59.3379589  54.4624111
  75.5516230  54.1788047  39.3823854  74.6642085  54.4637697  39.1644049
  75.9670219  54.0181810  38.5351131  78.9030766  54.2034568  43.0978194
  79.6791157  54.6931020  43.3702810  78.1778901  54.6292622  43.5550063
  81.3403325  54.9162187  44.1552134  81.9347816  54.6757923  43.4445442
  81.4129909  54.1969317  44.7825671  63.5600481  68.7595798  44.4695299
  63.4254949  67.9996199  43.9033297  63.1432543  69.4836698  44.0024088
  74.6959444  63.9432721  33.4771874  75.3995294  64.1482724  34.0929530
  73.9722093  64.5109483  33.7420958  75.5257254  59.6942583  39.5974145
  75.4692455  60.1511134  38.7581777  76.0785596  58.9333267  39.4196987
  79.3362060  55.4832314  40.4224264  79.0798994  55.0828950  41.2532472
  78.7114928  56.1976108  40.2974403  83.6474398  58.2228388  42.9295555
  83.0873956  58.2921577  43.7027118  83.0417901  58.0469372  42.2095052
  66.7169607  69.6565115  44.6813742  66.6001991  70.6010547  44.5792432
  65.8962053  69.3538676  45.0699541  76.6046141  64.3815251  35.5270334
  77.4391745  63.9496449  35.3447809  76.4430484  64.2097264  36.4547229
  76.2592033  60.8847364  36.8926674  76.2040837  60.7191635  35.9515118
  75.6338089  61.5923397  37.0488863  73.5737941  63.1896276  56.2180237
  74.4429100  63.3636928  55.8566871  73.0944692  64.0090693  56.0955966
  67.7424121  70.3093377  47.8969670  68.6451367  70.3416987  48.2136165
  67.5161491  69.3793828  47.9116006  69.4977723  69.0624363  44.5579749
  68.5473354  69.0626225  44.4444121  69.8010209  68.3157098  44.0415783
  73.3840278  46.9798250  40.7257929  72.6172674  46.4256736  40.8714611
  73.7950983  47.0520118  41.5872081  85.2330416  74.8984902  45.6225511
  85.8708826  74.7791649  44.9188851  85.1151259  75.8465746  45.6813463
  82.0420123  74.8512330  45.5587036  81.7038634  74.7353394  44.6707571
  82.9109891  74.4503495  45.5388042  77.9006938  76.7047806  41.5483927
  77.3371803  76.6137743  40.7800215  77.7859333  75.8847711  42.0286419
  82.5239906  76.0047182  51.5173241  82.5128546  75.6099980  50.6453745
  82.6860545  75.2713254  52.1107013  75.4471370  78.1998998  44.3868147
  76.2392662  77.8589822  43.9714447  75.6868020  78.3093973  45.3070301
  77.4062124  77.4607911  37.2585526  78.1793000  76.9136898  37.1198402
  77.7587523  78.3252160  37.4699987  79.2447167  78.7884293  50.4652425
  78.9537033  79.6929924  50.3499092  79.8804151  78.8300821  51.1796495
  80.1703374  76.1661142  47.0553785  80.7666946  75.9417164  46.3410748
  80.2278345  75.4245887  47.6579233  79.7428402  73.6200577  34.8903976
  79.9953923  73.0982098  34.1287439  78.8052961  73.4566723  34.9930660
  84.7871685  72.6236356  42.6978719  85.5734774  72.2055779  42.3469136
  85.0510389  73.5282448  42.8660368  79.4624691  75.5228683  37.0928351
  79.3460949  74.8473586  37.7609435  79.5726951  75.0361057  36.2760504
  81.8056232  74.9838830  40.7975040  81.4414439  74.4569451  41.5087962
  82.6623348  74.5937299  40.6241526  87.7105532  66.2733163  48.0606306
  87.3788857  67.1428574  47.8367521  87.1151146  65.9569447  48.7400337
  81.4461719  70.0128730  35.7936389  81.6136121  70.8808966  36.1606860
  81.2558888  70.1756012  34.8697678  77.6549533  74.9259506  43.4938923
  76.7300030  74.7935720  43.7016615  77.9033946  75.7053725  43.9908866
  87.6034196  70.9928249  45.1399656  86.6951073  70.9243657  44.8458417
  87.5521791  71.4700194  45.9681482  81.4250939  72.4686387  36.7783056
  81.3050565  72.9143438  37.6168536  80.7303528  72.8171705  36.2196594
  75.0158344  74.5692779  44.3282713  75.1450725  74.8227258  45.2422124
  74.3355796  75.1620487  44.0087368  81.6775061  72.4117895  53.0834554
  80.9008395  72.9711815  53.0737418  82.3165624  72.8974678  53.6049424
  87.1236006  72.9407861  37.6063390  88.0353862  73.1735247  37.4311087
  86.6145653  73.5244905  37.0438468  79.9321434  75.2203348  52.6452521
  80.6736118  75.7588392  52.3687344  79.2258419  75.8469637  52.8024072
  85.4076773  77.3632488  51.2424682  85.8160129  76.9214899  50.4979315
  84.6854035  76.7885116  51.4958875  81.7607843  72.3005095  48.6158239
  82.6069039  72.7244509  48.7592888  81.7006481  71.6438720  49.3096802
  84.9107289  69.9609464  50.2739413  84.6668221  70.7151524  49.7373688
  85.1867219  70.3394811  51.1086660  84.4671980  69.1165897  45.8553250
  83.6056459  69.4147150  46.1469988  84.4934415  69.3336295  44.9234283
  81.2833550  77.6608087  42.2627056  81.7471895  77.9395790  41.4731679
  81.0190348  76.7591532  42.0800147  78.1757631  77.2079569  45.2006819
  78.7458988  77.6366837  44.5624304  78.7665743  76.9262153  45.8991005
  80.2202436  73.7831240  39.0716621  80.9226479  74.2352283  39.5390548
  79.8883064  73.1415058  39.6996514  78.6682797  72.3742996  53.4467831
  78.0381458  73.0559277  53.6803227  78.5618885  72.2626078  52.5020969
  73.9627770  72.0414792  44.3733755  73.1726824  72.2972321  43.8973865
  74.4539017  72.8563130  44.4785795  75.9142515  72.4059371  41.3317232
  75.1173678  72.5178066  41.8500727  75.6868107  72.7446024  40.4658122
  81.7448183  78.9304075  49.2799746  81.8092615  79.3924482  50.1157918
  81.0359107  78.3001440  49.4082056  72.2465473  72.2945283  46.8048746
  72.4973511  73.1792293  47.0706322  72.7825021  72.1149884  46.0323837
  77.9463540  66.6763762  55.8093082  77.5530486  66.1229961  56.4840726
  78.7629680  66.9874340  56.1999599  74.9125598  78.1147620  39.7206652
  75.4250118  78.9090870  39.8712216  75.5648311  77.4173911  39.6540253
  76.7220483  81.2313376  41.8029405  76.8987111  82.1531341  41.6150389
  77.5177316  80.9171796  42.2323785  80.8631501  68.0921641  53.4013338
  81.6041214  68.6928794  53.3217801  81.0949424  67.3499279  52.8431381
  76.0072839  73.2778008  51.6791568  75.8926354  72.3763266  51.9798667
  75.1517357  73.5241705  51.3276384  81.6418969  79.0142678  52.1483978
  82.1747306  78.2530966  51.9183286  81.1133050  78.7216330  52.8908133
  84.8088664  64.1202744  47.6777620  84.4652933  65.0104386  47.6016731
  85.1767627  63.9304402  46.8147205  72.8774515  76.4436274  40.4966222
  73.7149737  76.8533283  40.2799930  73.0552782  75.5035717  40.4666416
  84.7738947  74.1111355  36.1850055  84.2585570  74.8815960  36.4238442
  84.5016255  73.4376491  36.8083117  82.3586058  68.9561056  41.2435293
  81.5027654  68.5667906  41.0640932  82.7713010  69.0353017  40.3835079
  83.8885204  66.4907399  45.6426853  83.3850000  66.4537534  44.8294658
  84.1815811  67.4000142  45.7023510  80.1328090  66.5746129  44.6493035
  80.9981087  66.3788938  44.2898924  80.2005599  66.3456481  45.5762392
  84.5625250  71.9838447  38.0109836  84.2575385  72.2984596  38.8619979
  85.5155692  72.0619867  38.0537169  83.0071682  78.1428671  39.6602790
  82.4793043  77.4081430  39.3476028  82.5059184  78.9203347  39.4142759
  77.7390409  68.8048337  42.0209402  78.3134161  68.5823518  41.2882595
  78.3261392  68.8737031  42.7738003  86.7969987  74.6922064  42.8273778
  87.3101868  75.3252056  43.3295488  87.4471210  74.0923259  42.4617138
  78.0659996  70.8352798  36.0405287  77.2297309  71.1727484  36.3614562
  77.9264766  70.7001778  35.1032424  80.0413077  65.6789586  40.7484471
  79.3877489  65.3638603  40.1241086  79.9993551  65.0565326  41.4744294
  81.1524282  75.9608881  32.6637763  80.2451344  75.7298134  32.8628912
  81.6495314  75.1646500  32.8511745  83.2750817  72.1671519  45.0732119
  82.3573379  72.3886466  44.9153807  83.6910961  72.2417830  44.2143826
  84.0585865  73.5662935  40.2034799  84.8057684  74.0784332  39.8941921
  84.3277455  73.2446988  41.0639193  82.3312515  76.0621476  37.1861753
  81.4223735  75.7780508  37.2834223  82.3607599  76.4820554  36.3265060
  86.5064702  70.6020051  42.1853588  85.7687459  70.0897437  42.5163831
  86.7591476  70.1620433  41.3736865  86.6076330  63.3796303  42.7795358
  86.9135206  62.5193667  42.4921273  87.3328934  63.9713923  42.5794352
  72.9000686  73.7826990  41.1676956  72.7025086  73.1896350  40.4428022
  72.3447350  73.4779200  41.8852894  80.8797409  73.6750096  43.2871549
  80.9346019  72.7223933  43.2114025  80.0688611  73.8309535  43.7712847
  82.0288603  77.6030219  34.5249832  81.5908033  76.8866078  34.0655469
  82.7699044  77.8306334  33.9634923  78.8189769  72.2927156  41.0461928
  78.0057635  72.5921327  41.4527120  79.3148764  71.8982845  41.7636410
  84.4163981  72.7568980  49.8776821  84.7713369  72.9840454  50.7371287
  85.0636112  73.0887357  49.2554077  78.3103844  69.8645512  46.6623163
  78.9503223  69.7234271  45.9646126  77.4781375  69.5780025  46.2861765
  79.0864148  79.1647942  42.7758155  79.8804747  78.6698262  42.5740730
  78.3755840  78.6365805  42.4125861  75.3946911  73.3091024  38.8517908
  74.4644500  73.2475479  39.0687870  75.4904383  72.7866976  38.0554549
  75.3132461  69.8345837  41.4396149  75.5739278  70.7491170  41.3305310
  76.1349633  69.3670279  41.5892762  76.7857386  71.2483594  48.6094974
  77.4580439  71.0400956  47.9607623  75.9587172  71.0505680  48.1700206
  82.6882958  67.8745535  50.6260635  82.0410873  68.5735484  50.5325111
  83.4583973  68.3081679  50.9936883  82.8647092  75.7126300  48.6857454
  83.7939152  75.8637459  48.5126422  82.4438122  75.8010320  47.8306101
  81.6635424  79.7376964  46.4555992  81.5246510  79.3695748  47.3281930
  80.8750020  80.2524603  46.2839950  77.1884883  74.5226197  49.3697411
  77.0504681  73.7906435  49.9708950  78.0989807  74.4335097  49.0881599
  86.1499831  76.4614601  34.1181890  85.5329001  75.7361429  34.0214942
  85.6816319  77.2223961  33.7748964  79.8167184  74.2346156  48.8581091
  80.5266802  73.5939348  48.8167709  79.7736492  74.4859051  49.7807271
  78.5296118  71.2211374  50.6776730  77.9933475  70.7702112  51.3298326
  77.9412826  71.3557283  49.9347194  77.9398377  70.6800025  33.2403194
  77.0627843  70.5588826  32.8765440  78.4156130  69.8886104  32.9882082
  69.4600517  75.4677185  43.3344701  70.1471557  75.1538915  42.7465716
  69.3048646  76.3718550  43.0611952  74.2635239  70.3567382  47.7629725
  74.1793428  69.7493051  47.0280135  73.4417945  70.8476400  47.7639221
  84.4358953  68.8420945  43.1299920  84.9327652  68.0890907  42.8100990
  83.6645934  68.8785262  42.5643129  81.0193922  70.9838328  42.8571604
  80.6491709  70.4309368  43.5452510  81.5153014  70.3796462  42.3046604
  86.8777948  65.8090539  45.2779279  85.9641027  66.0394765  45.4461485
  87.3071049  65.8928983  46.1293311  86.6484406  73.9980431  47.7779173
  85.9955856  74.2456338  47.1231625  87.0264786  73.1844569  47.4441650
  82.6971979  74.7400242  54.2645210  82.0212616  74.6394371  54.9347585
  83.5199613  74.5839455  54.7281207  74.4450838  80.9772178  46.8857725
  75.0304275  80.2315866  47.0185629  74.2475677  81.2876135  47.7694389
  69.0368493  73.5477778  45.6062168  69.0752592  73.0141369  46.3999286
  68.5308786  73.0212984  44.9873145  76.4159255  68.3942319  49.1024710
  76.4800582  69.2557150  48.6902108  76.3526376  67.7816321  48.3697069
  75.8911528  70.4665451  52.7497745  76.5183567  70.0842529  53.3635269
  75.0339447  70.2479653  53.1153437  72.6677071  72.2741881  38.6816099
  72.9630512  71.3652559  38.6283153  71.7665106  72.2529620  38.3597102
  76.1971318  70.3497877  44.6643648  75.4757903  70.9633845  44.5251121
  76.9864573  70.8855642  44.5860294  78.9997631  67.6852304  50.9384300
  79.5232033  67.9314600  51.7010609  78.7809964  68.5172338  50.5187437
  74.3964912  69.9555978  38.8055425  74.0677618  69.0753357  38.6230531
  74.7504283  69.9003647  39.6931814  77.5106735  70.2428948  39.1730902
  77.8502808  70.7714869  38.4509511  77.9578856  70.5809354  39.9489469
  80.2050176  68.6265999  48.6233970  79.8646996  67.8273812  49.0254650
  79.4989182  68.9267710  48.0510804  80.8566648  65.7115311  47.0761293
  81.6792717  65.2375789  46.9540184  81.1004711  66.4905795  47.5759980
  79.4974882  68.7403570  37.3724195  80.2183245  69.1184822  36.8687912
  78.8740187  69.4592446  37.4759173  83.6406005  69.4448719  38.3082527
  83.8569620  70.3273356  38.0071356  83.1600072  69.0534932  37.5788169
  78.3805227  72.4034432  44.8853272  78.2349807  72.7174735  45.7777553
  77.9030430  73.0219332  44.3324171  80.2401610  69.3936980  44.9334162
  80.2263178  68.4978073  44.5966459  80.9574038  69.4007643  45.5672448
  82.0927740  69.8274320  46.9787289  81.8345518  70.7491391  46.9771619
  81.5612781  69.4304754  47.6687753  72.8550889  74.9439776  47.8240933
  72.3104357  75.7199584  47.9561207  73.7330239  75.2910581  47.6660055
  79.6438506  68.2751360  40.2021732  79.7654417  67.3468006  40.4012619
  79.3540548  68.2890046  39.2900047  82.5129696  65.9606270  43.3388452
  82.5351393  66.0245604  42.3840431  82.9297755  65.1210779  43.5328958
  73.6416911  74.0709672  50.7171090  72.8998647  74.2192308  51.3035720
  73.3209655  74.3317938  49.8537839  74.0873524  81.9575101  42.7481485
  74.9131544  81.6578873  42.3680128  73.7367576  81.1882724  43.1971273
  79.0555058  81.3101569  44.8179158  78.4335067  80.6472274  44.5181386
  79.7259924  81.3362701  44.1352806  72.2882129  79.8761428  43.7070418
  71.4514038  79.4483602  43.5254419  72.2605775  80.0693871  44.6441209
  79.1279585  69.7883357  54.4111664  79.1767741  70.6645480  54.0289434
  79.6702099  69.2460750  53.8383307  78.6168564  79.8605493  38.2937619
  78.7656685  80.5440957  37.6404292  79.4235008  79.8410583  38.8087075
  87.0236068  73.1647875  52.3204837  87.9245931  73.0254340  52.0288834
  87.0984043  73.3302330  53.2603014  81.3578873  70.5414730  51.1658023
  80.4882183  70.8348296  50.8940611  81.5938354  71.1255175  51.8865287
  76.3721197  75.8870670  39.2998688  76.1267239  74.9833000  39.4978898
  76.5417112  75.8887821  38.3578166  84.0617907  66.7594347  48.6823443
  84.5799851  67.4955374  48.3569932  83.7073040  67.0658340  49.5170202
  75.6416845  71.6199028  36.7984849  74.9486090  71.6943383  36.1424885
  75.3968597  70.8559372  37.3206366  84.3130501  63.1794629  44.2024340
  84.5932255  62.5117818  44.8284766  85.0981108  63.3723725  43.6899004
  86.2053739  68.6867846  48.1355316  85.6103671  68.9672859  47.4401805
  85.9203436  69.1761747  48.9072057  82.5010768  73.6914436  33.1065419
  83.4469873  73.5620644  33.1753837  82.1225013  72.9529098  33.5834847
  82.3849461  77.7432182  54.5666076  83.3052470  77.9210781  54.7606122
  82.3499044  76.7988227  54.4145775  80.6853686  71.6164412  33.0420304
  79.7785141  71.3197525  33.1183018  80.9629667  71.3194230  32.1754590
  71.6031626  72.9370776  43.4919350  71.2834410  72.0836084  43.1993724
  71.0565054  73.1519354  44.2477318  75.3811534  75.6533217  47.2088857
  75.5997543  76.5850325  47.2276891  75.7937307  75.2941191  47.9943661
  82.3015751  66.1601302  39.1964545  81.4916480  65.8148387  39.5719791
  82.9900168  65.8508846  39.7852157  84.2306300  65.2379349  40.8188842
  84.7837338  65.6574802  41.4778865  84.4676386  64.3115097  40.8611798
  80.2539399  71.2266422  56.5991606  80.1536126  72.1760779  56.5303697
  80.0360941  70.8984661  55.7267676  79.4552470  68.4751348  33.1832283
  80.3171634  68.8006246  33.4428100  79.6402814  67.6882843  32.6705349
  71.4719886  76.5573687  45.4612472  70.7783357  76.1427640  44.9482426
  72.2192877  76.5994224  44.8645891  87.6085107  67.3479874  40.3267506
  87.0283776  68.0064678  39.9445559  87.3421039  66.5257219  39.9154924
  86.0588673  66.7484932  42.5288826  86.5588451  66.8601466  41.7203145
  86.7024281  66.4445985  43.1689635  80.1170669  74.6563561  55.4156667
  79.6337751  75.4563921  55.6220556  80.2031608  74.6671506  54.4624111
  73.3856629  76.4891941  43.3378487  73.3627317  76.5879628  42.3860370
  73.6957265  77.3357092  43.6595653  76.0444006  78.5468096  47.4525101
  76.9987260  78.5152038  47.3855033  75.8456530  78.0858720  48.2675327
  76.6343389  77.1169212  50.0195899  77.4536278  77.6113291  50.0430736
  76.9080196  76.2001180  49.9913466  86.3909985  69.5079964  39.3823854
  85.5035840  69.7929615  39.1644049  86.8063974  69.3473728  38.5351131
  74.3994235  84.0887716  44.4695299  74.2648703  83.3288116  43.9033297
  73.9826297  84.8128615  44.0024088  86.3651009  75.0234500  39.5974145
  86.3086210  75.4803052  38.7581777  86.9179351  74.2625185  39.4196987
  71.8878303  71.4507346  50.7188096  72.5337166  70.9406300  51.2075321
  71.6795454  72.1876028  51.2931521  80.4081913  65.7147391  36.4711992
  80.3960583  66.6589230  36.6280263  81.3005335  65.5317536  36.1771453
  84.2234033  62.3090167  40.7257929  83.4566429  61.7548654  40.8714611
  84.6344738  62.3812036  41.5872081  76.2275794  68.5974963  54.8163110
  77.0907255  68.2411768  55.0266435  75.6541204  68.2588858  55.5038514
  35.8282815   0.9284481  27.1518493  35.7506845   1.8792306  27.2306974
  35.2244458   0.5830354  27.8093420  38.1021184  -3.7133366  25.8724033
  37.9666859  -2.8681830  26.3008881  38.6430996  -3.5114088  25.1089967
  33.3645466  -3.0792172  28.5274711  33.5412094  -2.1574207  28.3395695
  34.1602299  -3.3933752  28.9569091  39.7289660  -3.0909799  40.0024375
  39.2853514  -3.8773421  39.6845280  40.3906874  -2.9030649  39.3368266
  34.4876781  -1.5613998  34.5285054  35.0384206  -1.6896935  33.7562048
  33.6488257  -1.2619109  34.1779947  40.7017344   0.3600840  22.3079756
  40.0279043   0.6632537  22.9164714  41.0883166   1.1629920  21.9585213
  42.6489705  -2.8000986  28.6148046  42.9412680  -2.2395929  27.8960411
  43.1588326  -2.5072425  29.3701205  37.6123331  -2.0220635  29.7041499
  37.5699509  -1.7959789  28.7750031  38.5286029  -2.2557261  29.8527300
  40.5483976  -2.7639511  33.8515829  40.6020998  -2.1948574  34.6193545
  39.6798757  -2.5937626  33.4869866  38.9008559   0.5280512  24.5226835
  39.0760315   0.0568555  25.3372458  38.2141347   1.1546278  24.7508096
  33.4669645   3.6769875  31.2966695  33.7066243   4.3088399  31.9745714
  32.6238841   3.3257915  31.5832055  37.9797506  -0.5151003  33.7008199
  37.9067678   0.2903969  34.2127504  37.5374900  -0.3159037  32.8756221
  37.7687286  -1.2779232  27.2111021  36.9854808  -0.7357552  27.3049245
  38.4680031  -0.7605253  27.6105262  40.4396190  -0.6164168  35.8566358
  41.1524162   0.0183296  35.7842260  39.9486219  -0.5200302  35.0406360
  35.4908103  -2.8669725  36.6771929  36.1917563  -2.2333242  36.8301323
  35.0203218  -2.5254993  35.9167568  40.2516563  -0.2765424  28.6052650
  40.4338958  -1.0943768  29.0680402  41.0749549  -0.0597732  28.1677540
  40.5858729  -1.3497239  25.8667698  41.1146495  -1.8604785  25.2537860
  40.8486948  -1.6654709  26.7313231  31.0875822  -3.3333370  33.6103032
  31.6729258  -4.0789682  33.7430936  30.8900660  -3.0229413  34.4939695
  33.9414477  -0.2982123  28.6265474  33.2724852   0.1864005  28.1429514
  33.8027346  -0.0512902  29.5408852  38.0819745   1.7361621  35.2248132
  38.6338053   1.8993242  35.9897218  38.4225939   2.3266059  34.5528157
  41.2188133  -0.3156404  32.2111814  41.0939272  -1.1166664  31.7022760
  41.8767224   0.1789790  31.7225784  40.2869474  -2.7194667  30.0395717
  40.1394437  -3.6477960  30.2203287  41.1122968  -2.6974577  29.5552792
  43.8903596  -1.8966108  31.1260590  44.8150144  -2.1023247  30.9885041
  43.7218900  -2.1449707  32.0349931  43.6798912  -1.3780441  26.4822681
  43.8535790  -1.9434019  25.7296533  44.1727804  -0.5779546  26.3002171
  38.2285557  -0.6979897  37.2396787  38.5372683  -0.9430751  38.1119486
  39.0261039  -0.4933259  36.7515657  38.2506169   1.4558012  29.4702163
  37.8111159   0.9634391  30.1635020  39.0014286   0.9130980  29.2294238
  30.7298508  -2.3530447  29.4726791  31.5556528  -2.6526675  29.0925435
  30.3792560  -3.1222825  29.9216580  35.6980041  -3.0003979  31.5424465
  35.0760050  -3.6633274  31.2426693  36.3684908  -2.9742847  30.8598113
  28.9307113  -4.4344121  30.4315725  28.0939021  -4.8621946  30.2499726
  28.9030758  -4.2411677  31.3686516  35.2593548  -4.4500055  25.0182925
  35.4081668  -3.7664591  24.3649598  36.0659991  -4.4694965  25.5332381
  38.7588953  -1.9551925  22.4894673  38.1862920  -1.3361738  22.0365145
  39.3321747  -1.4052563  23.0234595  41.9786213  -1.6714775  23.6203255
  42.9116886  -1.7369213  23.8236131  41.8909426  -0.8358508  23.1617788
  32.6868990  -5.7637452  34.1770408  33.6412243  -5.7953510  34.1100339
  32.4881513  -6.2246828  34.9920634  31.0419219  -0.2217833  31.1940606
  30.9073686  -0.9817432  30.6278604  30.6251281   0.5023067  30.7269395
  34.1988344   0.6751484  31.4059048  34.0820729   1.6196917  31.3037739
  33.3780791   0.3725046  31.7944848  35.2242859   1.3279746  34.6214977
  36.1270105   1.3603357  34.9381472  34.9980229   0.3980197  34.6361313
  36.9796461   0.0810733  31.2825055  36.0292092   0.0812594  31.1689428
  37.2828947  -0.6656533  30.7661090  52.7149154   5.9171271  32.3470818
  53.3527564   5.7978019  31.6434158  52.5969997   6.8652115  32.4058770
  49.5238860   5.8698699  32.2832343  49.1857372   5.7539764  31.3952877
  50.3928629   5.4689864  32.2633349  45.3825676   7.7234176  28.2729233
  44.8190541   7.6324113  27.5045521  45.2678071   6.9034080  28.7531726
  50.0058643   7.0233551  38.2418548  49.9947284   6.6286349  37.3699052
  50.1679283   6.2899624  38.8352320  42.9290108   9.2185367  31.1113454
  43.7211400   8.8776192  30.6959753  43.1686758   9.3280342  32.0315607
  50.9625235  11.3905143  23.5843698  50.3113214  11.9759224  23.1977712
  51.7569598  11.9211338  23.6438736  44.8880862   8.4794281  23.9830833
  45.6611738   7.9323268  23.8443709  45.2406261   9.3438530  24.1945294
  46.7265904   9.8070663  37.1897732  46.4355770  10.7116294  37.0744398
  47.3622889   9.8487190  37.9041802  47.6522111   7.1847511  33.7799092
  48.2485684   6.9603534  33.0656055  47.7097083   6.4432257  34.3824540
  47.2247140   4.6386947  21.6149283  47.4772660   4.1168468  20.8532746
  46.2871699   4.4753092  21.7175966  52.2690423   3.6422725  29.4224026
  53.0553512   3.2242148  29.0714443  52.5329127   4.5468817  29.5905674
  52.4400500   9.0795575  24.1212683  51.8046333   9.1530202  24.8333587
  52.1097906   9.6689174  23.4431762  57.6698850   3.5797958  30.3257004
  58.4024022   3.0097175  30.5594834  56.9138205   3.1919559  30.7663510
  46.9443428   6.5415053  23.8173658  46.8279687   5.8659956  24.4854742
  47.0545688   6.0547427  23.0005811  49.2874969   6.0025200  27.5220347
  48.9233177   5.4755821  28.2333268  50.1442085   5.6123669  27.3486832
  48.9280456   1.0315099  22.5181695  49.0954859   1.8995336  22.8852166
  48.7377625   1.1942381  21.5942985  51.6855790   9.4932078  34.1847526
  51.3856513  10.3957117  34.0763333  51.3406849   9.2264262  35.0368679
  45.1368271   5.9445875  30.2184230  44.2118767   5.8122089  30.4261922
  45.3852684   6.7240094  30.7154173  55.0852933   2.0114619  31.8644963
  54.1769811   1.9430027  31.5703724  55.0340529   2.4886564  32.6926789
  48.9069677   3.4872757  23.5028362  48.7869302   3.9329808  24.3413842
  48.2122266   3.8358075  22.9441900  42.4977082   5.5879149  31.0528019
  42.6269463   5.8413628  31.9667431  41.8174533   6.1806857  30.7332674
  46.6676569  16.2576399  27.1518493  46.5900599  17.2084224  27.2306974
  46.0638213  15.9122271  27.8093420  49.1593799   3.4304264  39.8079860
  48.3827133   3.9898184  39.7982725  49.7984362   3.9161047  40.3294730
  54.6054743   3.9594230  24.3308696  55.5172599   4.1921617  24.1556394
  54.0964390   4.5431274  23.7683775  47.4140171   6.2389718  39.3697827
  48.1554856   6.7774761  39.0932651  46.7077157   6.8656006  39.5269379
  52.8895511   8.3818858  37.9669989  53.2978867   7.9401269  37.2224621
  52.1672773   7.8071486  38.2204182  49.2426581   3.3191465  35.3403546
  50.0887776   3.7430878  35.4838195  49.1825219   2.6625089  36.0342109
  53.2124326   8.9420049  31.7222278  52.5833188   9.1065763  31.0198346
  52.8249988   9.3561658  32.4933242  57.0913558   9.8774486  29.0766641
  56.4064596  10.2573388  28.5263675  57.1757407  10.4869813  29.8098589
  52.3926026   0.9795833  36.9984719  52.1486958   1.7337894  36.4618995
  52.6685957   1.3581181  37.8331966  54.3464489   7.5234445  35.6761985
  54.5581384   8.1666205  34.9996366  54.2994237   6.6896762  35.2083915
  48.7652288   8.6794457  28.9872363  49.2290633   8.9582160  28.1976985
  48.5009086   7.7777901  28.8045453  45.6576369   8.2265938  31.9252126
  46.2277726   8.6553207  31.2869611  46.2484480   7.9448523  32.6236312
  47.7021174   4.8017609  25.7961928  48.4045217   5.2538653  26.2635854
  47.3701802   4.1601428  26.4241821  46.1501535   3.3929366  40.1713137
  45.5200196   4.0745647  40.4048534  46.0437623   3.2812447  39.2266276
  41.4446508   3.0601162  31.0979061  40.6545562   3.3158690  30.6219172
  41.9357755   3.8749500  31.2031102  55.4610317  10.4006401  33.8484342
  56.2827761   9.9986588  33.5667024  55.4572720  10.2974635  34.8000458
  43.3961253   3.4245741  28.0562538  42.5992416   3.5364435  28.5746034
  43.1686845   3.7632393  27.1903429  49.2266921   9.9490444  36.0045053
  49.2911353  10.4110851  36.8403225  48.5177844   9.3187809  36.1327363
  39.7284211   3.3131652  33.5294052  39.9792249   4.1978662  33.7951628
  40.2643759   3.1336254  32.7569144  63.5516310   6.7445149  30.1969314
  62.7980019   6.1752547  30.0413318  63.6863851   6.7107814  31.1439948
  48.9414938  11.6158552  25.8724033  48.8060613  12.4610087  26.3008881
  49.4824751  11.8177829  25.1089967  42.3944336   9.1333990  26.4451958
  42.9068856   9.9277240  26.5957523  43.0467048   8.4360280  26.3785560
  44.2039220  12.2499746  28.5274711  44.3805849  13.1717711  28.3395695
  44.9996054  11.9358165  28.9569091  43.4891577   4.2964378  38.4036875
  43.3745092   3.3949635  38.7043974  42.6336095   4.5428075  38.0521691
  50.5683415  12.2382118  40.0024375  50.1247269  11.4518497  39.6845280
  51.2300628  12.4261269  39.3368266  45.3270536  13.7677920  34.5285054
  45.8777961  13.6394983  33.7562048  44.4882012  14.0672809  34.1779947
  52.6664653  12.5184918  38.0305776  52.6483128  13.3393799  37.5386046
  53.5884573  12.3938993  38.2555918  49.1237707  10.0329048  38.8729285
  49.6566044   9.2717336  38.6428593  48.5951788   9.7402699  39.6153439
  40.3593252   7.4622644  27.2211529  41.1968474   7.8719652  27.0045236
  40.5371520   6.5222086  27.1911723  52.2557685   5.1297725  22.9095362
  51.7404308   5.9002329  23.1483749  51.9834993   4.4562861  23.5328423
  49.8404796  -0.0252575  27.9680600  48.9846392  -0.4145724  27.7886239
  50.2531747   0.0539386  27.1080386  57.2291959   7.8830079  24.8448535
  56.4521401   7.5441239  24.4003697  57.9083440   7.8882702  24.1703500
  52.0443988   3.0024817  24.7355143  51.7394123   3.3170966  25.5865286
  52.9974430   3.0806237  24.7782476  50.4890420   9.1615040  26.3848097
  49.9611781   8.4267800  26.0721334  49.9877922   9.9389716  26.1388065
  55.4683266   7.3564061  31.5015143  54.8106940   8.0463322  31.5895272
  56.2723665   7.7460493  31.8449130  45.2209147  -0.1765294  28.7454708
  45.7952899  -0.3990112  28.0127901  45.8080130  -0.1076599  29.4983310
  54.2788724   5.7108433  29.5519085  54.7920606   6.3438425  30.0540795
  54.9289948   5.1109629  29.1862445  45.5478734   1.8539167  22.7650594
  44.7116047   2.1913854  23.0859868  45.4083504   1.7188147  21.8277731
  48.6343020   6.9795250  19.3883070  47.7270081   6.7484504  19.5874219
  49.1314052   6.1832870  19.5757051  51.5411099  15.6892758  22.3079756
  50.8672797  15.9924454  22.9164714  51.9276921  16.4921838  21.9585213
  50.7569555   3.1857889  31.7977425  49.8392117   3.4072836  31.6399114
  51.1729699   3.2604199  30.9389133  51.5404603   4.5849305  26.9280106
  52.2876422   5.0970702  26.6187228  51.8096193   4.2633357  27.7884499
  49.8131253   7.0807845  23.9107060  48.9042472   6.7966878  24.0079530
  49.8426337   7.5006924  23.0510367  55.0450521  10.6914435  27.6798228
  54.5912848   9.8505345  27.7363418  54.4144487  11.3275833  28.0173008
  53.4883460  12.5290931  28.6148046  53.7806434  13.0895989  27.8960411
  53.9982080  12.8219492  29.3701205  40.3819424   4.8013359  27.8922262
  40.1843823   4.2082720  27.1673329  39.8266088   4.4965570  28.6098201
  48.3616147   4.6936466  30.0116855  48.4164757   3.7410302  29.9359332
  47.5507349   4.8495905  30.4958154  49.5107341   8.6216589  21.2495139
  49.0726771   7.9052448  20.7900776  50.2517782   8.8492704  20.6880230
  46.3008507   3.3113526  27.7707234  45.4876373   3.6107696  28.1772426
  46.7967501   2.9169214  28.4881716  48.4517085  13.3071283  29.7041499
  48.4093264  13.5332129  28.7750031  49.3679784  13.0734657  29.8527300
  51.8982719   3.7755350  36.6022128  52.2532107   4.0026823  37.4616594
  52.5454850   4.1073727  35.9799383  57.6280456   6.8973786  27.3071457
  57.4898354   7.0875382  26.3792646  57.2716675   7.6593169  27.7639508
  45.7922582   0.8831881  33.3868469  46.4321961   0.7420640  32.6891432
  44.9600112   0.5966394  33.0107071  57.6549835   8.9650313  32.3182729
  58.0886342   8.8725602  33.1665783  58.3681416   8.9407813  31.6802745
  46.5682886  10.1834312  29.5003462  47.3623484   9.6884632  29.2986037
  45.8574578   9.6552175  29.1371167  51.3877730  12.5652407  33.8515829
  51.4414753  13.1343343  34.6193545  50.5192512  12.7354292  33.4869866
  42.8765649   4.3277393  25.5763214  41.9463237   4.2661849  25.7933176
  42.9723121   3.8053346  24.7799856  42.7951198   0.8532206  28.1641456
  43.0558016   1.7677539  28.0550616  43.6168371   0.3856649  28.3138069
  44.2676124   2.2669963  35.3340280  44.9399177   2.0587325  34.6852929
  43.4405910   2.0692049  34.8945513  58.5165385   9.0074014  34.8515614
  58.7101275   9.9119824  35.0974889  58.4166003   8.5481433  35.6854199
  53.5780494   9.1580756  40.4256495  53.4266000   8.9291308  39.5086578
  53.5685173  10.1151358  40.4387840  50.3465830   6.7312669  35.4102761
  51.2757890   6.8823829  35.2371728  49.9256860   6.8196690  34.5551408
  49.1454162  10.7563334  33.1801299  49.0065247  10.3882118  34.0527237
  48.3568758  11.2710973  33.0085257  49.7402314  15.8572430  24.5226835
  49.9154069  15.3860473  25.3372458  49.0535102  16.4838196  24.7508096
  50.6959377  10.1344936  30.5690137  50.3609210  10.0945706  31.4647786
  50.1963323   9.4689652  30.0960547  44.6703621   5.5412566  36.0942718
  44.5323419   4.8092805  36.6954257  45.5808544   5.4521466  35.8126905
  53.6318569   7.4800971  20.8427196  53.0147739   6.7547799  20.7460249
  53.1635057   8.2410331  20.4994270  47.2985922   5.2532526  35.5826397
  48.0085540   4.6125718  35.5413016  47.2555230   5.5045420  36.5052578
  55.2872700  12.1899879  38.5032977  55.2285246  11.5059099  37.8363560
  55.6892219  12.9318869  38.0513603  46.0114856   2.2397743  37.4022037
  45.4752213   1.7888482  38.0543633  45.4231564   2.3743652  36.6592501
  44.3063399  19.0061793  31.2966695  44.5459997  19.6380317  31.9745714
  43.4632596  18.6549833  31.5832055  45.4217115   1.6986395  19.9648500
  44.5446581   1.5775196  19.6010747  45.8974868   0.9072473  19.7127389
  55.2890108  10.1539463  36.7346956  54.4016886   9.8165385  36.8573355
  55.8588659   9.4222494  36.9715722  36.9419255   6.4863555  30.0590008
  37.6290294   6.1725285  29.4711023  36.7867383   7.3904919  29.7857259
  41.7453977   1.3753751  34.4875031  41.6612166   0.7679421  33.7525441
  40.9236683   1.8662769  34.4884528  48.8191261  14.8140915  33.7008199
  48.7461432  15.6195887  34.2127504  48.3768654  15.0132881  32.8756221
  48.6081041  14.0512685  27.2111021  47.8248562  14.5934365  27.3049245
  49.3073786  14.5686665  27.6105262  59.7707448   5.5647680  31.4963518
  59.7597324   6.4472396  31.1257451  58.9024827   5.2119231  31.3018055
  51.2789944  14.7127749  35.8566358  51.9917917  15.3475214  35.7842260
  50.7879973  14.8091615  35.0406360  53.0007471   8.6179002  27.4283650
  52.0663750   8.7380464  27.2588354  53.1784140   7.7151469  27.1643660
  48.5012659   2.0024698  29.5816911  48.1310447   1.4495738  30.2697817
  48.9971752   1.3982831  29.0291911  56.3880023   4.4596321  27.9633684
  56.8540475   5.2924313  27.8893987  56.8387523   3.9941303  28.6678942
  46.3301858  12.4622193  36.6771929  47.0311317  13.0958676  36.8301323
  45.8596973  12.8036924  35.9167568  54.4556254  10.8040142  24.9619836
  54.7316098  10.6896737  25.8713710  53.5860753  10.4057627  24.9232009
  54.1303144   5.0166800  34.5024479  53.4774594   5.2642708  33.8476932
  54.5083524   4.2030938  34.1686957  51.0910318  15.0526493  28.6052650
  51.2732712  14.2348149  29.0680402  51.9143304  15.2694186  28.1677540
  51.4252483  13.9794678  25.8667698  51.9540250  13.4687133  25.2537860
  51.6880703  13.6637209  26.7313231  50.1790717   5.7586611  40.9890516
  49.5031354   5.6580741  41.6592892  51.0018351   5.6025825  41.4526514
  41.9269576  11.9958548  33.6103032  42.5123013  11.2502236  33.7430936
  41.7294414  12.3062504  34.4939695  44.7808231  15.0309795  28.6265474
  44.1118607  15.5155923  28.1429514  44.6421101  15.2779016  29.5408852
  36.5187231   4.5664148  32.3307475  36.5571330   4.0327739  33.1244593
  36.0127524   4.0399353  31.7118452  48.9213500  17.0653539  35.2248132
  49.4731808  17.2285160  35.9897218  49.2619693  17.6557976  34.5528157
  43.8977993  -0.5871312  35.8270017  43.9619320   0.2743519  35.4147415
  43.8345113  -1.1997310  35.0942376  43.3730266   1.4851821  39.4743051
  44.0002304   1.1028898  40.0880576  42.5158184   1.2666023  39.8398744
  53.7724374  11.8914796  41.0796787  54.3164278  12.5044754  40.5851742
  53.1911219  12.4494375  41.5963800  40.1495808   3.2928250  25.4061406
  40.4449249   2.3838928  25.3528460  39.2483844   3.2715990  25.0842408
  52.0581887  15.0135514  32.2111814  51.9333027  14.2125254  31.7022760
  52.7160978  15.5081708  31.7225784  43.6790055   1.3684247  31.3888955
  42.9576641   1.9820214  31.2496428  44.4683311   1.9042011  31.3105601
  54.1216795  12.8144534  33.8391365  53.1747131  12.6949885  33.7669691
  54.4699569  11.9267032  33.9217626  46.4816369  -1.2961327  37.6629606
  47.0050771  -1.0499030  38.4255916  46.2628702  -0.4641292  37.2432744
  41.8783650   0.9742348  25.5300731  41.5496356   0.0939727  25.3475837
  42.2323021   0.9190016  26.4177120  51.1263229  12.6097250  30.0395717
  50.9788191  11.6813958  30.2203287  51.9516722  12.6317341  29.5552792
  44.9925473   1.2615318  25.8976209  45.3321546   1.7901239  25.1754817
  45.4397594   1.5995724  26.6734775  54.7297351  13.4325809  31.1260590
  55.6543898  13.2268671  30.9885041  54.5612654  13.1842210  32.0349931
  47.6868914  -0.3547632  35.3479277  47.3465734  -1.1539819  35.7499957
  46.9807920  -0.0545921  34.7756110  46.9793620  -0.2410061  24.0969502
  47.7001983   0.1371192  23.5933219  46.3558924   0.4778816  24.2004480
  51.1224743   0.4635088  25.0327834  51.3388357   1.3459726  24.7316662
  50.6418810   0.0721302  24.3033476  45.8623964   3.4220801  31.6098579
  45.7168545   3.7361104  32.5022860  45.3849168   4.0405702  31.0569477
  47.7220347   0.4123349  31.6579468  47.7081916  -0.4835557  31.3211766
  48.4392775   0.4194013  32.2917754  49.5746478   0.8460690  33.7032596
  49.3164256   1.7677760  33.7016926  49.0431518   0.4491124  34.3933060
  54.5192667  13.9511477  26.4822681  54.6929544  13.3857899  25.7296533
  55.0121558  14.7512372  26.3002171  40.3369627   5.9626146  34.5486240
  39.7923095   6.7385954  34.6806514  41.2148977   6.3096950  34.3905361
  60.3732058   6.7147900  28.1012981  60.8163204   5.9655225  27.7032104
  59.4958568   6.7058036  27.7186713  55.5067839  13.2678241  23.5819579
  56.2018744  13.8884934  23.8006894  55.8490989  12.4173592  23.8571957
  41.1235649   5.0896042  37.4416397  40.3817385   5.2378677  38.0281027
  40.8028393   5.3504308  36.5783146  57.4059262  10.7177947  25.1106910
  57.9310587  11.0565219  24.3856230  57.3181615   9.7824962  24.9270045
  49.0679311  14.6312020  37.2396787  49.3766438  14.3861167  38.1119486
  49.8654793  14.8358659  36.7515657  49.0899923  16.7849930  29.4702163
  48.6504913  16.2926309  30.1635020  49.8408040  16.2422898  29.2294238
  41.5692262  12.9761471  29.4726791  42.3950282  12.6765243  29.0925435
  41.2186314  12.2069093  29.9216580  46.5373795  12.3287939  31.5424465
  45.9153805  11.6658644  31.2426693  47.2078662  12.3549071  30.8598113
  39.7700867  10.8947797  30.4315725  38.9332776  10.4669972  30.2499726
  39.7424513  11.0880241  31.3686516  46.6098323   0.8069727  41.1356971
  46.6586478   1.6831850  40.7534741  47.1520837   0.2647120  40.5628614
  57.0953169  11.3510850  40.4158108  56.3048712  11.3334989  39.8762607
  56.8586523  11.8899144  41.1707145  57.2151044   8.2003317  37.7290837
  57.2649049   8.0353324  38.6706359  57.1064967   7.3330576  37.3388717
  46.0987302  10.8791862  25.0182925  46.2475423  11.5627327  24.3649598
  46.9053746  10.8596952  25.5332381  54.5054806   4.1834245  39.0450143
  55.4064669   4.0440709  38.7534141  54.5802780   4.3488699  39.9848321
  48.8397611   1.5601099  37.8903330  47.9700921   1.8534665  37.6185918
  49.0757092   2.1441544  38.6110593  58.7169240  10.6200258  37.9732858
  58.4254049  10.9830239  38.8096319  58.1041372   9.9067266  37.7946190
  59.9164923   8.1853138  30.4935428  60.7511814   8.6242942  30.6572989
  60.0524052   7.7091791  29.6743674  56.9656429   5.7432873  36.4412916
  57.4410550   5.9360519  35.6331767  56.0421994   5.7992059  36.1956300
  43.8539935   6.9057040  26.0243994  43.6085977   6.0019370  26.2224204
  44.0235850   6.9074190  25.0823472  43.1235583   2.6385398  23.5230156
  42.4304828   2.7129752  22.8670192  42.8787335   1.8745741  24.0451673
  49.5982708  13.3739993  22.4894673  49.0256675  13.9930180  22.0365145
  50.1715501  13.9239354  23.0234595  55.6658098   2.6198633  34.6741222
  56.6175521   2.7196730  34.6953446  55.4961548   1.8276901  35.1839306
  52.8179968  13.6577143  23.6203255  53.7510641  13.5922705  23.8236131
  52.7303180  14.4933410  23.1617788  55.4467984  12.9743013  20.5807203
  55.3681616  12.6402877  21.4742961  56.2677651  13.4664781  20.5798675
  58.1446175   5.8404753  33.7883521  58.1122496   4.9020753  33.9743205
  58.7546799   5.9188789  33.0549346  49.9829506   4.7100805  19.8310725
  50.9288611   4.5807014  19.8999143  49.6043751   3.9715467  20.3080154
  63.9622725   6.9020759  32.9289558  64.6926114   6.6406047  33.4897261
  63.3529671   6.1649481  32.9691626  62.0438022   5.0428622  33.5264009
  61.3171186   4.9084587  32.9180501  61.6285309   5.3505451  34.3320727
  49.8668199   8.7618552  41.2911382  50.7871208   8.9397151  41.4851429
  49.8317782   7.8174597  41.1391082  48.1672423   2.6350782  19.7665611
  47.2603879   2.3383895  19.8428324  48.4448404   2.3380600  18.8999897
  39.0850364   3.9557145  30.2164657  38.7653148   3.1022453  29.9239031
  38.5383792   4.1705723  30.9722624  42.8630271   6.6719586  33.9334164
  43.0816281   7.6036694  33.9522197  43.2756045   6.3127561  34.7188967
  47.7358137   2.2452792  43.3236912  47.6354864   3.1947149  43.2549004
  47.5179679   1.9171031  42.4512983  38.9538624   7.5760057  32.1857779
  38.2602095   7.1614010  31.6727733  39.7011615   7.6180593  31.5891197
  47.5989407   5.6749931  42.1401974  47.1156488   6.4750291  42.3465863
  47.6850346   5.6857876  41.1869418  40.8675366   7.5078311  30.0623793
  40.8446054   7.6065998  29.1105677  41.1776003   8.3543461  30.3840960
  43.5262744   9.5654466  34.1770408  44.4805998   9.5338408  34.1100339
  43.3275268   9.1045089  34.9920634  44.1162126   8.1355582  36.7441206
  44.9355015   8.6299660  36.7676043  44.3898934   7.2187550  36.7158773
  41.8812973  15.1074085  31.1940606  41.7467441  14.3474486  30.6278604
  41.4645035  15.8314985  30.7269395  53.0171936  10.2911009  20.2017181
  53.7207786  10.4961011  20.8174837  52.2934585  10.8587771  20.4666265
  53.8469746   6.0420870  26.3219451  53.7904948   6.4989421  25.4827084
  54.3998089   5.2811554  26.1442294  61.9686890   4.5706675  29.6540862
  61.4086448   4.6399864  30.4272424  61.3630393   4.3947660  28.9340358
  45.0382099  16.0043402  31.4059048  44.9214483  16.9488835  31.3037739
  44.2174545  15.7016964  31.7944848  54.9258633  10.7293538  22.2515641
  55.7604237  10.2974736  22.0693116  54.7642976  10.5575551  23.1792536
  54.5804526   7.2325651  23.6171980  54.5253329   7.0669923  22.6760424
  53.9550581   7.9401684  23.7734170  39.3697041   2.4693715  37.4433403
  40.0155904   1.9592669  37.9320628  39.1614192   3.2062397  38.0176828
  51.8950433   9.5374563  42.9425543  52.7641592   9.7115215  42.5812178
  51.4157184  10.3568980  42.8201273  46.0636613  16.6571664  34.6214977
  46.9663860  16.6895274  34.9381472  45.8373983  15.7272115  34.6361313
  47.8190215  15.4102651  31.2825055  46.8685846  15.4104512  31.1689428
  48.1222701  14.6635385  30.7661090  43.7094532  -0.3838667  41.5408417
  44.5725993  -0.7401863  41.7511741  43.1359942  -0.7224773  42.2283821
  63.5542909  21.2463189  32.3470818  64.1921318  21.1269936  31.6434158
  63.4363751  22.1944033  32.4058770  60.3632615  21.1990617  32.2832343
  60.0251126  21.0831682  31.3952877  61.2322383  20.7981782  32.2633349
  56.2219430  23.0526093  28.2729233  55.6584296  22.9616030  27.5045521
  56.1071826  22.2325998  28.7531726  60.8452398  22.3525469  38.2418548
  60.8341039  21.9578267  37.3699052  61.0073037  21.6191541  38.8352320
  53.7683862  24.5477285  31.1113454  54.5605154  24.2068110  30.6959753
  54.0080513  24.6572260  32.0315607  61.8018989  26.7197061  23.5843698
  61.1506969  27.3051142  23.1977712  62.5963352  27.2503256  23.6438736
  55.7274616  23.8086198  23.9830833  56.5005492  23.2615185  23.8443709
  56.0800015  24.6730448  24.1945294  57.5659659  25.1362581  37.1897732
  57.2749525  26.0408211  37.0744398  58.2016643  25.1779108  37.9041802
  58.4915866  22.5139429  33.7799092  59.0879438  22.2895451  33.0656055
  58.5490837  21.7724175  34.3824540  58.0640894  19.9678864  21.6149283
  58.3166415  19.4460386  20.8532746  57.1265453  19.8045010  21.7175966
  63.1084177  18.9714643  29.4224026  63.8947266  18.5534066  29.0714443
  63.3722881  19.8760735  29.5905674  63.2794254  24.4087493  24.1212683
  62.6440087  24.4822120  24.8333587  62.9491661  24.9981092  23.4431762
  68.5092604  18.9089876  30.3257004  69.2417776  18.3389093  30.5594834
  67.7531960  18.5211476  30.7663510  57.7837183  21.8706970  23.8173658
  57.6673441  21.1951874  24.4854742  57.8939443  21.3839344  23.0005811
  60.1268724  21.3317117  27.5220347  59.7626931  20.8047738  28.2333268
  60.9835840  20.9415587  27.3486832  66.0318024  12.6211450  34.7851613
  65.7001349  13.4906861  34.5612828  65.4363638  12.3047734  35.4645643
  59.7674211  16.3607017  22.5181695  59.9348613  17.2287254  22.8852166
  59.5771380  16.5234299  21.5942985  62.5249544  24.8223996  34.1847526
  62.2250267  25.7249035  34.0763333  62.1800604  24.5556179  35.0368679
  55.9762025  21.2737793  30.2184230  55.0512522  21.1414007  30.4261922
  56.2246439  22.0532012  30.7154173  65.9246688  17.3406536  31.8644963
  65.0163565  17.2721945  31.5703724  65.8734284  17.8178481  32.6926789
  59.7463432  18.8164675  23.5028362  59.6263057  19.2621725  24.3413842
  59.0516020  19.1649992  22.9441900  53.3370837  20.9171066  31.0528019
  53.4663218  21.1705545  31.9667431  52.6568288  21.5098774  30.7332674
  57.5070324  31.5868316  27.1518493  57.4294354  32.5376141  27.2306974
  56.9031967  31.2414189  27.8093420  59.9987554  18.7596182  39.8079860
  59.2220888  19.3190102  39.7982725  60.6378117  19.2452965  40.3294730
  67.7908334  15.5422975  33.6422837  67.1482714  15.8355508  32.9962632
  67.2863263  15.4275895  34.4476034  65.4448498  19.2886148  24.3308696
  66.3566354  19.5213535  24.1556394  64.9358145  19.8723192  23.7683775
  58.2533926  21.5681635  39.3697827  58.9948610  22.1066679  39.0932651
  57.5470911  22.1947924  39.5269379  63.7289266  23.7110776  37.9669989
  64.1372622  23.2693186  37.2224621  63.0066527  23.1363403  38.2204182
  60.0820336  18.6483382  35.3403546  60.9281531  19.0722796  35.4838195
  60.0218973  17.9917007  36.0342109  64.0518080  24.2711966  31.7222278
  63.4226943  24.4357680  31.0198346  63.6643742  24.6853576  32.4933242
  67.9307312  25.2066404  29.0766641  67.2458350  25.5865306  28.5263675
  68.0151161  25.8161731  29.8098589  63.2319781  16.3087751  36.9984719
  62.9880713  17.0629811  36.4618995  63.5079711  16.6873098  37.8331966
  65.1858244  22.8526363  35.6761985  65.3975139  23.4958123  34.9996366
  65.1387992  22.0188680  35.2083915  62.7884473  15.4644184  32.5798557
  61.9268952  15.7625437  32.8715295  62.8146907  15.6814583  31.6479590
  59.6046042  24.0086374  28.9872363  60.0684388  24.2874077  28.1976985
  59.3402840  23.1069819  28.8045453  56.4970123  23.5557856  31.9252126
  57.0671480  23.9845124  31.2869611  57.0878235  23.2740441  32.6236312
  58.5414928  20.1309527  25.7961928  59.2438971  20.5830570  26.2635854
  58.2095557  19.4893346  26.4241821  56.9895290  18.7221283  40.1713137
  56.3593950  19.4037564  40.4048534  56.8831378  18.6104365  39.2266276
  52.2840262  18.3893079  31.0979061  51.4939316  18.6450608  30.6219172
  52.7751509  19.2041417  31.2031102  66.3004072  25.7298319  33.8484342
  67.1221515  25.3278506  33.5667024  66.2966475  25.6266553  34.8000458
  54.2355007  18.7537659  28.0562538  53.4386171  18.8656353  28.5746034
  54.0080600  19.0924311  27.1903429  60.0660675  25.2782362  36.0045053
  60.1305108  25.7402769  36.8403225  59.3571599  24.6479727  36.1327363
  50.5677965  18.6423570  33.5294052  50.8186003  19.5270580  33.7951628
  51.1037513  18.4628171  32.7569144  74.3910065  22.0737067  30.1969314
  73.6373773  21.5044465  30.0413318  74.5257606  22.0399732  31.1439948
  59.7808693  26.9450469  25.8724033  59.6454368  27.7902005  26.3008881
  60.3218505  27.1469747  25.1089967  56.2676032  13.0242049  42.5338388
  55.8742978  12.4708248  43.2086033  57.0842173  13.3352628  42.9244906
  53.2338090  24.4625907  26.4451958  53.7462611  25.2569158  26.5957523
  53.8860803  23.7652198  26.3785560  55.0432975  27.5791664  28.5274711
  55.2199603  28.5009628  28.3395695  55.8389808  27.2650083  28.9569091
  59.1843993  14.4399928  40.1258645  59.9253707  15.0407081  40.0463107
  59.4161916  13.6977566  39.5676687  54.3285331  19.6256296  38.4036875
  54.2138847  18.7241553  38.7043974  53.4729849  19.8719992  38.0521691
  61.4077169  27.5674036  40.0024375  60.9641023  26.7810414  39.6845280
  62.0694383  27.7553186  39.3368266  56.1664290  29.0969837  34.5285054
  56.7171715  28.9686901  33.7562048  55.3275766  29.3964726  34.1779947
  63.5058407  27.8476836  38.0305776  63.4876883  28.6685717  37.5386046
  64.4278327  27.7230911  38.2555918  59.9631461  25.3620965  38.8729285
  60.4959798  24.6009253  38.6428593  59.4345542  25.0694617  39.6153439
  63.1301156  10.4681031  34.4022927  62.7865426  11.3582673  34.3262037
  63.4980119  10.2782689  33.5392512  51.1987007  22.7914562  27.2211529
  52.0362229  23.2011570  27.0045236  51.3765275  21.8514004  27.1911723
  63.0951439  20.4589642  22.9095362  62.5798062  21.2294247  23.1483749
  62.8228747  19.7854779  23.5328423  60.6798550  15.3039343  27.9680600
  59.8240146  14.9146194  27.7886239  61.0925502  15.3831304  27.1080386
  62.2097697  12.8385686  32.3672160  61.7062492  12.8015822  31.5539965
  62.5028304  13.7478429  32.4268817  58.4540583  12.9224416  31.3738342
  59.3193579  12.7267225  31.0144231  58.5218091  12.6934768  32.3007698
  68.0685713  23.2121997  24.8448535  67.2915156  22.8733157  24.4003697
  68.7477194  23.2174620  24.1703500  62.8837742  18.3316734  24.7355143
  62.5787878  18.6462884  25.5865286  63.8368184  18.4098154  24.7782476
  61.3284174  24.4906958  26.3848097  60.8005536  23.7559717  26.0721334
  60.8271677  25.2681634  26.1388065  66.3077020  22.6855978  31.5015143
  65.6500694  23.3755240  31.5895272  67.1117419  23.0752410  31.8449130
  56.0602902  15.1526624  28.7454708  56.6346654  14.9301806  28.0127901
  56.6473884  15.2215319  29.4983310  65.1182479  21.0400351  29.5519085
  65.6314361  21.6730343  30.0540795  65.7683703  20.4401546  29.1862445
  56.3872489  17.1831085  22.7650594  55.5509801  17.5205772  23.0859868
  56.2477258  17.0480065  21.8277731  58.3625569  12.0267873  27.4729778
  57.7089982  11.7116890  26.8486393  58.3206044  11.4043613  28.1989601
  59.4736774  22.3087168  19.3883070  58.5663836  22.0776421  19.5874219
  59.9707806  21.5124787  19.5757051  62.3804853  31.0184675  22.3079756
  61.7066552  31.3216372  22.9164714  62.7670675  31.8213756  21.9585213
  61.5963310  18.5149806  31.7977425  60.6785871  18.7364754  31.6399114
  62.0123453  18.5896117  30.9389133  62.3798357  19.9141222  26.9280106
  63.1270176  20.4262619  26.6187228  62.6489947  19.5925275  27.7884499
  60.6525008  22.4099763  23.9107060  59.7436227  22.1258796  24.0079530
  60.6820091  22.8298841  23.0510367  65.8844275  26.0206352  27.6798228
  65.4306602  25.1797262  27.7363418  65.2538242  26.6567751  28.0173008
  64.8277195  16.9498338  28.9098895  64.0899951  16.4375725  29.2409138
  65.0803968  16.5098720  28.0982172  64.3277214  27.8582849  28.6148046
  64.6200189  28.4187906  27.8960411  64.8375835  28.1511410  29.3701205
  64.9288822   9.7274590  29.5040664  65.2347699   8.8671954  29.2166579
  65.6541427  10.3192211  29.3039658  51.2213178  20.1305277  27.8922262
  51.0237578  19.5374638  27.1673329  50.6659842  19.8257487  28.6098201
  59.2009902  20.0228384  30.0116855  59.2558511  19.0702220  29.9359332
  58.3901104  20.1787823  30.4958154  60.3501095  23.9508507  21.2495139
  59.9120525  23.2344366  20.7900776  61.0911536  24.1784621  20.6880230
  57.1402262  18.6405443  27.7707234  56.3270127  18.9399614  28.1772426
  57.6361256  18.2461132  28.4881716  59.2910840  28.6363200  29.7041499
  59.2487018  28.8624046  28.7750031  60.2073538  28.4026575  29.8527300
  62.7376473  19.1047268  36.6022128  63.0925861  19.3318741  37.4616594
  63.3848605  19.4365645  35.9799383  68.4674210  22.2265704  27.3071457
  68.3292109  22.4167300  26.3792646  68.1110429  22.9885086  27.7639508
  56.6316336  16.2123799  33.3868469  57.2715716  16.0712558  32.6891432
  55.7993867  15.9258312  33.0107071  68.4943590  24.2942231  32.3182729
  68.9280097  24.2017520  33.1665783  69.2075171  24.2699731  31.6802745
  57.4076640  25.5126229  29.5003462  58.2017239  25.0176549  29.2986037
  56.6968333  24.9844092  29.1371167  62.2271485  27.8944325  33.8515829
  62.2808507  28.4635261  34.6193545  61.3586266  28.0646210  33.4869866
  53.7159404  19.6569311  25.5763214  52.7856992  19.5953766  25.7933176
  53.8116876  19.1345264  24.7799856  53.6344953  16.1824124  28.1641456
  53.8951770  17.0969457  28.0550616  54.4562125  15.7148566  28.3138069
  55.1069878  17.5961881  35.3340280  55.7792932  17.3879243  34.6852929
  54.2799665  17.3983967  34.8945513  69.3559139  24.3365931  34.8515614
  69.5495029  25.2411742  35.0974889  69.2559758  23.8773350  35.6854199
  61.0095450  14.2223822  37.3505941  60.3623365  14.9213772  37.2570418
  61.7796466  14.6559966  37.7182190  64.4174248  24.4872674  40.4256495
  64.2659755  24.2583226  39.5086578  64.4078928  25.4443275  40.4387840
  61.1859584  22.0604587  35.4102761  62.1151644  22.2115746  35.2371728
  60.7650615  22.1488608  34.5551408  59.9847916  26.0855251  33.1801299
  59.8459002  25.7174036  34.0527237  59.1962513  26.6002891  33.0085257
  60.5796068  31.1864348  24.5226835  60.7547824  30.7152391  25.3372458
  59.8928856  31.8130114  24.7508096  61.5353131  25.4636854  30.5690137
  61.2002964  25.4237624  31.4647786  61.0357077  24.7981570  30.0960547
  55.5097375  20.8704484  36.0942718  55.3717173  20.1384723  36.6954257
  56.4202299  20.7813384  35.8126905  64.4712323  22.8092888  20.8427196
  63.8541494  22.0839716  20.7460249  64.0028812  23.5702248  20.4994270
  58.1379676  20.5824443  35.5826397  58.8479295  19.9417635  35.5413016
  58.0948984  20.8337338  36.5052578  66.1266455  27.5191797  38.5032977
  66.0679001  26.8351017  37.8363560  66.5285973  28.2610787  38.0513603
  56.8508610  17.5689661  37.4022037  56.3145967  17.1180400  38.0543633
  56.2625318  17.7035570  36.6592501  55.1457154  34.3353710  31.2966695
  55.3853752  34.9672235  31.9745714  54.3026350  33.9841750  31.5832055
  56.2610869  17.0278313  19.9648500  55.3840335  16.9067113  19.6010747
  56.7368622  16.2364391  19.7127389  66.1283862  25.4831381  36.7346956
  65.2410641  25.1457302  36.8573355  66.6982413  24.7514412  36.9715722
  47.7813009  21.8155472  30.0590008  48.4684049  21.5017202  29.4711023
  47.6261138  22.7196837  29.7857259  52.5847731  16.7045669  34.4875031
  52.5005920  16.0971338  33.7525441  51.7630438  17.1954687  34.4884528
  59.6585015  30.1432833  33.7008199  59.5855187  30.9487804  34.2127504
  59.2162409  30.3424799  32.8756221  59.4474795  29.3804603  27.2111021
  58.6642317  29.9226283  27.3049245  60.1467540  29.8978583  27.6105262
  62.7571445  15.1899232  29.8545226  63.2540145  14.4369195  29.5346297
  61.9858427  15.2263549  29.2888436  70.6101203  20.8939598  31.4963518
  70.5991079  21.7764313  31.1257451  69.7418582  20.5411149  31.3018055
  63.8401226  23.9470920  27.4283650  62.9057505  24.0672382  27.2588354
  64.0177894  23.0443386  27.1643660  59.3406414  17.3316615  29.5816911
  58.9704201  16.7787656  30.2697817  59.8365506  16.7274749  29.0291911
  67.2273777  19.7888239  27.9633684  67.6934229  20.6216230  27.8893987
  67.6781278  19.3233220  28.6678942  57.1695612  27.7914110  36.6771929
  57.8705072  28.4250593  36.8301323  56.6990727  28.1328842  35.9167568
  65.2950008  26.1332060  24.9619836  65.5709852  26.0188655  25.8713710
  64.4254507  25.7349545  24.9232009  65.1990440  12.1568826  32.0024585
  64.2853520  12.3873053  32.1706792  65.6283541  12.2407270  32.8538618
  64.9696898  20.3458718  34.5024479  64.3168349  20.5934625  33.8476932
  65.3477278  19.5322856  34.1686957  61.9304072  30.3818411  28.6052650
  62.1126467  29.5640067  29.0680402  62.7537058  30.5986103  28.1677540
  62.2646238  29.3086596  25.8667698  62.7934004  28.7979051  25.2537860
  62.5274457  28.9929126  26.7313231  61.0184471  21.0878529  40.9890516
  60.3425108  20.9872658  41.6592892  61.8412105  20.9317743  41.4526514
  52.7663331  27.3250465  33.6103032  53.3516767  26.5794153  33.7430936
  52.5688169  27.6354422  34.4939695  55.6201986  30.3601713  28.6265474
  54.9512361  30.8447840  28.1429514  55.4814855  30.6070933  29.5408852
  47.3580985  19.8956066  32.3307475  47.3965085  19.3619656  33.1244593
  46.8521278  19.3691271  31.7118452  54.7371748  14.7420606  35.8270017
  54.8013074  15.6035437  35.4147415  54.6738868  14.1294608  35.0942376
  54.2124020  16.8143739  39.4743051  54.8396059  16.4320816  40.0880576
  53.3551939  16.5957941  39.8398744  64.6118129  27.2206714  41.0796787
  65.1558033  27.8336672  40.5851742  64.0304973  27.7786292  41.5963800
  50.9889563  18.6220168  25.4061406  51.2843004  17.7130846  25.3528460
  50.0877599  18.6007907  25.0842408  62.8975642  30.3427432  32.2111814
  62.7726781  29.5417172  31.7022760  63.5554733  30.8373625  31.7225784
  54.5183810  16.6976164  31.3888955  53.7970396  17.3112132  31.2496428
  55.3077066  17.2333929  31.3105601  64.9610550  28.1436452  33.8391365
  64.0140886  28.0241803  33.7669691  65.3093323  27.2558950  33.9217626
  57.3210123  14.0330591  37.6629606  57.8444525  14.2792887  38.4255916
  57.1022457  14.8650626  37.2432744  52.7177404  16.3034265  25.5300731
  52.3890111  15.4231644  25.3475837  53.0716775  16.2481934  26.4177120
  61.9656983  27.9389168  30.0395717  61.8181946  27.0105876  30.2203287
  62.7910477  27.9609259  29.5552792  55.8319228  16.5907235  25.8976209
  56.1715300  17.1193156  25.1754817  56.2791348  16.9287641  26.6734775
  65.5691105  28.7617727  31.1260590  66.4937653  28.5560588  30.9885041
  65.4006409  28.5134128  32.0349931  58.5262668  14.9744286  35.3479277
  58.1859489  14.1752099  35.7499957  57.8201675  15.2745997  34.7756110
  59.1779140  12.0593598  33.8006600  60.0005210  11.5854077  33.6785490
  59.4217204  12.8384082  34.3005286  57.8187375  15.0881857  24.0969502
  58.5395737  15.4663110  23.5933219  57.1952679  15.8070734  24.2004480
  61.9618498  15.7927006  25.0327834  62.1782112  16.6751644  24.7316662
  61.4812565  15.4013219  24.3033476  56.7017719  18.7512719  31.6098579
  56.5562300  19.0653022  32.5022860  56.2242923  19.3697619  31.0569477
  58.5614102  15.7415267  31.6579468  58.5475671  14.8456360  31.3211766
  59.2786530  15.7485931  32.2917754  60.4140233  16.1752607  33.7032596
  60.1558010  17.0969678  33.7016926  59.8825273  15.7783042  34.3933060
  65.3586421  29.2803394  26.4822681  65.5323299  28.7149817  25.7296533
  65.8515313  30.0804289  26.3002171  51.1763381  21.2918063  34.5486240
  50.6316849  22.0677871  34.6806514  52.0542731  21.6388868  34.3905361
  57.9650998  14.6229647  26.9267038  58.0866909  13.6946293  27.1257926
  57.6753040  14.6368333  26.0145354  60.8342188  12.3084558  30.0633758
  60.8563885  12.3723891  29.1085738  61.2510247  11.4689066  30.2574264
  71.2125813  22.0439817  28.1012981  71.6556959  21.2947142  27.7032104
  70.3352323  22.0349954  27.7186713  66.3461594  28.5970159  23.5819579
  67.0412498  29.2176851  23.8006894  66.6884744  27.7465510  23.8571957
  51.9629403  20.4187960  37.4416397  51.2211139  20.5670595  38.0281027
  51.6422147  20.6796225  36.5783146  68.2453017  26.0469864  25.1106910
  68.7704341  26.3857137  24.3856230  68.1575370  25.1116880  24.9270045
  59.9073066  29.9603938  37.2396787  60.2160192  29.7153085  38.1119486
  60.7048548  30.1650576  36.7515657  59.9293678  32.1141848  29.4702163
  59.4898668  31.6218226  30.1635020  60.6801795  31.5714815  29.2294238
  52.4086017  28.3053388  29.4726791  53.2344037  28.0057160  29.0925435
  52.0580069  27.5361011  29.9216580  57.3767550  27.6579857  31.5424465
  56.7547559  26.9950562  31.2426693  58.0472417  27.6840989  30.8598113
  50.6094622  26.2239715  30.4315725  49.7726530  25.7961889  30.2499726
  50.5818267  26.4172158  31.3686516  57.4492077  16.1361645  41.1356971
  57.4980233  17.0123767  40.7534741  57.9914592  15.5939038  40.5628614
  67.9346923  26.6802768  40.4158108  67.1442467  26.6626907  39.8762607
  67.6980278  27.2191062  41.1707145  68.0544798  23.5295234  37.7290837
  68.1042803  23.3645242  38.6706359  67.9458721  22.6622493  37.3388717
  56.9381057  26.2083780  25.0182925  57.0869177  26.8919244  24.3649598
  57.7447500  26.1888870  25.5332381  65.3448560  19.5126162  39.0450143
  66.2458423  19.3732627  38.7534141  65.4196535  19.6780617  39.9848321
  59.6791366  16.8893017  37.8903330  58.8094675  17.1826583  37.6185918
  59.9150846  17.4733462  38.6110593  69.5562995  25.9492176  37.9732858
  69.2647803  26.3122156  38.8096319  68.9435126  25.2359184  37.7946190
  70.7558677  23.5145056  30.4935428  71.5905569  23.9534860  30.6572989
  70.8917806  23.0383709  29.6743674  67.8050183  21.0724790  36.4412916
  68.2804305  21.2652437  35.6331767  66.8815749  21.1283976  36.1956300
  54.6933690  22.2348958  26.0243994  54.4479732  21.3311288  26.2224204
  54.8629604  22.2366108  25.0823472  62.3830400  13.1072634  35.4068750
  62.9012343  13.8433661  35.0815239  62.0285532  13.4136627  36.2415509
  53.9629337  17.9677315  23.5230156  53.2698582  18.0421670  22.8670192
  53.7181089  17.2037659  24.0451673  62.6342994   9.5272917  30.9269647
  62.9144748   8.8596106  31.5530073  63.4193601   9.7202012  30.4144310
  60.4376462  28.7031910  22.4894673  59.8650429  29.3222098  22.0365145
  61.0109256  29.2531272  23.0234595  66.5051852  17.9490550  34.6741222
  67.4569275  18.0488648  34.6953446  66.3355303  17.1568819  35.1839306
  64.5266232  15.0346134  34.8600623  63.9316164  15.3151146  34.1647111
  64.2415928  15.5240035  35.6317364  63.6573722  28.9869061  23.6203255
  64.5904395  28.9214622  23.8236131  63.5696935  29.8225327  23.1617788
  66.2861739  28.3034931  20.5807203  66.2075370  27.9694794  21.4742961
  67.1071406  28.7956699  20.5798675  68.9839930  21.1696670  33.7883521
  68.9516250  20.2312671  33.9743205  69.5940554  21.2480707  33.0549346
  60.8223261  20.0392723  19.8310725  61.7682366  19.9098931  19.8999143
  60.4437506  19.3007385  20.3080154  69.1334418  17.9607714  33.8341805
  68.6173467  17.1766170  33.6471733  70.0174367  17.6326430  33.9988324
  66.7945145  11.7048729  29.7937617  66.5969966  11.3963817  30.6780949
  67.4044851  12.4310368  29.9235547  74.8016480  22.2312677  32.9289558
  75.5319868  21.9697965  33.4897261  74.1923425  21.4941399  32.9691626
  72.8831777  20.3720540  33.5264009  72.1564940  20.2376505  32.9180501
  72.4679064  20.6797368  34.3320727  60.7061953  24.0910469  41.2911382
  61.6264963  24.2689068  41.4851429  60.6711536  23.1466515  41.1391082
  59.0066178  17.9642700  19.7665611  58.0997633  17.6675812  19.8428324
  59.2842159  17.6672518  18.8999897  49.9244118  19.2849063  30.2164657
  49.6046903  18.4314371  29.9239031  49.3777547  19.4997641  30.9722624
  53.7024026  22.0011504  33.9334164  53.9210036  22.9328612  33.9522197
  54.1149800  21.6419478  34.7188967  60.6228244  12.5079589  25.9209852
  59.8128972  12.1626674  26.2965098  61.3112661  12.1987133  26.5097463
  62.5518792  11.5857636  27.5434149  63.1049831  12.0053089  28.2024172
  62.7888878  10.6593384  27.5857105  58.5751891  17.5744710  43.3236912
  58.4748618  18.5239067  43.2549004  58.3573433  17.2462949  42.4512983
  57.7764963  14.8229635  19.9077590  58.6384127  15.1484533  20.1673407
  57.9615307  14.0361131  19.3950656  49.7932378  22.9051974  32.1857779
  49.0995850  22.4905927  31.6727733  50.5405369  22.9472511  31.5891197
  65.9297599  13.6958161  27.0512813  65.3496268  14.3542965  26.6690865
  65.6633532  12.8735506  26.6400230  64.3801165  13.0963219  29.2534133
  64.8800944  13.2079753  28.4448452  65.0236773  12.7924272  29.8934942
  58.4383161  21.0041849  42.1401974  57.9550243  21.8042209  42.3465863
  58.5244100  21.0149793  41.1869418  51.7069121  22.8370228  30.0623793
  51.6839809  22.9357916  29.1105677  52.0169757  23.6835379  30.3840960
  54.3656499  24.8946383  34.1770408  55.3199752  24.8630326  34.1100339
  54.1669022  24.4337007  34.9920634  54.9555881  23.4647499  36.7441206
  55.7748770  23.9591578  36.7676043  55.2292689  22.5479467  36.7158773
  64.7122477  15.8558252  26.1069161  63.8248332  16.1407902  25.8889356
  65.1276466  15.6952015  25.2596438  68.0637013  15.8804773  29.8223500
  68.8397403  16.3701225  30.0948117  67.3385147  16.3062827  30.2795370
  70.5009572  16.5932392  30.8797441  71.0954063  16.3528128  30.1690749
  70.5736156  15.8739522  31.5070977  52.7206728  30.4366003  31.1940606
  52.5861195  29.6766404  30.6278604  52.3038790  31.1606903  30.7269395
  63.8565691  25.6202926  20.2017181  64.5601541  25.8252929  20.8174837
  63.1328339  26.1879688  20.4666265  64.6863501  21.3712788  26.3219451
  64.6298702  21.8281339  25.4827084  65.2391843  20.6103472  26.1442294
  68.4968307  17.1602519  27.1469571  68.2405241  16.7599155  27.9777778
  67.8721175  17.8746313  27.0219710  72.8080645  19.8998593  29.6540862
  72.2480203  19.9691782  30.4272424  72.2024148  19.7239577  28.9340358
  55.8775853  31.3335320  31.4059048  55.7608238  32.2780752  31.3037739
  55.0568300  31.0308881  31.7944848  65.7652388  26.0585455  22.2515641
  66.5997992  25.6266654  22.0693116  65.6036731  25.8867469  23.1792536
  65.4198280  22.5617569  23.6171980  65.3647084  22.3961840  22.6760424
  64.7944335  23.2693602  23.7734170  50.2090795  17.7985633  37.4433403
  50.8549659  17.2884587  37.9320628  50.0007946  18.5354315  38.0176828
  62.7344187  24.8666481  42.9425543  63.6035347  25.0407133  42.5812178
  62.2550939  25.6860897  42.8201273  58.7294406  12.0625678  23.1957299
  58.7173075  13.0067518  23.3525570  59.6217827  11.8795823  22.9016760
  56.9030368  31.9863582  34.6214977  57.8057614  32.0187192  34.9381472
  56.6767738  31.0564033  34.6361313  58.6583970  30.7394568  31.2825055
  57.7079601  30.7396430  31.1689428  58.9616456  29.9927303  30.7661090
  62.5446525   8.6568454  27.4503236  61.7778921   8.1026941  27.5959918
  62.9557230   8.7290323  28.3117387  54.5488286  14.9453250  41.5408417
  55.4119748  14.5890055  41.7511741  53.9753697  14.6067145  42.2283821
  74.3936663  36.5755107  32.3470818  75.0315073  36.4561854  31.6434158
  74.2757506  37.5235951  32.4058770  71.2026369  36.5282535  32.2832343
  70.8644881  36.4123599  31.3952877  72.0716137  36.1273700  32.2633349
  72.6412744  42.0488979  23.5843698  71.9900723  42.6343059  23.1977712
  73.4357107  42.5795174  23.6438736  68.9034649  35.2970782  21.6149283
  69.1560169  34.7752303  20.8532746  67.9659208  35.1336928  21.7175966
  73.9477931  34.3006560  29.4224026  74.7341021  33.8825984  29.0714443
  74.2116636  35.2052653  29.5905674  74.1188009  39.7379411  24.1212683
  73.4833842  39.8114037  24.8333587  73.7885415  40.3273010  23.4431762
  79.3486359  34.2381794  30.3257004  80.0811531  33.6681010  30.5594834
  78.5925714  33.8503394  30.7663510  68.6230937  37.1998888  23.8173658
  68.5067196  36.5243791  24.4854742  68.7333197  36.7131262  23.0005811
  70.9662478  36.6609035  27.5220347  70.6020686  36.1339656  28.2333268
  71.8229594  36.2707504  27.3486832  76.8711779  27.9503368  34.7851613
  76.5395104  28.8198779  34.5612828  76.2757392  27.6339652  35.4645643
  70.6067965  31.6898935  22.5181695  70.7742368  32.5579171  22.8852166
  70.4165134  31.8526217  21.5942985  73.3643299  40.1515914  34.1847526
  73.0644022  41.0540953  34.0763333  73.0194358  39.8848097  35.0368679
  76.7640442  32.6698454  31.8644963  75.8557320  32.6013862  31.5703724
  76.7128038  33.1470399  32.6926789  70.5857186  34.1456592  23.5028362
  70.4656811  34.5913643  24.3413842  69.8909775  34.4941910  22.9441900
  68.3464078  46.9160234  27.1518493  68.2688108  47.8668059  27.2306974
  67.7425722  46.5706107  27.8093420  70.8381308  34.0888100  39.8079860
  70.0614642  34.6482020  39.7982725  71.4771871  34.5744882  40.3294730
  78.6302089  30.8714892  33.6422837  77.9876469  31.1647425  32.9962632
  78.1257017  30.7567813  34.4476034  76.2842252  34.6178066  24.3308696
  77.1960108  34.8505452  24.1556394  75.7751899  35.2015110  23.7683775
  74.5683020  39.0402693  37.9669989  74.9766376  38.5985104  37.2224621
  73.8460282  38.4655321  38.2204182  74.8911835  39.6003884  31.7222278
  74.2620697  39.7649598  31.0198346  74.5037497  40.0145494  32.4933242
  78.7701067  40.5358322  29.0766641  78.0852105  40.9157223  28.5263675
  78.8544916  41.1453648  29.8098589  74.0713535  31.6379668  36.9984719
  73.8274467  32.3921729  36.4618995  74.3473466  32.0165016  37.8331966
  76.0251998  38.1818281  35.6761985  76.2368893  38.8250041  34.9996366
  75.9781746  37.3480597  35.2083915  73.6278227  30.7936101  32.5798557
  72.7662706  31.0917355  32.8715295  73.6540662  31.0106500  31.6479590
  70.4439797  39.3378292  28.9872363  70.9078142  39.6165995  28.1976985
  70.1796595  38.4361737  28.8045453  69.3808683  35.4601444  25.7961928
  70.0832726  35.9122488  26.2635854  69.0489311  34.8185263  26.4241821
  77.1397826  41.0590236  33.8484342  77.9615270  40.6570424  33.5667024
  77.1360229  40.9558470  34.8000458  65.0748762  34.0829576  28.0562538
  64.2779925  34.1948271  28.5746034  64.8474354  34.4216229  27.1903429
  85.2303819  37.4028985  30.1969314  84.4767528  36.8336383  30.0413318
  85.3651360  37.3691649  31.1439948  70.6202447  42.2742387  25.8724033
  70.4848122  43.1193923  26.3008881  71.1612260  42.4761665  25.1089967
  70.0237748  29.7691846  40.1258645  70.7647461  30.3698999  40.0463107
  70.2555671  29.0269484  39.5676687  74.3452162  43.1768753  38.0305776
  74.3270637  43.9977635  37.5386046  75.2672082  43.0522829  38.2555918
  73.9694911  25.7972949  34.4022927  73.6259180  26.6874591  34.3262037
  74.3373873  25.6074607  33.5392512  73.9345194  35.7881560  22.9095362
  73.4191817  36.5586165  23.1483749  73.6622502  35.1146696  23.5328423
  71.5192305  30.6331261  27.9680600  70.6633901  30.2438111  27.7886239
  71.9319256  30.7123222  27.1080386  73.0491451  28.1677604  32.3672160
  72.5456247  28.1307739  31.5539965  73.3422058  29.0770347  32.4268817
  69.2934337  28.2516334  31.3738342  70.1587334  28.0559142  31.0144231
  69.3611846  28.0226686  32.3007698  78.9079468  38.5413915  24.8448535
  78.1308910  38.2025074  24.4003697  79.5870949  38.5466538  24.1703500
  73.7231497  33.6608652  24.7355143  73.4181632  33.9754801  25.5865286
  74.6761939  33.7390072  24.7782476  72.1677929  39.8198875  26.3848097
  71.6399290  39.0851635  26.0721334  71.6665431  40.5973552  26.1388065
  77.1470775  38.0147896  31.5015143  76.4894449  38.7047157  31.5895272
  77.9511174  38.4044328  31.8449130  66.8996656  30.4818542  28.7454708
  67.4740408  30.2593723  28.0127901  67.4867639  30.5507236  29.4983310
  75.9576233  36.3692269  29.5519085  76.4708115  37.0022260  30.0540795
  76.6077457  35.7693464  29.1862445  67.2266243  32.5123003  22.7650594
  66.3903556  32.8497689  23.0859868  67.0871013  32.3771983  21.8277731
  69.2019324  27.3559791  27.4729778  68.5483736  27.0408808  26.8486393
  69.1599798  26.7335531  28.1989601  70.3130529  37.6379086  19.3883070
  69.4057590  37.4068339  19.5874219  70.8101561  36.8416705  19.5757051
  73.2198608  46.3476593  22.3079756  72.5460306  46.6508290  22.9164714
  73.6064430  47.1505673  21.9585213  72.4357064  33.8441724  31.7977425
  71.5179626  34.0656671  31.6399114  72.8517208  33.9188035  30.9389133
  73.2192112  35.2433140  26.9280106  73.9663931  35.7554537  26.6187228
  73.4883702  34.9217193  27.7884499  71.4918762  37.7391681  23.9107060
  70.5829981  37.4550713  24.0079530  71.5213846  38.1590759  23.0510367
  76.7238030  41.3498270  27.6798228  76.2700357  40.5089180  27.7363418
  76.0931996  41.9859668  28.0173008  75.6670949  32.2790256  28.9098895
  74.9293706  31.7667642  29.2409138  75.9197723  31.8390638  28.0982172
  75.1670969  43.1874767  28.6148046  75.4593943  43.7479824  27.8960411
  75.6769589  43.4803328  29.3701205  75.7682576  25.0566508  29.5040664
  76.0741453  24.1963872  29.2166579  76.4935181  25.6484128  29.3039658
  70.0403656  35.3520301  30.0116855  70.0952266  34.3994138  29.9359332
  69.2294858  35.5079740  30.4958154  71.1894850  39.2800424  21.2495139
  70.7514280  38.5636283  20.7900776  71.9305291  39.5076539  20.6880230
  67.9796016  33.9697361  27.7707234  67.1663882  34.2691531  28.1772426
  68.4755010  33.5753050  28.4881716  70.1304594  43.9655118  29.7041499
  70.0880773  44.1915964  28.7750031  71.0467293  43.7318492  29.8527300
  73.5770228  34.4339185  36.6022128  73.9319616  34.6610659  37.4616594
  74.2242359  34.7657562  35.9799383  79.3067965  37.5557621  27.3071457
  79.1685863  37.7459217  26.3792646  78.9504184  38.3177004  27.7639508
  67.4710091  31.5415716  33.3868469  68.1109470  31.4004476  32.6891432
  66.6387621  31.2550230  33.0107071  79.3337344  39.6234148  32.3182729
  79.7673851  39.5309437  33.1665783  80.0468925  39.5991649  31.6802745
  73.0665239  43.2236242  33.8515829  73.1202262  43.7927179  34.6193545
  72.1980021  43.3938127  33.4869866  64.5553158  34.9861229  25.5763214
  63.6250746  34.9245684  25.7933176  64.6510630  34.4637181  24.7799856
  64.4738707  31.5116041  28.1641456  64.7345525  32.4261375  28.0550616
  65.2955880  31.0440484  28.3138069  80.1952894  39.6657849  34.8515614
  80.3888784  40.5703659  35.0974889  80.0953512  39.2065268  35.6854199
  71.8489205  29.5515740  37.3505941  71.2017120  30.2505689  37.2570418
  72.6190220  29.9851883  37.7182190  75.2568003  39.8164592  40.4256495
  75.1053509  39.5875143  39.5086578  75.2472682  40.7735193  40.4387840
  71.4189823  46.5156265  24.5226835  71.5941578  46.0444309  25.3372458
  70.7322611  47.1422032  24.7508096  72.3746886  40.7928772  30.5690137
  72.0396719  40.7529542  31.4647786  71.8750832  40.1273487  30.0960547
  75.3106078  38.1384806  20.8427196  74.6935248  37.4131634  20.7460249
  74.8422566  38.8994166  20.4994270  76.9660209  42.8483714  38.5032977
  76.9072755  42.1642934  37.8363560  77.3679728  43.5902704  38.0513603
  67.1004623  32.3570230  19.9648500  66.2234090  32.2359031  19.6010747
  67.5762377  31.5656308  19.7127389  76.9677617  40.8123298  36.7346956
  76.0804395  40.4749220  36.8573355  77.5376168  40.0806329  36.9715722
  70.2868550  44.7096521  27.2111021  69.5036071  45.2518201  27.3049245
  70.9861295  45.2270500  27.6105262  73.5965200  30.5191150  29.8545226
  74.0933899  29.7661112  29.5346297  72.8252181  30.5555467  29.2888436
  81.4494957  36.2231516  31.4963518  81.4384833  37.1056231  31.1257451
  80.5812336  35.8703066  31.3018055  72.9577453  45.3711585  35.8566358
  73.6705426  46.0059049  35.7842260  72.4667482  45.4675451  35.0406360
  74.6794980  39.2762837  27.4283650  73.7451259  39.3964300  27.2588354
  74.8571649  38.3735304  27.1643660  70.1800168  32.6608533  29.5816911
  69.8097956  32.1079573  30.2697817  70.6759261  32.0566666  29.0291911
  78.0667532  35.1180157  27.9633684  78.5327984  35.9508148  27.8893987
  78.5175032  34.6525138  28.6678942  76.1343763  41.4623978  24.9619836
  76.4103607  41.3480572  25.8713710  75.2648262  41.0641463  24.9232009
  76.0384194  27.4860744  32.0024585  75.1247274  27.7164970  32.1706792
  76.4677296  27.5699188  32.8538618  75.8090653  35.6750635  34.5024479
  75.1562103  35.9226543  33.8476932  76.1871033  34.8614774  34.1686957
  72.7697827  45.7110329  28.6052650  72.9520221  44.8931985  29.0680402
  73.5930813  45.9278021  28.1677540  73.1039992  44.6378514  25.8667698
  73.6327759  44.1270968  25.2537860  73.3668212  44.3221044  26.7313231
  71.8578226  36.4170447  40.9890516  71.1818863  36.3164576  41.6592892
  72.6805860  36.2609660  41.4526514  65.5765502  30.0712524  35.8270017
  65.6406829  30.9327355  35.4147415  65.5132622  29.4586525  35.0942376
  75.4511883  42.5498631  41.0796787  75.9951787  43.1628590  40.5851742
  74.8698728  43.1078210  41.5963800  61.8283317  33.9512085  25.4061406
  62.1236758  33.0422764  25.3528460  60.9271353  33.9299825  25.0842408
  73.7369396  45.6719350  32.2111814  73.6120536  44.8709089  31.7022760
  74.3948487  46.1665543  31.7225784  65.3577564  32.0268082  31.3888955
  64.6364150  32.6404050  31.2496428  66.1470820  32.5625847  31.3105601
  75.8004304  43.4728370  33.8391365  74.8534640  43.3533721  33.7669691
  76.1487078  42.5850868  33.9217626  68.1603878  29.3622509  37.6629606
  68.6838280  29.6084805  38.4255916  67.9416211  30.1942543  37.2432744
  63.5571159  31.6326183  25.5300731  63.2283865  30.7523562  25.3475837
  63.9110530  31.5773852  26.4177120  72.8050738  43.2681086  30.0395717
  72.6575700  42.3397793  30.2203287  73.6304231  43.2901177  29.5552792
  66.6712982  31.9199153  25.8976209  67.0109055  32.4485074  25.1754817
  67.1185103  32.2579559  26.6734775  76.4084860  44.0909645  31.1260590
  77.3331407  43.8852506  30.9885041  76.2400163  43.8426046  32.0349931
  69.3656423  30.3036204  35.3479277  69.0253243  29.5044017  35.7499957
  68.6595429  30.6037914  34.7756110  70.0172895  27.3885516  33.8006600
  70.8398964  26.9145994  33.6785490  70.2610958  28.1676000  34.3005286
  68.6581129  30.4173774  24.0969502  69.3789492  30.7955027  23.5933219
  68.0346433  31.1362651  24.2004480  72.8012252  31.1218923  25.0327834
  73.0175866  32.0043561  24.7316662  72.3206319  30.7305137  24.3033476
  67.5411473  34.0804637  31.6098579  67.3956054  34.3944940  32.5022860
  67.0636677  34.6989537  31.0569477  69.4007856  31.0707185  31.6579468
  69.3869425  30.1748278  31.3211766  70.1180284  31.0777848  32.2917754
  71.2533987  31.5044525  33.7032596  70.9951765  32.4261596  33.7016926
  70.7219027  31.1074959  34.3933060  76.1980176  44.6095312  26.4822681
  76.3717053  44.0441734  25.7296533  76.6909067  45.4096207  26.3002171
  68.8044752  29.9521565  26.9267038  68.9260663  29.0238211  27.1257926
  68.5146795  29.9660251  26.0145354  71.6735943  27.6376475  30.0633758
  71.6957639  27.7015808  29.1085738  72.0904002  26.7980984  30.2574264
  82.0519567  37.3731735  28.1012981  82.4950713  36.6239060  27.7032104
  81.1746077  37.3641871  27.7186713  77.1855348  43.9262076  23.5819579
  77.8806253  44.5468769  23.8006894  77.5278498  43.0757428  23.8571957
  79.0846771  41.3761782  25.1106910  79.6098096  41.7149055  24.3856230
  78.9969124  40.4408797  24.9270045  70.7687432  47.4433765  29.4702163
  70.3292422  46.9510144  30.1635020  71.5195549  46.9006733  29.2294238
  78.7740678  42.0094686  40.4158108  77.9836221  41.9918824  39.8762607
  78.5374032  42.5482979  41.1707145  78.8938553  38.8587152  37.7290837
  78.9436557  38.6937159  38.6706359  78.7852476  37.9914411  37.3388717
  76.1842315  34.8418080  39.0450143  77.0852178  34.7024545  38.7534141
  76.2590289  35.0072535  39.9848321  70.5185120  32.2184935  37.8903330
  69.6488430  32.5118501  37.6185918  70.7544601  32.8025380  38.6110593
  80.3956749  41.2784093  37.9732858  80.1041558  41.6414074  38.8096319
  79.7828881  40.5651102  37.7946190  81.5952432  38.8436973  30.4935428
  82.4299323  39.2826777  30.6572989  81.7311560  38.3675626  29.6743674
  78.6443938  36.4016708  36.4412916  79.1198059  36.5944354  35.6331767
  77.7209503  36.4575894  36.1956300  73.2224154  28.4364552  35.4068750
  73.7406098  29.1725579  35.0815239  72.8679287  28.7428545  36.2415509
  64.8023092  33.2969233  23.5230156  64.1092337  33.3713588  22.8670192
  64.5574844  32.5329576  24.0451673  73.4736748  24.8564834  30.9269647
  73.7538502  24.1888023  31.5530073  74.2587355  25.0493930  30.4144310
  71.2770217  44.0323828  22.4894673  70.7044184  44.6514015  22.0365145
  71.8503010  44.5823190  23.0234595  77.3445607  33.2782468  34.6741222
  78.2963030  33.3780566  34.6953446  77.1749057  32.4860737  35.1839306
  75.3659986  30.3638051  34.8600623  74.7709918  30.6443064  34.1647111
  75.0809683  30.8531952  35.6317364  74.4967477  44.3160978  23.6203255
  75.4298150  44.2506540  23.8236131  74.4090689  45.1517245  23.1617788
  77.1255493  43.6326849  20.5807203  77.0469125  43.2986712  21.4742961
  77.9465160  44.1248616  20.5798675  79.8233684  36.4988588  33.7883521
  79.7910005  35.5604589  33.9743205  80.4334308  36.5772625  33.0549346
  71.6617015  35.3684641  19.8310725  72.6076120  35.2390849  19.8999143
  71.2831260  34.6299303  20.3080154  79.9728173  33.2899631  33.8341805
  79.4567222  32.5058088  33.6471733  80.8568121  32.9618348  33.9988324
  77.6338900  27.0340647  29.7937617  77.4363721  26.7255735  30.6780949
  78.2438605  27.7602286  29.9235547  85.6410234  37.5604595  32.9289558
  86.3713623  37.2989883  33.4897261  85.0317180  36.8233317  32.9691626
  83.7225531  35.7012457  33.5264009  82.9958695  35.5668422  32.9180501
  83.3072818  36.0089286  34.3320727  71.5455708  39.4202387  41.2911382
  72.4658717  39.5980986  41.4851429  71.5105291  38.4758432  41.1391082
  69.8459932  33.2934617  19.7665611  68.9391388  32.9967730  19.8428324
  70.1235913  32.9964435  18.8999897  71.4621998  27.8371507  25.9209852
  70.6522726  27.4918592  26.2965098  72.1506415  27.5279051  26.5097463
  73.3912546  26.9149554  27.5434149  73.9443585  27.3345007  28.2024172
  73.6282633  25.9885302  27.5857105  68.6158717  30.1521552  19.9077590
  69.4777881  30.4776451  20.1673407  68.8009061  29.3653048  19.3950656
  76.7691354  29.0250079  27.0512813  76.1890023  29.6834883  26.6690865
  76.5027286  28.2027424  26.6400230  75.2194920  28.4255137  29.2534133
  75.7194698  28.5371671  28.4448452  75.8630528  28.1216189  29.8934942
  75.5516232  31.1850169  26.1069161  74.6642087  31.4699820  25.8889356
  75.9670221  31.0243933  25.2596438  78.9030768  31.2096690  29.8223500
  79.6791158  31.6993143  30.0948117  78.1778902  31.6354744  30.2795370
  81.3403326  31.9224309  30.8797441  81.9347817  31.6820045  30.1690749
  81.4129910  31.2031440  31.5070977  74.6959445  40.9494844  20.2017181
  75.3995295  41.1544846  20.8174837  73.9722094  41.5171606  20.4666265
  75.5257255  36.7004705  26.3219451  75.4692457  37.1573257  25.4827084
  76.0785598  35.9395390  26.1442294  79.3362061  32.4894437  27.1469571
  79.0798995  32.0891073  27.9777778  78.7114929  33.2038231  27.0219710
  83.6474399  35.2290510  29.6540862  83.0873957  35.2983700  30.4272424
  83.0417902  35.0531495  28.9340358  76.6046142  41.3877373  22.2515641
  77.4391746  40.9558572  22.0693116  76.4430485  41.2159387  23.1792536
  76.2592035  37.8909486  23.6171980  76.2040838  37.7253758  22.6760424
  75.6338090  38.5985519  23.7734170  73.5737942  40.1958398  42.9425543
  74.4429101  40.3699051  42.5812178  73.0944693  41.0152815  42.8201273
  69.5688160  27.3917595  23.1957299  69.5566830  28.3359435  23.3525570
  70.4611582  27.2087741  22.9016760  67.7424122  47.3155499  34.6214977
  68.6451369  47.3479110  34.9381472  67.5161492  46.3855950  34.6361313
  69.4977724  46.0686486  31.2825055  68.5473355  46.0688347  31.1689428
  69.8010210  45.3219220  30.7661090  73.3840280  23.9860372  27.4503236
  72.6172675  23.4318859  27.5959918  73.7950984  24.0582241  28.3117387
  85.2330418  51.9047024  32.3470818  85.8708827  51.7853772  31.6434158
  85.1151260  52.8527868  32.4058770  82.0420124  51.8574452  32.2832343
  81.7038635  51.7415517  31.3952877  82.9109892  51.4565617  32.2633349
  77.9006939  53.7109929  28.2729233  77.3371805  53.6199866  27.5045521
  77.7859335  52.8909833  28.7531726  82.5239907  53.0109304  38.2418548
  82.5128548  52.6162102  37.3699052  82.6860546  52.2775377  38.8352320
  75.4471371  55.2061120  31.1113454  76.2392663  54.8651945  30.6959753
  75.6868022  55.3156095  32.0315607  83.4806498  57.3780896  23.5843698
  82.8294478  57.9634977  23.1977712  84.2750861  57.9087091  23.6438736
  77.4062125  54.4670034  23.9830833  78.1793001  53.9199021  23.8443709
  77.7587524  55.3314283  24.1945294  79.2447168  55.7946416  37.1897732
  78.9537034  56.6992047  37.0744398  79.8804152  55.8362944  37.9041802
  80.1703375  53.1723264  33.7799092  80.7666947  52.9479287  33.0656055
  80.2278346  52.4308010  34.3824540  79.7428403  50.6262700  21.6149283
  79.9953924  50.1044221  20.8532746  78.8052962  50.4628845  21.7175966
  84.7871686  49.6298478  29.4224026  85.5734775  49.2117901  29.0714443
  85.0510390  50.5344570  29.5905674  84.9581763  55.0671328  24.1212683
  84.3227596  55.1405955  24.8333587  84.6279170  55.6564927  23.4431762
  79.4624692  52.5290806  23.8173658  79.3460950  51.8535709  24.4854742
  79.5726952  52.0423180  23.0005811  81.8056233  51.9900953  27.5220347
  81.4414440  51.4631574  28.2333268  82.6623349  51.5999422  27.3486832
  87.7105533  43.2795285  34.7851613  87.3788858  44.1490696  34.5612828
  87.1151147  42.9631569  35.4645643  81.4461720  47.0190853  22.5181695
  81.6136122  47.8871089  22.8852166  81.2558889  47.1818134  21.5942985
  84.2037053  55.4807831  34.1847526  83.9037776  56.3832870  34.0763333
  83.8588113  55.2140015  35.0368679  77.6549534  51.9321628  30.2184230
  76.7300031  51.7997842  30.4261922  77.9033948  52.7115848  30.7154173
  87.6034197  47.9990372  31.8644963  86.6951074  47.9305780  31.5703724
  87.5521793  48.4762317  32.6926789  81.4250941  49.4748510  23.5028362
  81.3050566  49.9205561  24.3413842  80.7303529  49.8233828  22.9441900
  75.0158346  51.5754902  31.0528019  75.1450727  51.8289381  31.9667431
  74.3355797  52.1682610  30.7332674  79.1857833  62.2452152  27.1518493
  79.1081862  63.1959977  27.2306974  78.5819476  61.8998024  27.8093420
  81.6775063  49.4180017  39.8079860  80.9008397  49.9773937  39.7982725
  82.3165626  49.9036800  40.3294730  87.1236007  49.9469983  24.3308696
  88.0353863  50.1797370  24.1556394  86.6145654  50.5307027  23.7683775
  79.9321435  52.2265471  39.3697827  80.6736119  52.7650515  39.0932651
  79.2258420  52.8531759  39.5269379  85.4076775  54.3694611  37.9669989
  85.8160131  53.9277022  37.2224621  84.6854036  53.7947239  38.2204182
  81.7607845  49.3067218  35.3403546  82.6069040  49.7306631  35.4838195
  81.7006482  48.6500842  36.0342109  85.7305589  54.9295802  31.7222278
  85.1014452  55.0941516  31.0198346  85.3431251  55.3437411  32.4933242
  84.9107290  46.9671586  36.9984719  84.6668222  47.7213647  36.4618995
  85.1867220  47.3456934  37.8331966  86.8645753  53.5110199  35.6761985
  87.0762648  54.1541958  34.9996366  86.8175501  52.6772515  35.2083915
  84.4671982  46.1228019  32.5798557  83.6056461  46.4209273  32.8715295
  84.4934416  46.3398418  31.6479590  81.2833551  54.6670210  28.9872363
  81.7471897  54.9457913  28.1976985  81.0190349  53.7653654  28.8045453
  78.1757632  54.2141691  31.9252126  78.7458989  54.6428960  31.2869611
  78.7665744  53.9324276  32.6236312  80.2202437  50.7893362  25.7961928
  80.9226480  51.2414406  26.2635854  79.8883066  50.1477181  26.4241821
  78.6682799  49.3805119  40.1713137  78.0381459  50.0621400  40.4048534
  78.5618887  49.2688200  39.2266276  73.9627771  49.0476915  31.0979061
  73.1726825  49.3034443  30.6219172  74.4539018  49.8625253  31.2031102
  75.9142516  49.4121494  28.0562538  75.1173680  49.5240188  28.5746034
  75.6868109  49.7508146  27.1903429  81.7448184  55.9366197  36.0045053
  81.8092617  56.3986604  36.8403225  81.0359108  55.3063562  36.1327363
  72.2465474  49.3007405  33.5294052  72.4973512  50.1854415  33.7951628
  72.7825022  49.1212007  32.7569144  81.4596202  57.6034305  25.8724033
  81.3241877  58.4485840  26.3008881  82.0006014  57.8053582  25.1089967
  77.9463541  43.6825885  42.5338388  77.5530487  43.1292083  43.2086033
  78.7629682  43.9936463  42.9244906  74.9125599  55.1209743  26.4451958
  75.4250120  55.9152993  26.5957523  75.5648312  54.4236033  26.3785560
  76.7220484  58.2375499  28.5274711  76.8987112  59.1593464  28.3395695
  77.5177317  57.9233918  28.9569091  80.8631502  45.0983764  40.1258645
  81.6041216  45.6990917  40.0463107  81.0949425  44.3561401  39.5676687
  76.0072840  50.2840131  38.4036875  75.8926355  49.3825388  38.7043974
  75.1517358  50.5303828  38.0521691  83.0864678  58.2257871  40.0024375
  82.6428532  57.4394250  39.6845280  83.7481892  58.4137022  39.3368266
  77.8451799  59.7553673  34.5285054  78.3959224  59.6270736  33.7562048
  77.0063275  60.0548562  34.1779947  85.1845916  58.5060671  38.0305776
  85.1664392  59.3269552  37.5386046  86.1065836  58.3814746  38.2555918
  81.6418970  56.0204801  38.8729285  82.1747307  55.2593089  38.6428593
  81.1133051  55.7278452  39.6153439  84.8088665  41.1264867  34.4022927
  84.4652935  42.0166508  34.3262037  85.1767628  40.9366524  33.5392512
  72.8774516  53.4498397  27.2211529  73.7149738  53.8595405  27.0045236
  73.0552784  52.5097839  27.1911723  84.7738948  51.1173478  22.9095362
  84.2585571  51.8878082  23.1483749  84.5016256  50.4438614  23.5328423
  82.3586059  45.9623178  27.9680600  81.5027655  45.5730029  27.7886239
  82.7713011  46.0415139  27.1080386  83.8885206  43.4969522  32.3672160
  83.3850001  43.4599657  31.5539965  84.1815813  44.4062264  32.4268817
  80.1328092  43.5808251  31.3738342  80.9981088  43.3851060  31.0144231
  80.2005600  43.3518603  32.3007698  84.5625251  48.9900570  24.7355143
  84.2575387  49.3046719  25.5865286  85.5155693  49.0681990  24.7782476
  83.0071683  55.1490793  26.3848097  82.4793045  54.4143553  26.0721334
  82.5059186  55.9265469  26.1388065  77.7390411  45.8110459  28.7454708
  78.3134163  45.5885641  28.0127901  78.3261393  45.8799154  29.4983310
  86.7969988  51.6984186  29.5519085  87.3101870  52.3314178  30.0540795
  87.4471212  51.0985382  29.1862445  78.0659998  47.8414920  22.7650594
  77.2297310  48.1789607  23.0859868  77.9264767  47.7063900  21.8277731
  80.0413078  42.6851708  27.4729778  79.3877491  42.3700725  26.8486393
  79.9993552  42.0627449  28.1989601  81.1524283  52.9671003  19.3883070
  80.2451345  52.7360257  19.5874219  81.6495315  52.1708623  19.5757051
  84.0592362  61.6768511  22.3079756  83.3854061  61.9800207  22.9164714
  84.4458184  62.4797591  21.9585213  83.2750819  49.1733642  31.7977425
  82.3573380  49.3948589  31.6399114  83.6910962  49.2479952  30.9389133
  84.0585866  50.5725058  26.9280106  84.8057685  51.0846455  26.6187228
  84.3277456  50.2509110  27.7884499  82.3312517  53.0683598  23.9107060
  81.4223736  52.7842631  24.0079530  82.3607600  53.4882677  23.0510367
  87.5631784  56.6790188  27.6798228  87.1094111  55.8381098  27.7363418
  86.9325751  57.3151586  28.0173008  86.5064704  47.6082174  28.9098895
  85.7687460  47.0959560  29.2409138  86.7591477  47.1682555  28.0982172
  86.0064723  58.5166684  28.6148046  86.2987698  59.0771742  27.8960411
  86.5163344  58.8095245  29.3701205  86.6076331  40.3858426  29.5040664
  86.9135208  39.5255789  29.2166579  87.3328936  40.9776046  29.3039658
  72.9000687  50.7889112  27.8922262  72.7025087  50.1958473  27.1673329
  72.3447351  50.4841323  28.6098201  80.8797411  50.6812219  30.0116855
  80.9346020  49.7286055  29.9359332  80.0688613  50.8371658  30.4958154
  82.0288604  54.6092342  21.2495139  81.5908034  53.8928201  20.7900776
  82.7699045  54.8368457  20.6880230  78.8189771  49.2989279  27.7707234
  78.0057636  49.5983449  28.1772426  79.3148765  48.9044967  28.4881716
  80.9698348  59.2947036  29.7041499  80.9274527  59.5207882  28.7750031
  81.8861047  59.0610410  29.8527300  84.4163982  49.7631103  36.6022128
  84.7713370  49.9902576  37.4616594  85.0636114  50.0949480  35.9799383
  78.3103845  46.8707634  33.3868469  78.9503225  46.7296393  32.6891432
  77.4781376  46.5842148  33.0107071  79.0864149  56.1710065  29.5003462
  79.8804748  55.6760385  29.2986037  78.3755842  55.6427928  29.1371167
  83.9058994  58.5528160  33.8515829  83.9596016  59.1219096  34.6193545
  83.0373775  58.7230045  33.4869866  75.3946913  50.3153146  25.5763214
  74.4644501  50.2537602  25.7933176  75.4904385  49.7929099  24.7799856
  75.3132462  46.8407959  28.1641456  75.5739279  47.7553292  28.0550616
  76.1349634  46.3732402  28.3138069  76.7857387  48.2545716  35.3340280
  77.4580441  48.0463078  34.6852929  75.9587174  48.0567802  34.8945513
  82.6882959  44.8807657  37.3505941  82.0410874  45.5797607  37.2570418
  83.4583975  45.3143801  37.7182190  86.0961757  55.1456509  40.4256495
  85.9447263  54.9167061  39.5086578  86.0866437  56.1027111  40.4387840
  82.8647093  52.7188422  35.4102761  83.7939153  52.8699582  35.2371728
  82.4438123  52.8072443  34.5551408  81.6635425  56.7439087  33.1801299
  81.5246511  56.3757871  34.0527237  80.8750021  57.2586726  33.0085257
  82.2583577  61.8448183  24.5226835  82.4335333  61.3736226  25.3372458
  81.5716365  62.4713949  24.7508096  83.2140640  56.1220689  30.5690137
  82.8790473  56.0821459  31.4647786  82.7144586  55.4565405  30.0960547
  77.1884884  51.5288319  36.0942718  77.0504682  50.7968558  36.6954257
  78.0989808  51.4397219  35.8126905  86.1499832  53.4676724  20.8427196
  85.5329003  52.7423552  20.7460249  85.6816321  54.2286084  20.4994270
  79.8167185  51.2408279  35.5826397  80.5266804  50.6001471  35.5413016
  79.7736493  51.4921173  36.5052578  87.8053964  58.1775632  38.5032977
  87.7466510  57.4934852  37.8363560  88.2073482  58.9194622  38.0513603
  78.5296119  48.2273496  37.4022037  77.9933476  47.7764235  38.0543633
  77.9412827  48.3619405  36.6592501  76.8244663  64.9937546  31.2966695
  77.0641261  65.6256070  31.9745714  75.9813859  64.6425586  31.5832055
  77.9398378  47.6862148  19.9648500  77.0627844  47.5650949  19.6010747
  78.4156131  46.8948226  19.7127389  69.4600518  52.4739308  30.0590008
  70.1471558  52.1601038  29.4711023  69.3048647  53.3780672  29.7857259
  74.2635240  47.3629504  34.4875031  74.1793429  46.7555174  33.7525441
  73.4417947  47.8538522  34.4884528  81.3372524  60.8016668  33.7008199
  81.2642696  61.6071640  34.2127504  80.8949917  61.0008634  32.8756221
  81.1262304  60.0388438  27.2111021  80.3429826  60.5810118  27.3049245
  81.8255049  60.5562418  27.6105262  84.4358954  45.8483068  29.8545226
  84.9327654  45.0953030  29.5346297  83.6645936  45.8847384  29.2888436
  83.7971208  60.7003502  35.8566358  84.5099180  61.3350967  35.7842260
  83.3061237  60.7967368  35.0406360  85.5188735  54.6054755  27.4283650
  84.5845014  54.7256217  27.2588354  85.6965403  53.7027222  27.1643660
  81.0193923  47.9900451  29.5816911  80.6491710  47.4371491  30.2697817
  81.5153015  47.3858584  29.0291911  78.8483121  58.4497946  36.6771929
  79.5492581  59.0834429  36.8301323  78.3778236  58.7912677  35.9167568
  86.9737517  56.7915895  24.9619836  87.2497361  56.6772490  25.8713710
  86.1042016  56.3933380  24.9232009  86.8777949  42.8152661  32.0024585
  85.9641029  43.0456888  32.1706792  87.3071050  42.8991105  32.8538618
  86.6484407  51.0042553  34.5024479  85.9955858  51.2518461  33.8476932
  87.0264787  50.1906691  34.1686957  83.6091581  61.0402246  28.6052650
  83.7913976  60.2223902  29.0680402  84.4324567  61.2569939  28.1677540
  83.9433747  59.9670431  25.8667698  84.4721513  59.4562886  25.2537860
  84.2061966  59.6512962  26.7313231  82.6971980  51.7462364  40.9890516
  82.0212617  51.6456494  41.6592892  83.5199614  51.5901578  41.4526514
  74.4450839  57.9834301  33.6103032  75.0304276  57.2377989  33.7430936
  74.2475678  58.2938257  34.4939695  77.2989495  61.0185548  28.6265474
  76.6299870  61.5031676  28.1429514  77.1602364  61.2654769  29.5408852
  81.4394763  63.0529292  35.2248132  81.9913071  63.2160913  35.9897218
  81.7800957  63.6433729  34.5528157  76.4159257  45.4004441  35.8270017
  76.4800583  46.2619272  35.4147415  76.3526377  44.7878443  35.0942376
  75.8911529  47.4727574  39.4743051  76.5183568  47.0904651  40.0880576
  75.0339448  47.2541776  39.8398744  86.2905638  57.8790549  41.0796787
  86.8345542  58.4920507  40.5851742  85.7092482  58.4370128  41.5963800
  72.6677072  49.2804003  25.4061406  72.9630513  48.3714682  25.3528460
  71.7665108  49.2591743  25.0842408  84.5763151  61.0011267  32.2111814
  84.4514290  60.2001007  31.7022760  85.2342242  61.4957461  31.7225784
  76.1971319  47.3560000  31.3888955  75.4757905  47.9695967  31.2496428
  76.9864575  47.8917765  31.3105601  86.6398059  58.8020287  33.8391365
  85.6928394  58.6825638  33.7669691  86.9880832  57.9142785  33.9217626
  78.9997632  44.6914426  37.6629606  79.5232034  44.9376723  38.4255916
  78.7809966  45.5234461  37.2432744  74.3964913  46.9618101  25.5300731
  74.0677620  46.0815480  25.3475837  74.7504284  46.9065769  26.4177120
  83.6444492  58.5973003  30.0395717  83.4969455  57.6689711  30.2203287
  84.4697986  58.6193094  29.5552792  77.5106737  47.2491071  25.8976209
  77.8502809  47.7776992  25.1754817  77.9578857  47.5871477  26.6734775
  87.2478614  59.4201562  31.1260590  88.1725162  59.2144424  30.9885041
  87.0793917  59.1717963  32.0349931  80.2050177  45.6328121  35.3479277
  79.8646998  44.8335934  35.7499957  79.4989184  45.9329832  34.7756110
  80.8566649  42.7177434  33.8006600  81.6792719  42.2437912  33.6785490
  81.1004713  43.4967917  34.3005286  79.4974884  45.7465692  24.0969502
  80.2183246  46.1246945  23.5933219  78.8740188  46.4654569  24.2004480
  83.6406007  46.4510841  25.0327834  83.8569621  47.3335479  24.7316662
  83.1600074  46.0597055  24.3033476  78.3805228  49.4096554  31.6098579
  78.2349809  49.7236857  32.5022860  77.9030432  50.0281455  31.0569477
  80.2401611  46.3999102  31.6579468  80.2263180  45.5040196  31.3211766
  80.9574039  46.4069766  32.2917754  82.0927742  46.8336443  33.7032596
  81.8345519  47.7553513  33.7016926  81.5612782  46.4366877  34.3933060
  87.0373930  59.9387230  26.4822681  87.2110808  59.3733652  25.7296533
  87.5302822  60.7388125  26.3002171  72.8550890  51.9501899  34.5486240
  72.3104358  52.7261707  34.6806514  73.7330240  52.2972703  34.3905361
  79.6438507  45.2813483  26.9267038  79.7654418  44.3530129  27.1257926
  79.3540549  45.2952169  26.0145354  82.5129697  42.9668393  30.0633758
  82.5351394  43.0307726  29.1085738  82.9297756  42.1272902  30.2574264
  73.6416912  51.0771795  37.4416397  72.8998648  51.2254430  38.0281027
  73.3209656  51.3380061  36.5783146  81.5860575  60.6187773  37.2396787
  81.8947701  60.3736920  38.1119486  82.3836057  60.8234412  36.7515657
  81.6081187  62.7725683  29.4702163  81.1686177  62.2802062  30.1635020
  82.3589304  62.2298651  29.2294238  74.0873526  58.9637224  29.4726791
  74.9131546  58.6640996  29.0925435  73.7367578  58.1944846  29.9216580
  79.0555059  58.3163692  31.5424465  78.4335068  57.6534397  31.2426693
  79.7259926  58.3424824  30.8598113  72.2882131  56.8823550  30.4315725
  71.4514039  56.4545725  30.2499726  72.2605776  57.0755994  31.3686516
  79.1279586  46.7945480  41.1356971  79.1767742  47.6707603  40.7534741
  79.6702101  46.2522873  40.5628614  78.6168566  56.8667615  25.0182925
  78.7656686  57.5503080  24.3649598  79.4235009  56.8472705  25.5332381
  87.0236069  50.1709998  39.0450143  87.9245932  50.0316462  38.7534141
  87.0984044  50.3364452  39.9848321  81.3578875  47.5476852  37.8903330
  80.4882184  47.8410418  37.6185918  81.5938355  48.1317297  38.6110593
  76.3721199  52.8932793  26.0243994  76.1267241  51.9895123  26.2224204
  76.5417113  52.8949943  25.0823472  84.0617909  43.7656469  35.4068750
  84.5799852  44.5017496  35.0815239  83.7073041  44.0720463  36.2415509
  75.6416846  48.6261151  23.5230156  74.9486091  48.7005506  22.8670192
  75.3968598  47.8621494  24.0451673  84.3130503  40.1856752  30.9269647
  84.5932257  39.5179941  31.5530073  85.0981110  40.3785847  30.4144310
  82.1163971  59.3615746  22.4894673  81.5437938  59.9805933  22.0365145
  82.6896765  59.9115107  23.0234595  86.2053741  45.6929969  34.8600623
  85.6103673  45.9734982  34.1647111  85.9203437  46.1823870  35.6317364
  85.3361231  59.6452896  23.6203255  86.2691904  59.5798458  23.8236131
  85.2484444  60.4809163  23.1617788  82.5010770  50.6976559  19.8310725
  83.4469874  50.5682767  19.8999143  82.1225015  49.9591220  20.3080154
  82.3849462  54.7494305  41.2911382  83.3052472  54.9272904  41.4851429
  82.3499045  53.8050350  41.1391082  80.6853687  48.6226535  19.7665611
  79.7785142  48.3259648  19.8428324  80.9629668  48.3256353  18.8999897
  71.6031627  49.9432898  30.2164657  71.2834412  49.0898207  29.9239031
  71.0565055  50.1581476  30.9722624  75.3811535  52.6595339  33.9334164
  75.5997545  53.5912447  33.9522197  75.7937309  52.3003314  34.7188967
  82.3015753  43.1663425  25.9209852  81.4916481  42.8210510  26.2965098
  82.9900170  42.8570968  26.5097463  84.2306301  42.2441471  27.5434149
  84.7837340  42.6636925  28.2024172  84.4676387  41.3177220  27.5857105
  80.2539400  48.2328545  43.3236912  80.1536127  49.1822902  43.2549004
  80.0360942  47.9046784  42.4512983  79.4552472  45.4813470  19.9077590
  80.3171636  45.8068368  20.1673407  79.6402816  44.6944966  19.3950656
  71.4719887  53.5635810  32.1857779  70.7783359  53.1489763  31.6727733
  72.2192878  53.6056346  31.5891197  87.6085108  44.3541997  27.0512813
  87.0283777  45.0126801  26.6690865  87.3421041  43.5319341  26.6400230
  86.0588674  43.7547054  29.2534133  86.5588453  43.8663589  28.4448452
  86.7024282  43.4508107  29.8934942  80.1170670  51.6625684  42.1401974
  79.6337752  52.4626044  42.3465863  80.2031609  51.6733629  41.1869418
  73.3856630  53.4954064  30.0623793  73.3627318  53.5941751  29.1105677
  73.6957266  54.3419214  30.3840960  76.0444008  55.5530219  34.1770408
  76.9987261  55.5214161  34.1100339  75.8456531  55.0920842  34.9920634
  76.6343390  54.1231335  36.7441206  77.4536279  54.6175413  36.7676043
  76.9080198  53.2063303  36.7158773  86.3909986  46.5142087  26.1069161
  85.5035841  46.7991738  25.8889356  86.8063975  46.3535850  25.2596438
  74.3994236  61.0949838  31.1940606  74.2648704  60.3350239  30.6278604
  73.9826299  61.8190738  30.7269395  85.5353199  56.2786762  20.2017181
  86.2389050  56.4836764  20.8174837  84.8115848  56.8463524  20.4666265
  86.3651010  52.0296623  26.3219451  86.3086211  52.4865174  25.4827084
  86.9179352  51.2687307  26.1442294  77.5563362  61.9919155  31.4059048
  77.4395747  62.9364588  31.3037739  76.7355809  61.6892717  31.7944848
  87.4439897  56.7169291  22.2515641  88.2785501  56.2850489  22.0693116
  87.2824240  56.5451305  23.1792536  87.0985789  53.2201404  23.6171980
  87.0434593  53.0545676  22.6760424  86.4731844  53.9277437  23.7734170
  84.4131696  55.5250316  42.9425543  85.2822856  55.6990968  42.5812178
  83.9338448  56.3444733  42.8201273  80.4081915  42.7209513  23.1957299
  80.3960584  43.6651353  23.3525570  81.3005336  42.5379659  22.9016760
  78.5817876  62.6447417  34.6214977  79.4845123  62.6771027  34.9381472
  78.3555247  61.7147868  34.6361313  80.3371479  61.3978404  31.2825055
  79.3867110  61.3980265  31.1689428  80.6403965  60.6511138  30.7661090
  84.2234034  39.3152290  27.4503236  83.4566430  38.7610776  27.5959918
  84.6344739  39.3874159  28.3117387  76.2275795  45.6037086  41.5408417
  77.0907257  45.2473890  41.7511741  75.6541206  45.2650980  42.2283821
  86.2865126  70.5353038  31.1113454  87.0786418  70.1943863  30.6959753
  86.5261776  70.6448013  32.0315607  85.8552100  66.9046819  31.0528019
  85.9844481  67.1581298  31.9667431  85.1749551  67.4974527  30.7332674
  84.8021526  64.3768832  31.0979061  84.0120580  64.6326361  30.6219172
  85.2932773  65.1917170  31.2031102  86.7536271  64.7413412  28.0562538
  85.9567434  64.8532106  28.5746034  86.5261863  65.0800064  27.1903429
  83.0859229  64.6299323  33.5294052  83.3367267  65.5146333  33.7951628
  83.6218777  64.4503924  32.7569144  85.7519354  70.4501660  26.4451958
  86.2643874  71.2444911  26.5957523  86.4042066  69.7527951  26.3785560
  86.8466595  65.6132049  38.4036875  86.7320110  64.7117306  38.7043974
  85.9911113  65.8595745  38.0521691  83.7168270  68.7790315  27.2211529
  84.5543492  69.1887323  27.0045236  83.8946538  67.8389757  27.1911723
  83.7394442  66.1181030  27.8922262  83.5418841  65.5250391  27.1673329
  83.1841106  65.8133240  28.6098201  86.2340667  65.6445064  25.5763214
  85.3038255  65.5829519  25.7933176  86.3298139  65.1221017  24.7799856
  86.1526216  62.1699877  28.1641456  86.4133034  63.0845210  28.0550616
  86.9743389  61.7024319  28.3138069  87.6251142  63.5837634  35.3340280
  88.2974195  63.3754996  34.6852929  86.7980928  63.3859720  34.8945513
  80.2994273  67.8031225  30.0590008  80.9865312  67.4892955  29.4711023
  80.1442401  68.7072590  29.7857259  85.1028995  62.6921422  34.4875031
  85.0187183  62.0847091  33.7525441  84.2811701  63.1830440  34.4884528
  85.2844594  73.3126218  33.6103032  85.8698031  72.5669906  33.7430936
  85.0869432  73.6230175  34.4939695  79.8762249  65.8831819  32.3307475
  79.9146348  65.3495409  33.1244593  79.3702542  65.3567024  31.7118452
  87.2553011  60.7296359  35.8270017  87.3194338  61.5911190  35.4147415
  87.1920131  60.1170361  35.0942376  86.7305284  62.8019492  39.4743051
  87.3577322  62.4196569  40.0880576  85.8733202  62.5833694  39.8398744
  83.5070826  64.6095921  25.4061406  83.8024267  63.7006599  25.3528460
  82.6058862  64.5883660  25.0842408  87.0365073  62.6851917  31.3888955
  86.3151659  63.2987885  31.2496428  87.8258329  63.2209682  31.3105601
  85.2358668  62.2910018  25.5300731  84.9071374  61.4107397  25.3475837
  85.5898039  62.2357687  26.4177120  83.6944645  67.2793816  34.5486240
  83.1498113  68.0553624  34.6806514  84.5723994  67.6264621  34.3905361
  84.4810666  66.4063713  37.4416397  83.7392403  66.5546348  38.0281027
  84.1603411  66.6671978  36.5783146  84.9267280  74.2929141  29.4726791
  85.7525300  73.9932913  29.0925435  84.5761332  73.5236764  29.9216580
  83.1275885  72.2115468  30.4315725  82.2907794  71.7837642  30.2499726
  83.0999531  72.4047911  31.3686516  87.2114953  68.2224711  26.0243994
  86.9660995  67.3187041  26.2224204  87.3810868  68.2241861  25.0823472
  86.4810601  63.9553068  23.5230156  85.7879846  64.0297423  22.8670192
  86.2362353  63.1913412  24.0451673  82.4425382  65.2724816  30.2164657
  82.1228166  64.4190124  29.9239031  81.8958810  65.4873394  30.9722624
  86.2205289  67.9887257  33.9334164  86.4391299  68.9204365  33.9522197
  86.6331063  67.6295231  34.7188967  82.3113642  68.8927727  32.1857779
  81.6177113  68.4781680  31.6727733  83.0586633  68.9348264  31.5891197
  84.2250384  68.8245981  30.0623793  84.2021072  68.9233669  29.1105677
  84.5351021  69.6711132  30.3840960  86.8837762  70.8822136  34.1770408
  87.8381016  70.8506079  34.1100339  86.6850286  70.4212760  34.9920634
  87.4737144  69.4523252  36.7441206  88.2930033  69.9467331  36.7676043
  87.7473952  68.5355220  36.7158773  85.2387991  76.4241756  31.1940606
  85.1042459  75.6642157  30.6278604  84.8220053  77.1482656  30.7269395
  82.7272059  63.7861386  37.4433403  83.3730922  63.2760340  37.9320628
  82.5189210  64.5230068  38.0176828  87.0669550  60.9329003  41.5408417
  87.9301011  60.5765808  41.7511741  86.4934960  60.5942898  42.2283821
  57.5070325   8.5930439  13.8763800  57.4294355   9.5438264  13.9552281
  56.9031969   8.2476312  14.5338726  59.7808694   3.9512592  12.5969340
  59.6454369   4.7964128  13.0254188  60.3218506   4.1531870  11.8335274
  55.0432976   4.5853786  15.2520018  55.2199604   5.5071751  15.0641002
  55.8389810   4.2712205  15.6814398  61.4077170   4.5736158  26.7269682
  60.9641025   3.7872537  26.4090586  62.0694384   4.7615309  26.0613573
  56.1664292   6.1031960  21.2530360  56.7171717   5.9749023  20.4807354
  55.3275767   6.4026849  20.9025253  62.3804854   8.0246798   9.0325063
  61.7066553   8.3278495   9.6410021  62.7670676   8.8275878   8.6830520
  64.3277216   4.8644972  15.3393352  64.6200190   5.4250029  14.6205718
  64.8375836   5.1573533  16.0946511  59.2910841   5.6425323  16.4286806
  59.2487020   5.8686169  15.4995338  60.2073540   5.4088697  16.5772607
  62.2271486   4.9006447  20.5761136  62.2808508   5.4697384  21.3438852
  61.3586267   5.0708332  20.2115173  60.5796070   8.1926470  11.2472142
  60.7547825   7.7214513  12.0617765  59.8928858   8.8192236  11.4753403
  55.1457155  11.3415833  18.0212002  55.3853753  11.9734357  18.6991021
  54.3026351  10.9903873  18.3077361  59.6585017   7.1494955  20.4253506
  59.5855188   7.9549927  20.9372811  59.2162410   7.3486921  19.6001527
  59.4474796   6.3866725  13.9356328  58.6642318   6.9288406  14.0294552
  60.1467541   6.9040705  14.3350569  62.1183700   7.0481789  22.5811665
  62.8311672   7.6829254  22.5087566  61.6273729   7.1445655  21.7651667
  57.1695614   4.7976233  23.4017236  57.8705073   5.4312716  23.5546630
  56.6990729   5.1390964  22.6412875  61.9304074   7.3880534  15.3297956
  62.1126468   6.5702190  15.7925708  62.7537060   7.6048226  14.8922846
  62.2646239   6.3148719  12.5913005  62.7934005   5.8041173  11.9783167
  62.5274459   5.9991249  13.4558538  52.7663332   4.3312588  20.3348338
  53.3516769   3.5856276  20.4676242  52.5688170   4.6416545  21.2185002
  55.6201987   7.3663835  15.3510781  54.9512362   7.8509963  14.8674821
  55.4814857   7.6133056  16.2654159  59.7607256   9.4007579  21.9493439
  60.3125564   9.5639200  22.7142524  60.1013449   9.9912017  21.2773464
  62.8975643   7.3489554  18.9357121  62.7726782   6.5479294  18.4268067
  63.5554734   7.8435748  18.4471091  61.9656985   4.9451291  16.7641023
  61.8181947   4.0167998  16.9448593  62.7910478   4.9671381  16.2798099
  65.5691106   5.7679849  17.8505896  66.4937654   5.5622711  17.7130347
  65.4006410   5.5196251  18.7595238  65.3586423   6.2865517  13.2067988
  65.5323300   5.7211939  12.4541840  65.8515314   7.0866412  13.0247478
  59.9073067   6.9666060  23.9642093  60.2160193   6.7215207  24.8364793
  60.7048549   7.1712699  23.4760964  59.9293679   9.1203970  16.1947470
  59.4898669   8.6280349  16.8880327  60.6801796   8.5776938  15.9539545
  52.4086018   5.3115511  16.1972098  53.2344038   5.0119283  15.8170741
  52.0580070   4.5423133  16.6461887  57.3767551   4.6641979  18.2669772
  56.7547560   4.0012684  17.9671999  58.0472418   4.6903111  17.5843419
  50.6094623   3.2301837  17.1561032  49.7726531   2.8024012  16.9745033
  50.5818268   3.4234281  18.0931823  56.9381058   3.2145903  11.7428232
  57.0869178   3.8981367  11.0894905  57.7447501   3.1950993  12.2577688
  60.4376464   5.7094033   9.2139980  59.8650431   6.3284220   8.7610451
  61.0109257   6.2593395   9.7479901  49.7932380  -0.0885903  18.9103085
  49.0995851  -0.5031950  18.3973040  50.5405371  -0.0465366  18.3136504
  54.3656500   1.9008506  20.9015715  55.3199754   1.8692448  20.8345646
  54.1669024   1.4399130  21.7165940  52.7206729   7.4428125  17.9185912
  52.5861197   6.6828526  17.3523910  52.3038791   8.1669025  17.4514701
  55.8775855   8.3397442  18.1304355  55.7608239   9.2842875  18.0283045
  55.0568301   8.0371004  18.5190154  56.9030369   8.9925704  21.3460283
  57.8057615   9.0249315  21.6626778  56.6767739   8.0626155  21.3606619
  58.6583971   7.7456691  18.0070362  57.7079602   7.7458552  17.8934734
  58.9616457   6.9989425  17.4906397  74.3936664  13.5817229  19.0716124
  75.0315074  13.4623977  18.3679465  74.2757507  14.5298073  19.1304077
  71.2026371  13.5344657  19.0077649  70.8644882  13.4185722  18.1198184
  72.0716139  13.1335822  18.9878655  67.0613186  15.3880134  14.9974540
  66.4978051  15.2970071  14.2290828  66.9465581  14.5680038  15.4777033
  71.6846154  14.6879509  24.9663855  71.6734794  14.2932307  24.0944358
  71.8466793  13.9545582  25.5597626  64.6077618  16.8831325  17.8358761
  65.3998910  16.5422150  17.4205060  64.8474268  16.9926300  18.7560914
  66.5668372  16.1440239  10.7076139  67.3399248  15.5969226  10.5689015
  66.9193771  17.0084488  10.9190601  68.4053415  17.4716621  23.9143039
  68.1143281  18.3762252  23.7989705  69.0410399  17.5133148  24.6287108
  69.3309622  14.8493469  20.5044398  69.9273194  14.6249492  19.7901361
  69.3884593  14.1078215  21.1069846  70.9662480  13.6671158  14.2465653
  70.6020687  13.1401779  14.9578575  71.8229596  13.2769627  14.0732139
  73.3643300  17.1578036  20.9092832  73.0644023  18.0603075  20.8008640
  73.0194359  16.8910220  21.7613985  66.8155781  13.6091833  16.9429537
  65.8906278  13.4768047  17.1507229  67.0640194  14.3886052  17.4399479
  64.1764592  13.2525107  17.7773326  64.3056973  13.5059586  18.6912738
  63.4962044  13.8452815  17.4577981  68.3464080  23.9222357  13.8763800
  68.2688109  24.8730182  13.9552281  67.7425723  23.5768229  14.5338726
  70.8381309  11.0950222  26.5325167  70.0614643  11.6544142  26.5228032
  71.4771872  11.5807005  27.0540037  69.0927682  13.9035675  26.0943134
  69.8342366  14.4420719  25.8177958  68.3864667  14.5301964  26.2514686
  74.5683021  16.0464816  24.6915295  74.9766377  15.6047226  23.9469928
  73.8460283  15.4717443  24.9449488  70.9214091  10.9837423  22.0648852
  71.7675287  11.4076836  22.2083501  70.8612729  10.3271047  22.7587415
  74.8911836  16.6066007  18.4467584  74.2620698  16.7711721  17.7443652
  74.5037498  17.0207616  19.2178548  74.0713537   8.6441791  23.7230026
  73.8274469   9.3983852  23.1864302  74.3473467   9.0227139  24.5577273
  76.0251999  15.1880403  22.4007292  76.2368895  15.8312163  21.7241673
  75.9781748  14.3542720  21.9329222  70.4439798  16.3440415  15.7117669
  70.9078143  16.6228118  14.9222292  70.1796596  15.4423859  15.5290760
  67.3363879  15.8911896  18.6497433  67.9065236  16.3199165  18.0114917
  67.9271991  15.6094481  19.3481618  69.3808684  12.4663567  12.5207235
  70.0832727  12.9184611  12.9881161  69.0489312  11.8247386  13.1487128
  67.8289045  11.0575324  26.8958444  67.1987706  11.7391605  27.1293841
  67.7225133  10.9458405  25.9511582  63.1234018  10.7247120  17.8224368
  62.3333072  10.9804648  17.3464479  63.6145265  11.5395458  17.9276409
  77.1397827  18.0652359  20.5729649  77.9615271  17.6632546  20.2912331
  77.1360230  17.9620593  21.5245765  65.0748763  11.0891699  14.7807845
  64.2779926  11.2010393  15.2991340  64.8474355  11.4278351  13.9148735
  70.9054431  17.6136402  22.7290359  70.9698863  18.0756809  23.5648531
  70.1965355  16.9833767  22.8572669  61.4071721  10.9777610  20.2539359
  61.6579759  11.8624620  20.5196935  61.9431269  10.7982212  19.4814451
  70.6202448  19.2804510  12.5969340  70.4848123  20.1256045  13.0254188
  71.1612261  19.4823787  11.8335274  64.0731846  16.7979948  13.1697265
  64.5856366  17.5923198  13.3202830  64.7254559  16.1006238  13.1030866
  65.8826731  19.9145704  15.2520018  66.0593359  20.8363669  15.0641002
  66.6783564  19.6004123  15.6814398  65.1679087  11.9610336  25.1282181
  65.0532602  11.0595593  25.4289280  64.3123605  12.2074033  24.7766998
  72.2470925  19.9028076  26.7269682  71.8034779  19.1164455  26.4090586
  72.9088138  20.0907227  26.0613573  67.0058046  21.4323878  21.2530360
  67.5565471  21.3040941  20.4807354  66.1669522  21.7318767  20.9025253
  74.3452163  20.1830876  24.7551083  74.3270638  21.0039757  24.2631352
  75.2672083  20.0584951  24.9801224  70.8025217  17.6975006  25.5974591
  71.3353554  16.9363294  25.3673899  70.2739298  17.4048657  26.3398746
  62.0380763  15.1268602  13.9456835  62.8755985  15.5365610  13.7290543
  62.2159030  14.1868044  13.9157029  72.1677930  16.8260998  13.1093404
  71.6399291  16.0913758  12.7966641  71.6665433  17.6035674  12.8633372
  77.1470776  15.0210019  18.2260450  76.4894450  15.7109280  18.3140578
  77.9511175  15.4106450  18.5694436  66.8996657   7.4880664  15.4700015
  67.4740409   7.2655846  14.7373208  67.4867640   7.5569359  16.2228616
  73.2198609  23.3538716   9.0325063  72.5460308  23.6570412   9.6410021
  73.6064431  24.1567796   8.6830520  72.4357065  10.8503847  18.5222732
  71.5179627  11.0718794  18.3644420  72.8517209  10.9250157  17.6634439
  76.7238031  18.3560393  14.4043534  76.2700358  17.5151303  14.4608725
  76.0931998  18.9921791  14.7418314  75.1670970  20.1936889  15.3393352
  75.4593944  20.7541946  14.6205718  75.6769591  20.4865450  16.0946511
  62.0606934  12.4659317  14.6167569  61.8631334  11.8728678  13.8918635
  61.5053598  12.1611527  15.3343508  70.0403657  12.3582424  16.7362162
  70.0952267  11.4056260  16.6604639  69.2294859  12.5141863  17.2203460
  67.9796017  10.9759484  14.4952541  67.1663883  11.2753654  14.9017733
  68.4755012  10.5815172  15.2127023  70.1304595  20.9717240  16.4286806
  70.0880774  21.1978087  15.4995338  71.0467294  20.7380615  16.5772607
  73.5770229  11.4401308  23.3267435  73.9319617  11.6672781  24.1861900
  74.2242360  11.7719685  22.7044690  67.4710092   8.5477839  20.1113776
  68.1109471   8.4066598  19.4136739  66.6387623   8.2612352  19.7352378
  79.3337346  16.6296271  19.0428035  79.7673852  16.5371560  19.8911089
  80.0468926  16.6053771  18.4048051  68.2470396  17.8480269  16.2248768
  69.0410995  17.3530590  16.0231343  67.5362088  17.3198133  15.8616474
  73.0665241  20.2298365  20.5761136  73.1202263  20.7989301  21.3438852
  72.1980022  20.4000250  20.2115173  64.5553160  11.9923351  12.3008521
  63.6250748  11.9307807  12.5178483  64.6510631  11.4699304  11.5045162
  64.4738709   8.5178164  14.8886763  64.7345526   9.4323497  14.7795923
  65.2955881   8.0502607  15.0383375  65.9463634   9.9315921  22.0585587
  66.6186687   9.7233283  21.4098236  65.1193420   9.7338007  21.6190819
  80.1952895  16.6719972  21.5760921  80.3888785  17.5765782  21.8220196
  80.0953513  16.2127391  22.4099506  75.2568004  16.8226714  27.1501801
  75.1053510  16.5937266  26.2331885  75.2472683  17.7797316  27.1633146
  72.0253340  14.3958627  22.1348068  72.9545400  14.5469787  21.9617035
  71.6044370  14.4842648  21.2796714  70.8241672  18.4209291  19.9046605
  70.6852758  18.0528076  20.7772543  70.0356268  18.9356931  19.7330563
  71.4189824  23.5218388  11.2472142  71.5941580  23.0506431  12.0617765
  70.7322612  24.1484154  11.4753403  72.3746887  17.7990894  17.2935443
  72.0396720  17.7591664  18.1893093  71.8750833  17.1335610  16.8205853
  66.3491131  13.2058524  22.8188024  66.2110929  12.4738763  23.4199563
  67.2596055  13.1167424  22.5372212  68.9773432  12.9178484  22.3071704
  69.6873050  12.2771676  22.2658322  68.9342740  13.1691378  23.2297885
  76.9660210  19.8545837  25.2278283  76.9072757  19.1705057  24.5608866
  77.3679729  20.5964827  24.7758909  67.6902366   9.9043701  24.1267343
  67.1539723   9.4534440  24.7788940  67.1019074  10.0389610  23.3837808
  65.9850909  26.6707751  18.0212002  66.2247508  27.3026275  18.6991021
  65.1420106  26.3195791  18.3077361  76.9677618  17.8185421  23.4592263
  76.0804397  17.4811343  23.5818662  77.5376169  17.0868452  23.6961028
  58.6206765  14.1509513  16.7835314  59.3077805  13.8371243  16.1956330
  58.4654894  15.0550877  16.5102566  63.4241487   9.0399709  21.2120338
  63.3399676   8.4325379  20.4770748  62.6024193   9.5308727  21.2129834
  70.4978771  22.4786873  20.4253506  70.4248943  23.2841845  20.9372811
  70.0556164  22.6778839  19.6001527  70.2868551  21.7158643  13.9356328
  69.5036073  22.2580323  14.0294552  70.9861296  22.2332623  14.3350569
  72.9577455  22.3773707  22.5811665  73.6705427  23.0121172  22.5087566
  72.4667483  22.4737573  21.7651667  70.1800170   9.6670656  16.3062218
  69.8097957   9.1141696  16.9943123  70.6759262   9.0628789  15.7537218
  68.0089368  20.1268151  23.4017236  68.7098828  20.7604634  23.5546630
  67.5384483  20.4682882  22.6412875  75.8090654  12.6812758  21.2269786
  75.1562104  12.9288666  20.5722239  76.1871034  11.8676896  20.8932263
  72.7697828  22.7172451  15.3297956  72.9520223  21.8994107  15.7925708
  73.5930814  22.9340144  14.8922846  73.1039994  21.6440636  12.5913005
  73.6327760  21.1333091  11.9783167  73.3668213  21.3283167  13.4558538
  71.8578227  13.4232569  27.7135823  71.1818864  13.3226698  28.3838198
  72.6805861  13.2671783  28.1771820  63.6057086  19.6604506  20.3348338
  64.1910523  18.9148194  20.4676242  63.4081925  19.9708462  21.2185002
  66.4595741  22.6955753  15.3510781  65.7906117  23.1801881  14.8674821
  66.3208611  22.9424974  16.2654159  58.1974741  12.2310106  19.0552781
  58.2358841  11.6973697  19.8489899  57.6915034  11.7045311  18.4363759
  70.6001010  24.7299497  21.9493439  71.1519318  24.8931118  22.7142524
  70.9407204  25.3203934  21.2773464  65.5765503   7.0774646  22.5515324
  65.6406830   7.9389477  22.1392721  65.5132624   6.4648648  21.8187682
  65.0517776   9.1497779  26.1988358  65.6789815   8.7674856  26.8125882
  64.1945695   8.9311981  26.5644050  75.4511884  19.5560754  27.8042093
  75.9951788  20.1690712  27.3097048  74.8698729  20.1140333  28.3209106
  61.8283319  10.9574208  12.1306713  62.1236760  10.0484886  12.0773766
  60.9271354  10.9361947  11.8087715  73.7369397  22.6781472  18.9357121
  73.6120537  21.8771212  18.4268067  74.3948488  23.1727665  18.4471091
  65.3577566   9.0330205  18.1134261  64.6364151   9.6466172  17.9741735
  66.1470821   9.5687969  18.0350907  75.8004306  20.4790492  20.5636671
  74.8534641  20.3595843  20.4914998  76.1487079  19.5912990  20.6462933
  68.1603879   6.3684631  24.3874913  68.6838281   6.6146928  25.1501222
  67.9416212   7.2004666  23.9678050  63.5571160   8.6388306  12.2546038
  63.2283866   7.7585685  12.0721144  63.9110531   8.5835974  13.1422427
  72.8050739  20.2743208  16.7641023  72.6575701  19.3459916  16.9448593
  73.6304233  20.2963299  16.2798099  66.6712983   8.9261275  12.6221516
  67.0109056   9.4547197  11.9000124  67.1185104   9.2641682  13.3980082
  76.4084861  21.0971767  17.8505896  77.3331408  20.8914628  17.7130347
  76.2400164  20.8488168  18.7595238  69.3656424   7.3098326  22.0724584
  69.0253245   6.5106139  22.4745264  68.6595430   7.6100037  21.5001417
  67.5411475  11.0866759  18.3343885  67.3956055  11.4007062  19.2268167
  67.0636678  11.7051660  17.7814784  69.4007858   8.0769307  18.3824775
  69.3869426   7.1810401  18.0457073  70.1180286   8.0839971  19.0163061
  71.2533988   8.5106647  20.4277902  70.9951766   9.4323718  20.4262233
  70.7219029   8.1137082  21.1178366  76.1980177  21.6157435  13.2067988
  76.3717055  21.0503857  12.4541840  76.6909068  22.4158329  13.0247478
  62.0157137  13.6272104  21.2731546  61.4710605  14.4031912  21.4051821
  62.8936487  13.9742908  21.1150668  62.8023159  12.7542000  24.1661703
  62.0604895  12.9024635  24.7526334  62.4815903  13.0150266  23.3028453
  70.7466821  22.2957978  23.9642093  71.0553948  22.0507125  24.8364793
  71.5442303  22.5004617  23.4760964  70.7687433  24.4495888  16.1947470
  70.3292424  23.9572267  16.8880327  71.5195550  23.9068855  15.9539545
  63.2479772  20.6407429  16.1972098  64.0737792  20.3411201  15.8170741
  62.8973824  19.8715051  16.6461887  68.2161306  19.9933897  18.2669772
  67.5941315  19.3304602  17.9671999  68.8866172  20.0195029  17.5843419
  61.4488377  18.5593755  17.1561032  60.6120286  18.1315929  16.9745033
  61.4212023  18.7526198  18.0931823  68.2885833   8.4715685  27.8602278
  68.3373989   9.3477808  27.4780047  68.8308347   7.9293078  27.2873921
  78.7740679  19.0156808  27.1403415  77.9836222  18.9980947  26.6007914
  78.5374033  19.5545102  27.8952451  78.8938554  15.8649275  24.4536143
  78.9436559  15.6999282  25.3951666  78.7852477  14.9976534  24.0634024
  67.7774812  18.5437820  11.7428232  67.9262933  19.2273285  11.0894905
  68.5841256  18.5242910  12.2577688  76.1842316  11.8480203  25.7695450
  77.0852179  11.7086667  25.4779448  76.2590291  12.0134657  26.7093627
  70.5185122   9.2247057  24.6148636  69.6488431   9.5180623  24.3431225
  70.7544602   9.8087502  25.3355900  80.3956751  18.2846216  24.6978165
  80.1041559  18.6476197  25.5341626  79.7828882  17.5713224  24.5191497
  78.6443939  13.4078831  23.1658223  79.1198060  13.6006477  22.3577074
  77.7209504  13.4638017  22.9201606  65.5327445  14.5702998  12.7489301
  65.2873487  13.6665328  12.9469511  65.7023360  14.5720148  11.8068779
  64.8023093  10.3031355  10.2475462  64.1092338  10.3775710   9.5915498
  64.5574845   9.5391699  10.7696979  71.2770218  21.0385951   9.2139980
  70.7044185  21.6576138   8.7610451  71.8503012  21.5885312   9.7479901
  77.3445608  10.2844591  21.3986528  78.2963031  10.3842688  21.4198752
  77.1749058   9.4922859  21.9084613  79.8233686  13.5050710  20.5128828
  79.7910006  12.5666711  20.6988512  80.4334309  13.5834747  19.7794653
  71.5455709  16.4264510  28.0156689  72.4658719  16.6043109  28.2096735
  71.5105292  15.4820555  27.8636388  60.7637874  11.6203103  16.9409964
  60.4440658  10.7668411  16.6484338  60.2171302  11.8351681  17.6967931
  64.5417782  14.3365544  20.6579470  64.7603791  15.2682652  20.6767504
  64.9543555  13.9773519  21.4434274  69.4145647   9.9098750  30.0482219
  69.3142374  10.8593107  29.9794310  69.1967189   9.5816989  29.1758289
  60.6326134  15.2406015  18.9103085  59.9389605  14.8259968  18.3973040
  61.3799125  15.2826551  18.3136504  69.2776917  13.3395889  28.8647281
  68.7943999  14.1396249  29.0711170  69.3637856  13.3503834  27.9114725
  62.5462877  15.1724269  16.7869100  62.5233565  15.2711956  15.8350983
  62.8563513  16.0189419  17.1086266  65.2050254  17.2300424  20.9015715
  66.1593508  17.1984366  20.8345646  65.0062778  16.7691047  21.7165940
  65.7949637  15.8001540  23.4686512  66.6142526  16.2945618  23.4921349
  66.0686444  14.8833508  23.4404080  63.5600483  22.7720043  17.9185912
  63.4254951  22.0120444  17.3523910  63.1432546  23.4960943  17.4514701
  66.7169609  23.6689360  18.1304355  66.6001993  24.6134793  18.0283045
  65.8962055  23.3662922  18.5190154  61.0484551  10.1339673  24.1678709
  61.6943414   9.6238627  24.6565934  60.8401702  10.8708355  24.7422134
  73.5737943  17.2020521  29.6670850  74.4429103  17.3761173  29.3057485
  73.0944695  18.0214938  29.5446579  67.7424123  24.3217622  21.3460283
  68.6451370  24.3541232  21.6626778  67.5161493  23.3918073  21.3606619
  69.4977725  23.0748608  18.0070362  68.5473356  23.0750470  17.8934734
  69.8010211  22.3281343  17.4906397  65.3882042   7.2807291  28.2653723
  66.2513503   6.9244095  28.4757048  64.8147452   6.9421185  28.9529128
  85.2330419  28.9109147  19.0716124  85.8708829  28.7915894  18.3679465
  85.1151262  29.8589991  19.1304077  82.0420125  28.8636575  19.0077649
  81.7038637  28.7477640  18.1198184  82.9109893  28.4627740  18.9878655
  77.9006941  30.7172051  14.9974540  77.3371806  30.6261988  14.2290828
  77.7859336  29.8971956  15.4777033  82.5239908  30.0171427  24.9663855
  82.5128549  29.6224225  24.0944358  82.6860548  29.2837499  25.5597626
  75.4471373  32.2123243  17.8358761  76.2392665  31.8714068  17.4205060
  75.6868023  32.3218218  18.7560914  77.4062127  31.4732156  10.7076139
  78.1793003  30.9261143  10.5689015  77.7587525  32.3376406  10.9190601
  79.2447169  32.8008539  23.9143039  78.9537035  33.7054169  23.7989705
  79.8804154  32.8425066  24.6287108  80.1703376  30.1785387  20.5044398
  80.7666948  29.9541409  19.7901361  80.2278348  29.4370133  21.1069846
  81.8056234  28.9963075  14.2465653  81.4414441  28.4693696  14.9578575
  82.6623350  28.6061544  14.0732139  84.2037054  32.4869954  20.9092832
  83.9037777  33.3894993  20.8008640  83.8588114  32.2202137  21.7613985
  77.6549536  28.9383751  16.9429537  76.7300032  28.8059965  17.1507229
  77.9033949  29.7177970  17.4399479  75.0158347  28.5817024  17.7773326
  75.1450728  28.8351503  18.6912738  74.3355798  29.1744732  17.4577981
  79.1857834  39.2514274  13.8763800  79.1081864  40.2022099  13.9552281
  78.5819478  38.9060147  14.5338726  81.6775064  26.4242140  26.5325167
  80.9008398  26.9836060  26.5228032  82.3165627  26.9098923  27.0540037
  79.9321436  29.2327593  26.0943134  80.6736121  29.7712637  25.8177958
  79.2258422  29.8593882  26.2514686  85.4076776  31.3756734  24.6915295
  85.8160132  30.9339144  23.9469928  84.6854037  30.8009361  24.9449488
  81.7607846  26.3129340  22.0648852  82.6069041  26.7368754  22.2083501
  81.7006483  25.6562965  22.7587415  85.7305590  31.9357924  18.4467584
  85.1014453  32.1003638  17.7443652  85.3431253  32.3499534  19.2178548
  84.9107291  23.9733709  23.7230026  84.6668223  24.7275769  23.1864302
  85.1867222  24.3519056  24.5577273  86.8645754  30.5172321  22.4007292
  87.0762649  31.1604081  21.7241673  86.8175502  29.6834638  21.9329222
  84.4671983  23.1290142  19.3043864  83.6056462  23.4271395  19.5960601
  84.4934418  23.3460541  18.3724896  81.2833552  31.6732332  15.7117669
  81.7471898  31.9520035  14.9222292  81.0190350  30.7715777  15.5290760
  78.1757633  31.2203814  18.6497433  78.7458990  31.6491082  18.0114917
  78.7665745  30.9386399  19.3481618  80.2202438  27.7955485  12.5207235
  80.9226482  28.2476528  12.9881161  79.8883067  27.1539304  13.1487128
  78.6682800  26.3867241  26.8958444  78.0381460  27.0683522  27.1293841
  78.5618888  26.2750323  25.9511582  73.9627772  26.0539037  17.8224368
  73.1726826  26.3096566  17.3464479  74.4539020  26.8687375  17.9276409
  75.9142518  26.4183617  14.7807845  75.1173681  26.5302311  15.2991340
  75.6868110  26.7570269  13.9148735  81.7448185  32.9428320  22.7290359
  81.8092618  33.4048727  23.5648531  81.0359109  32.3125685  22.8572669
  72.2465475  26.3069528  20.2539359  72.4973514  27.1916538  20.5196935
  72.7825024  26.1274129  19.4814451  81.4596203  34.6096427  12.5969340
  81.3241878  35.4547963  13.0254188  82.0006015  34.8115705  11.8335274
  77.9463543  20.6888007  29.2583695  77.5530488  20.1354206  29.9331339
  78.7629683  20.9998586  29.6490213  74.9125600  32.1271865  13.1697265
  75.4250121  32.9215116  13.3202830  75.5648313  31.4298156  13.1030866
  76.7220485  35.2437622  15.2520018  76.8987113  36.1655586  15.0641002
  77.5177319  34.9296041  15.6814398  80.8631504  22.1045886  26.8503952
  81.6041217  22.7053039  26.7708414  81.0949426  21.3623524  26.2921994
  76.0072842  27.2902254  25.1282181  75.8926357  26.3887511  25.4289280
  75.1517359  27.5365950  24.7766998  83.0864679  35.2319994  26.7269682
  82.6428534  34.4456372  26.4090586  83.7481893  35.4199144  26.0613573
  77.8451801  36.7615795  21.2530360  78.3959226  36.6332859  20.4807354
  77.0063276  37.0610684  20.9025253  85.1845917  35.5122794  24.7551083
  85.1664393  36.3331675  24.2631352  86.1065837  35.3876869  24.9801224
  81.6418972  33.0266923  25.5974591  82.1747308  32.2655211  25.3673899
  81.1133053  32.7340575  26.3398746  72.8774517  30.4560520  13.9456835
  73.7149739  30.8657528  13.7290543  73.0552785  29.5159962  13.9157029
  83.8885207  20.5031644  19.0917466  83.3850003  20.4661780  18.2785272
  84.1815814  21.4124387  19.1514123  80.1328093  20.5870374  18.0983648
  80.9981090  20.3913183  17.7389538  80.2005602  20.3580726  19.0253005
  83.0071684  32.1552916  13.1093404  82.4793046  31.4205675  12.7966641
  82.5059187  32.9327592  12.8633372  77.7390412  22.8172582  15.4700015
  78.3134164  22.5947763  14.7373208  78.3261394  22.8861277  16.2228616
  84.0592363  38.6830633   9.0325063  83.3854062  38.9862330   9.6410021
  84.4458185  39.4859714   8.6830520  83.2750820  26.1795764  18.5222732
  82.3573381  26.4010711  18.3644420  83.6910964  26.2542075  17.6634439
  87.5631785  33.6852310  14.4043534  87.1094112  32.8443220  14.4608725
  86.9325752  34.3213709  14.7418314  86.0064725  35.5228807  15.3393352
  86.2987699  36.0833864  14.6205718  86.5163345  35.8157368  16.0946511
  72.9000688  27.7951235  14.6167569  72.7025088  27.2020596  13.8918635
  72.3447352  27.4903445  15.3343508  80.8797412  27.6874341  16.7362162
  80.9346022  26.7348178  16.6604639  80.0688614  27.8433781  17.2203460
  78.8189772  26.3051401  14.4952541  78.0057637  26.6045572  14.9017733
  79.3148766  25.9107090  15.2127023  80.9698350  36.3009158  16.4286806
  80.9274529  36.5270004  15.4995338  81.8861049  36.0672533  16.5772607
  84.4163984  26.7693226  23.3267435  84.7713371  26.9964699  24.1861900
  85.0636115  27.1011602  22.7044690  78.3103847  23.8769757  20.1113776
  78.9503226  23.7358516  19.4136739  77.4781377  23.5904270  19.7352378
  79.0864151  33.1772187  16.2248768  79.8804749  32.6822507  16.0231343
  78.3755843  32.6490050  15.8616474  83.9058995  35.5590283  20.5761136
  83.9596017  36.1281219  21.3438852  83.0373776  35.7292168  20.2115173
  75.3946914  27.3215269  12.3008521  74.4644502  27.2599724  12.5178483
  75.4904386  26.7991222  11.5045162  75.3132463  23.8470082  14.8886763
  75.5739280  24.7615415  14.7795923  76.1349635  23.3794524  15.0383375
  76.7857388  25.2607839  22.0585587  77.4580442  25.0525201  21.4098236
  75.9587175  25.0629925  21.6190819  82.6882960  21.8869780  24.0751248
  82.0410875  22.5859729  23.9815724  83.4583976  22.3205924  24.4427496
  86.0961758  32.1518632  27.1501801  85.9447265  31.9229184  26.2331885
  86.0866438  33.1089233  27.1633146  82.8647095  29.7250545  22.1348068
  83.7939155  29.8761704  21.9617035  82.4438125  29.8134566  21.2796714
  81.6635427  33.7501209  19.9046605  81.5246512  33.3819994  20.7772543
  80.8750023  34.2648849  19.7330563  82.2583578  38.8510306  11.2472142
  82.4335334  38.3798349  12.0617765  81.5716367  39.4776072  11.4753403
  83.2140642  33.1282812  17.2935443  82.8790474  33.0883582  18.1893093
  82.7144587  32.4627528  16.8205853  77.1884886  28.5350442  22.8188024
  77.0504684  27.8030681  23.4199563  78.0989809  28.4459342  22.5372212
  79.8167186  28.2470401  22.3071704  80.5266805  27.6063593  22.2658322
  79.7736494  28.4983296  23.2297885  87.8053965  35.1837755  25.2278283
  87.7466511  34.4996975  24.5608866  88.2073483  35.9256745  24.7758909
  78.5296120  25.2335619  24.1267343  77.9933477  24.7826358  24.7788940
  77.9412829  25.3681528  23.3837808  76.8244664  41.9999668  18.0212002
  77.0641262  42.6318193  18.6991021  75.9813860  41.6487708  18.3077361
  69.4600519  29.4801430  16.7835314  70.1471559  29.1663160  16.1956330
  69.3048648  30.3842795  16.5102566  74.2635242  24.3691627  21.2120338
  74.1793430  23.7617296  20.4770748  73.4417948  24.8600645  21.2129834
  81.3372526  37.8078791  20.4253506  81.2642697  38.6133762  20.9372811
  80.8949919  38.0070757  19.6001527  81.1262305  37.0450561  13.9356328
  80.3429827  37.5872241  14.0294552  81.8255050  37.5624540  14.3350569
  83.7971209  37.7065625  22.5811665  84.5099181  38.3413090  22.5087566
  83.3061238  37.8029491  21.7651667  81.0193924  24.9962573  16.3062218
  80.6491712  24.4433614  16.9943123  81.5153017  24.3920707  15.7537218
  78.8483123  35.4560068  23.4017236  79.5492582  36.0896551  23.5546630
  78.3778238  35.7974800  22.6412875  86.6484409  28.0104676  21.2269786
  85.9955859  28.2580583  20.5722239  87.0264789  27.1968814  20.8932263
  83.6091583  38.0464369  15.3297956  83.7913977  37.2286025  15.7925708
  84.4324569  38.2632061  14.8922846  83.9433748  36.9732554  12.5913005
  84.4721514  36.4625009  11.9783167  84.2061968  36.6575084  13.4558538
  82.6971982  28.7524487  27.7135823  82.0212619  28.6518616  28.3838198
  83.5199616  28.5963701  28.1771820  74.4450841  34.9896423  20.3348338
  75.0304278  34.2440111  20.4676242  74.2475679  35.3000380  21.2185002
  77.2989496  38.0247671  15.3510781  76.6299871  38.5093798  14.8674821
  77.1602366  38.2716891  16.2654159  69.0368495  27.5602024  19.0552781
  69.0752595  27.0265614  19.8489899  68.5308788  27.0337229  18.4363759
  81.4394765  40.0591414  21.9493439  81.9913073  40.2223036  22.7142524
  81.7800958  40.6495852  21.2773464  76.4159258  22.4066564  22.5515324
  76.4800584  23.2681395  22.1392721  76.3526378  21.7940566  21.8187682
  75.8911530  24.4789697  26.1988358  76.5183569  24.0966774  26.8125882
  75.0339449  24.2603899  26.5644050  86.2905639  34.8852672  27.8042093
  86.8345543  35.4982630  27.3097048  85.7092484  35.4432250  28.3209106
  72.6677073  26.2866126  12.1306713  72.9630514  25.3776804  12.0773766
  71.7665109  26.2653865  11.8087715  84.5763152  38.0073390  18.9357121
  84.4514291  37.2063130  18.4268067  85.2342243  38.5019583  18.4471091
  76.1971320  24.3622122  18.1134261  75.4757906  24.9758090  17.9741735
  76.9864576  24.8979887  18.0350907  86.6398060  35.8082410  20.5636671
  85.6928396  35.6887761  20.4914998  86.9880833  34.9204908  20.6462933
  78.9997634  21.6976549  24.3874913  79.5232035  21.9438845  25.1501222
  78.7809967  22.5296584  23.9678050  74.3964915  23.9680223  12.2546038
  74.0677621  23.0877602  12.0721144  74.7504285  23.9127892  13.1422427
  83.6444494  35.6035126  16.7641023  83.4969456  34.6751834  16.9448593
  84.4697987  35.6255217  16.2798099  77.5106738  24.2553193  12.6221516
  77.8502810  24.7839114  11.9000124  77.9578858  24.5933599  13.3980082
  87.2478615  36.4263685  17.8505896  88.1725163  36.2206546  17.7130347
  87.0793919  36.1780086  18.7595238  80.2050179  22.6390244  22.0724584
  79.8646999  21.8398057  22.4745264  79.4989185  22.9391955  21.5001417
  80.8566650  19.7239556  20.5251907  81.6792720  19.2500035  20.4030797
  81.1004714  20.5030040  21.0250593  78.3805229  26.4158677  18.3343885
  78.2349810  26.7298980  19.2268167  77.9030433  27.0343577  17.7814784
  80.2401612  23.4061225  18.3824775  80.2263181  22.5102318  18.0457073
  80.9574040  23.4131889  19.0163061  82.0927743  23.8398565  20.4277902
  81.8345521  24.7615636  20.4262233  81.5612783  23.4429000  21.1178366
  87.0373932  36.9449352  13.2067988  87.2110809  36.3795775  12.4541840
  87.5302823  37.7450247  13.0247478  72.8550891  28.9564021  21.2731546
  72.3104359  29.7323829  21.4051821  73.7330241  29.3034826  21.1150668
  73.6416913  28.0833918  24.1661703  72.8998649  28.2316553  24.7526334
  73.3209658  28.3442183  23.3028453  81.5860576  37.6249896  23.9642093
  81.8947702  37.3799043  24.8364793  82.3836058  37.8296534  23.4760964
  81.6081188  39.7787805  16.1947470  81.1686178  39.2864184  16.8880327
  82.3589305  39.2360773  15.9539545  74.0873527  35.9699346  16.1972098
  74.9131547  35.6703118  15.8170741  73.7367579  35.2006969  16.6461887
  79.0555060  35.3225815  18.2669772  78.4335069  34.6596520  17.9671999
  79.7259927  35.3486946  17.5843419  72.2882132  33.8885673  17.1561032
  71.4514040  33.4607847  16.9745033  72.2605777  34.0818116  18.0931823
  79.1279588  23.8007603  27.8602278  79.1767743  24.6769725  27.4780047
  79.6702102  23.2584996  27.2873921  78.6168567  33.8729738  11.7428232
  78.7656687  34.5565202  11.0894905  79.4235010  33.8534828  12.2577688
  87.0236071  27.1772120  25.7695450  87.9245933  27.0378585  25.4779448
  87.0984045  27.3426575  26.7093627  81.3578876  24.5538975  24.6148636
  80.4882185  24.8472541  24.3431225  81.5938356  25.1379420  25.3355900
  76.3721200  29.8994916  12.7489301  76.1267242  28.9957246  12.9469511
  76.5417115  29.9012066  11.8068779  84.0617910  20.7718592  22.1314057
  84.5799854  21.5079619  21.8060545  83.7073043  21.0782585  22.9660816
  75.6416848  25.6323273  10.2475462  74.9486092  25.7067628   9.5915498
  75.3968599  24.8683617  10.7696979  82.1163973  36.3677868   9.2139980
  81.5437940  36.9868055   8.7610451  82.6896766  36.9177230   9.7479901
  86.2053742  22.6992092  21.5845929  85.6103674  22.9797104  20.8892418
  85.9203439  23.1885993  22.3562670  82.3849464  31.7556427  28.0156689
  83.3052473  31.9335026  28.2096735  82.3499047  30.8112473  27.8636388
  71.6031629  26.9495021  16.9409964  71.2834413  26.0960329  16.6484338
  71.0565057  27.1643599  17.6967931  75.3811536  29.6657462  20.6579470
  75.5997546  30.5974570  20.6767504  75.7937310  29.3065436  21.4434274
  80.2539401  25.2390668  30.0482219  80.1536128  26.1885025  29.9794310
  80.0360943  24.9108907  29.1758289  71.4719889  30.5697932  18.9103085
  70.7783360  30.1551885  18.3973040  72.2192880  30.6118469  18.3136504
  80.1170671  28.6687807  28.8647281  79.6337753  29.4688167  29.0711170
  80.2031611  28.6795751  27.9114725  73.3856631  30.5016186  16.7869100
  73.3627319  30.6003873  15.8350983  73.6957268  31.3481337  17.1086266
  76.0444009  32.5592341  20.9015715  76.9987263  32.5276284  20.8345646
  75.8456533  32.0982965  21.7165940  76.6343391  31.1293457  23.4686512
  77.4536280  31.6237536  23.4921349  76.9080199  30.2125425  23.4404080
  74.3994238  38.1011961  17.9185912  74.2648706  37.3412362  17.3523910
  73.9826300  38.8252861  17.4514701  77.5563364  38.9981278  18.1304355
  77.4395748  39.9426710  18.0283045  76.7355810  38.6954839  18.5190154
  71.8878305  25.4631591  24.1678709  72.5337169  24.9530545  24.6565934
  71.6795456  26.2000273  24.7422134  84.4131698  32.5312439  29.6670850
  85.2822857  32.7053091  29.3057485  83.9338449  33.3506855  29.5446579
  78.5817878  39.6509540  21.3460283  79.4845124  39.6833150  21.6626778
  78.3555248  38.7209991  21.3606619  80.3371480  38.4040526  18.0070362
  79.3867111  38.4042388  17.8934734  80.6403966  37.6573261  17.4906397
  76.2275796  22.6099208  28.2653723  77.0907258  22.2536013  28.4757048
  75.6541207  22.2713103  28.9529128  86.2865127  47.5415161  17.8358761
  87.0786419  47.2005985  17.4205060  86.5261777  47.6510136  18.7560914
  85.8552101  43.9108942  17.7773326  85.9844482  44.1643421  18.6912738
  85.1749553  44.5036650  17.4577981  84.8021527  41.3830955  17.8224368
  84.0120581  41.6388484  17.3464479  85.2932774  42.1979293  17.9276409
  86.7536272  41.7475534  14.7807845  85.9567435  41.8594229  15.2991340
  86.5261864  42.0862187  13.9148735  83.0859230  41.6361445  20.2539359
  83.3367268  42.5208455  20.5196935  83.6218778  41.4566047  19.4814451
  85.7519355  47.4563783  13.1697265  86.2643875  48.2507033  13.3202830
  86.4042068  46.7590073  13.1030866  86.8466596  42.6194171  25.1282181
  86.7320111  41.7179428  25.4289280  85.9911114  42.8657868  24.7766998
  83.7168272  45.7852437  13.9456835  84.5543494  46.1949446  13.7290543
  83.8946539  44.8451879  13.9157029  83.7394443  43.1243153  14.6167569
  83.5418843  42.5312513  13.8918635  83.1841107  42.8195363  15.3343508
  86.2340668  42.6507187  12.3008521  85.3038257  42.5891642  12.5178483
  86.3298140  42.1283139  11.5045162  86.1526218  39.1761999  14.8886763
  86.4133035  40.0907333  14.7795923  86.9743390  38.7086442  15.0383375
  87.6251143  40.5899757  22.0585587  88.2974196  40.3817119  21.4098236
  86.7980929  40.3921843  21.6190819  87.6638418  57.3291586  18.0212002
  87.9035016  57.9610110  18.6991021  86.8207615  56.9779626  18.3077361
  80.2994274  44.8093348  16.7835314  80.9865314  44.4955078  16.1956330
  80.1442403  45.7134713  16.5102566  85.1028996  39.6983544  21.2120338
  85.0187185  39.0909214  20.4770748  84.2811702  40.1892563  21.2129834
  85.2844595  50.3188341  20.3348338  85.8698032  49.5732029  20.4676242
  85.0869434  50.6292298  21.2185002  88.1383250  53.3539588  15.3510781
  87.4693626  53.8385716  14.8674821  87.9996120  53.6008809  16.2654159
  79.8762250  42.8893941  19.0552781  79.9146349  42.3557532  19.8489899
  79.3702543  42.3629147  18.4363759  87.2553012  37.7358482  22.5515324
  87.3194339  38.5973313  22.1392721  87.1920133  37.1232483  21.8187682
  86.7305285  39.8081614  26.1988358  87.3577324  39.4258692  26.8125882
  85.8733204  39.5895816  26.5644050  83.5070828  41.6158043  12.1306713
  83.8024269  40.7068722  12.0773766  82.6058863  41.5945783  11.8087715
  87.0365075  39.6914040  18.1134261  86.3151660  40.3050008  17.9741735
  87.8258330  40.2271805  18.0350907  85.2358669  39.2972141  12.2546038
  84.9071375  38.4169520  12.0721144  85.5898040  39.2419810  13.1422427
  83.6944646  44.2855939  21.2731546  83.1498114  45.0615747  21.4051821
  84.5723996  44.6326744  21.1150668  84.4810668  43.4125835  24.1661703
  83.7392404  43.5608471  24.7526334  84.1603412  43.6734101  23.3028453
  84.9267281  51.2991264  16.1972098  85.7525301  50.9995036  15.8170741
  84.5761333  50.5298886  16.6461887  83.1275886  49.2177590  17.1561032
  82.2907795  48.7899765  16.9745033  83.0999532  49.4110034  18.0931823
  87.2114954  45.2286833  12.7489301  86.9660996  44.3249163  12.9469511
  87.3810869  45.2303984  11.8068779  86.4810602  40.9615191  10.2475462
  85.7879847  41.0359546   9.5915498  86.2362354  40.1975534  10.7696979
  82.4425383  42.2786939  16.9409964  82.1228167  41.4252247  16.6484338
  81.8958811  42.4935517  17.6967931  86.2205291  44.9949380  20.6579470
  86.4391300  45.9266487  20.6767504  86.6331064  44.6357354  21.4434274
  82.3113643  45.8989850  18.9103085  81.6177114  45.4843803  18.3973040
  83.0586634  45.9410387  18.3136504  84.2250386  45.8308104  16.7869100
  84.2021074  45.9295791  15.8350983  84.5351022  46.6773255  17.1086266
  86.8837763  47.8884259  20.9015715  87.8381017  47.8568201  20.8345646
  86.6850287  47.4274883  21.7165940  87.4737146  46.4585375  23.4686512
  88.2930035  46.9529454  23.4921349  87.7473953  45.5417343  23.4404080
  85.2387992  53.4303878  17.9185912  85.1042460  52.6704279  17.3523910
  84.8220055  54.1544778  17.4514701  82.7272060  40.7923509  24.1678709
  83.3730923  40.2822463  24.6565934  82.5189211  41.5292190  24.7422134
  87.0669551  37.9391126  28.2653723  87.9301012  37.5827931  28.4757048
  86.4934961  37.6005021  28.9529128   3.4730073  41.9027755  70.1521081
   4.2055245  41.3326972  70.3858911   2.7169429  41.5149356  70.5927587
   2.7545804  38.5360854  73.4686914   2.1120184  38.8293387  72.8226709
   2.2500732  38.4213774  74.2740111   2.8944781  48.2004283  68.9030718
   2.2095820  48.5803185  68.3527752   2.9788631  48.8099610  69.6362666
   1.2641541  48.7236198  73.6748419   2.0858985  48.3216385  73.3931101
   1.2603944  48.6204432  74.6264535   9.3547534  45.0674946  70.0233391
   8.6011242  44.4982344  69.8677395   9.4895075  45.0337611  70.9704025
   3.0323182  46.2059876  64.6712612   2.2552625  45.8671036  64.2267774
   3.7114663  46.2112499  63.9967577   1.2714489  45.6793857  71.3279220
   0.6138164  46.3693119  71.4159349   2.0754889  46.0690289  71.6713207
   3.4311680  45.2203583  67.1335534   3.2929578  45.4105179  66.2056723
   3.0747898  45.9822966  67.5903585   3.4581059  47.2880110  72.1446806
   3.8917566  47.1955399  72.9929860   4.1712640  47.2637610  71.5066822
   4.3196609  47.3303810  74.6779691   4.5132499  48.2349621  74.9238966
   4.2197227  46.8711230  75.5118276   5.5738672  43.8877477  71.3227595
   5.5628548  44.7702192  70.9521528   4.7056051  43.5349028  71.1282132
   2.1911246  42.7826118  67.7897761   2.6571699  43.6154110  67.7158064
   2.6418747  42.3171100  68.4943019   0.5328574  51.7555606  70.9524667
   1.4575122  51.5498467  70.8149118   0.3643878  51.5072007  71.8614008
   6.1763282  45.0377696  67.9277058   6.6194428  44.2885022  67.5296181
   5.2989792  45.0287833  67.5450790   1.3099063  51.5908038  63.4083656
   2.0049968  52.2114731  63.6270971   1.6522213  50.7403389  63.6836034
   3.2090486  49.0407743  64.9370987   3.7341810  49.3795016  64.2120307
   3.1212839  48.1054759  64.7534122   3.0182267  46.5233113  77.5554914
   3.0680272  46.3583121  78.4970436   2.9096191  45.6560372  77.1652794
   4.5200464  48.9430055  77.7996935   4.2285272  49.3060036  78.6360396
   3.9072595  48.2297063  77.6210267   5.7196146  46.5082935  70.3199505
   6.5543038  46.9472739  70.4837066   5.8555275  46.0321588  69.5007751
   2.7687652  44.0662670  76.2676993   3.2441774  44.2590316  75.4595844
   1.8453218  44.1221855  76.0220377   1.4689321  40.9428430  74.5005299
   2.4206744  41.0426527  74.5217523   1.2992772  40.1506698  75.0103383
   1.2499208  51.2972810  60.4071280   1.1712840  50.9632674  61.3007038
   2.0708875  51.7894578  60.4062752   3.9477399  44.1634549  73.6147598
   3.9153719  43.2250550  73.8007282   4.5578023  44.2418586  72.8813423
   4.0971888  40.9545593  73.6605882   3.5810936  40.1704049  73.4735810
   4.9811836  40.6264309  73.8252401   1.7582615  34.6986608  69.6201694
   1.5607436  34.3901697  70.5045026   2.3682320  35.4248247  69.7499624
   9.7653949  45.2250556  72.7553635  10.4957338  44.9635844  73.3161338
   9.1560895  44.4879278  72.7955703   7.8469246  43.3658419  73.3528086
   7.1202410  43.2314384  72.7444578   7.4316533  43.6735247  74.1584804
   3.0274482  38.8742652  69.6487577   3.8034873  39.3639104  69.9212194
   2.3022617  39.3000706  70.1059447   5.4647041  39.5870271  70.7061518
   6.0591532  39.3466007  69.9954826   5.5373625  38.8677402  71.3335054
   3.4605776  40.1540399  66.9733648   3.2042710  39.7537034  67.8041855
   2.8358644  40.8684193  66.8483787   7.7718114  42.8936472  69.4804939
   7.2117672  42.9629661  70.2536501   7.1661617  42.7177456  68.7604435
   0.7289857  49.0523335  62.0779718   1.5635461  48.6204533  61.8957193
   0.5674200  48.8805348  63.0056613   9.3574132  59.5692986  72.1734895
   9.9952542  59.4499733  71.4698235   9.2394975  60.5173830  72.2322847
   6.1663839  59.5220414  72.1096420   5.8282350  59.4061479  71.2216954
   7.0353607  59.1211579  72.0897426   2.0250654  61.3755890  68.0993310
   1.4615519  61.2845827  67.3309598   1.9103049  60.5555795  68.5795803
   7.6050213  65.0426858  63.4107775   6.9538193  65.6280938  63.0241789
   8.3994576  65.5733053  63.4702813   1.5305840  62.1315995  63.8094910
   2.3036716  61.5844982  63.6707786   1.8831239  62.9960244  64.0209371
   4.2947090  60.8369226  73.6063169   4.8910662  60.6125248  72.8920132
   4.3522061  60.0953971  74.2088617   3.8672118  58.2908661  61.4413360
   4.1197639  57.7690183  60.6796823   2.9296677  58.1274807  61.5440043
   8.9115401  57.2944440  69.2488103   9.6978490  56.8763863  68.8978520
   9.1754105  58.1990532  69.4169751   9.0825478  62.7317290  63.9476760
   8.4471311  62.8051916  64.6597664   8.7522885  63.3210889  63.2695839
  14.3123828  57.2319673  70.1521081  15.0449000  56.6618890  70.3858911
  13.5563184  56.8441273  70.5927587   3.5868407  60.1936767  63.6437735
   3.4704665  59.5181671  64.3118819   3.6970667  59.7069141  62.8269888
   5.9299948  59.6546914  67.3484424   5.5658155  59.1277535  68.0597345
   6.7867064  59.2645383  67.1750909  11.8349248  50.9441247  74.6115690
  11.5032573  51.8136658  74.3876905  11.2394862  50.6277531  75.2909720
   5.5705435  54.6836814  62.3445772   5.7379837  55.5517050  62.7116243
   5.3802604  54.8464096  61.4207062   8.3280768  63.1453793  74.0111603
   8.0281491  64.0478832  73.9027410   7.9831827  62.8785976  74.8632756
   1.7793249  59.5967590  70.0448307   0.8543746  59.4643804  70.2525999
   2.0277662  60.3761809  70.5418250  11.7277912  55.6636333  71.6909040
  10.8194789  55.5951742  71.3967801  11.6765507  56.1408278  72.5190866
   5.5494655  57.1394472  63.3292439   5.4294281  57.5851522  64.1677919
   4.8547244  57.4879789  62.7705977  13.5939558  53.8652772  73.4686914
  12.9513938  54.1585305  72.8226709  13.0894487  53.7505692  74.2740111
  11.2479722  57.6115945  64.1572773  12.1597578  57.8443331  63.9820471
  10.7389369  58.1952989  63.5947852   5.8851559  56.9713179  75.1667623
   6.7312755  57.3952593  75.3102272   5.8250197  56.3146804  75.8606186
   9.8549304  62.5941763  71.5486355   9.2258166  62.7587477  70.8462423
   9.4674966  63.0083373  72.3197319  13.7338536  63.5296201  68.9030718
  13.0489574  63.9095102  68.3527752  13.8182385  64.1391528  69.6362666
   9.0351005  54.6317548  76.8248796   8.7911937  55.3859608  76.2883072
   9.3110935  55.0102895  77.6596043  10.9889467  61.1756160  75.5026062
  11.2006363  61.8187920  74.8260443  10.9419216  60.3418477  75.0347992
   8.5915696  53.7873981  72.4062634   7.7300175  54.0855234  72.6979372
   8.6178131  54.0044380  71.4743667   5.4077266  62.3316171  68.8136440
   5.8715611  62.6103874  68.0241062   5.1434064  61.4299616  68.6309530
   4.3446152  58.4539324  65.6226005   5.0470195  58.9060367  66.0899931
   4.0126780  57.8123142  66.2505898  12.1035295  64.0528115  73.6748419
  12.9252739  63.6508303  73.3931101  12.0997698  63.9496350  74.6264535
  20.1941288  60.3966864  70.0233391  19.4404997  59.8274262  69.8677395
  20.3288830  60.3629528  70.9704025   5.5839917  65.2680266  65.6988110
   5.4485591  66.1131802  66.1272958   6.1249729  65.4699544  64.9354044
   8.9332380  48.7910828  74.2287004   8.5896649  49.6812470  74.1526114
   9.3011343  48.6012486  73.3656589   8.8982663  58.7819439  62.7359439
   8.3829286  59.5524044  62.9747826   8.6259971  58.1084575  63.3592500
   6.4829774  53.6269140  67.7944677   5.6271370  53.2375990  67.6150316
   6.8956726  53.7061101  66.9344463   8.0128920  51.1615483  72.1936237
   7.5093716  51.1245618  71.3804042   8.3059527  52.0708226  72.2532894
   4.2571806  51.2454213  71.2002419   5.1224803  51.0497022  70.8408308
   4.3249315  51.0164565  72.1271775  13.8716937  61.5351794  64.6712612
  13.0946380  61.1962953  64.2267774  14.5508418  61.5404417  63.9967577
   8.6868966  56.6546531  64.5619220   8.3819102  56.9692680  65.4129363
   9.6399408  56.7327951  64.6046553   7.1315398  62.8136755  66.2112174
   6.6036759  62.0789514  65.8985411   6.6302901  63.5911431  65.9652142
  12.1108244  61.0085775  71.3279220  11.4531918  61.6985037  71.4159349
  12.9148643  61.3982207  71.6713207   1.8634125  53.4756421  68.5718785
   2.4377877  53.2531602  67.8391978   2.4505108  53.5445115  69.3247387
  10.9213703  59.3630148  69.3783162  11.4345584  59.9960140  69.8804872
  11.5714927  58.7631343  69.0126522   2.1903713  55.5060882  62.5914671
   1.3541025  55.8435568  62.9123945   2.0508482  55.3709862  61.6541808
   4.1656793  50.3497670  67.2993855   3.5121205  50.0346687  66.6750470
   4.1237267  49.7273410  68.0253678   5.2767998  60.6316965  59.2147147
   4.3695060  60.4006218  59.4138296   5.7739030  59.8354584  59.4021128
   8.1836077  69.3414472  62.1343833   7.5097776  69.6446169  62.7428791
   8.5701899  70.1443552  61.7849290   7.3994534  56.8379603  71.6241502
   6.4817095  57.0594550  71.4663191   7.8154677  56.9125914  70.7653210
   8.1829581  58.2371019  66.7544183   8.9301400  58.7492416  66.4451305
   8.4521171  57.9155072  67.6148576   6.4556231  60.7329560  63.7371137
   5.5467451  60.4488593  63.8343607   6.4851315  61.1528638  62.8774444
  11.6875499  64.3436149  67.5062305  11.2337826  63.5027059  67.5627495
  11.0569466  64.9797548  67.8437085  10.6308418  55.2728135  68.7362972
   9.8931175  54.7605522  69.0673215  10.8835192  54.8328517  67.9246249
  10.1308438  66.1812646  68.4412123  10.4231412  66.7417703  67.7224488
  10.6407059  66.4741207  69.1965282  10.7320046  48.0504387  69.3304741
  11.0378923  47.1901751  69.0430656  11.4572651  48.6422007  69.1303735
   5.0041125  58.3458180  69.8380932   5.0589735  57.3932017  69.7623409
   4.1932328  58.5017619  70.3222231   6.1532319  62.2738303  61.0759216
   5.7151749  61.5574162  60.6164853   6.8942760  62.5014418  60.5144307
   2.9433485  56.9635240  67.5971311   2.1301351  57.2629411  68.0036503
   3.4392480  56.5690929  68.3145793   5.0942063  66.9592997  69.5305576
   5.0518242  67.1853843  68.6014108   6.0104762  66.7256372  69.6791377
   8.5407697  57.4277065  76.4286205   8.8957085  57.6548538  77.2880671
   9.1879828  57.7595441  75.8063460  14.2705434  60.5495500  67.1335534
  14.1323333  60.7397096  66.2056723  13.9141653  61.3114883  67.5903585
   2.4347560  54.5353596  73.2132546   3.0746939  54.3942355  72.5155509
   1.6025091  54.2488109  72.8371148  14.2974814  62.6172027  72.1446806
  14.7311320  62.5247317  72.9929860  15.0106394  62.5929528  71.5066822
   3.2107864  63.8356026  69.3267539   4.0048463  63.3406346  69.1250114
   2.4999556  63.3073889  68.9635244  15.1590363  62.6595728  74.6779691
  15.3526253  63.5641539  74.9238966  15.0590981  62.2003147  75.5118276
   6.8126674  52.5453619  77.1770018   6.1654589  53.2443568  77.0834495
   7.5827689  52.9789763  77.5446267   6.9890808  60.3834384  75.2366838
   7.9182868  60.5345543  75.0635805   6.5681838  60.4718404  74.3815485
   6.3827292  69.5094145  64.3490912   6.5579048  69.0382188  65.1636535
   5.6960080  70.1359911  64.5772173   7.3384355  63.7866651  70.3954214
   7.0034188  63.7467421  71.2911863   6.8388301  63.1211367  69.9224624
  10.2743547  61.1322685  60.6691273   9.6572717  60.4069513  60.5724326
   9.8060035  61.8932045  60.3258347   2.0642093  55.3508109  59.7912577
   1.1871559  55.2296910  59.4274824   2.5399846  54.5594188  59.5391466
  11.9315086  63.8061177  76.5611033  11.0441865  63.4687099  76.6837432
  12.5013637  63.0744209  76.7979799   5.2506019  67.7034400  67.0375098
   4.4673541  68.2456080  67.1313322   5.9498764  68.2208379  67.4369339
   8.5602669  53.5129029  69.6809303   9.0571368  52.7598992  69.3610374
   7.7889650  53.5493346  69.1152513  16.4132426  59.2169395  71.3227595
  16.4022303  60.0994110  70.9521528  15.5449806  58.8640946  71.1282132
   9.6432450  62.2700716  67.2547727   8.7088728  62.3902179  67.0852431
   9.8209118  61.3673183  66.9907737   5.1437638  55.6546412  69.4080988
   4.7735425  55.1017453  70.0961894   5.6396730  55.0504546  68.8555988
  13.0305001  58.1118036  67.7897761  13.4965453  58.9446027  67.7158064
  13.4812501  57.6463017  68.4943019  11.0981232  64.4561857  64.7883913
  11.3741076  64.3418452  65.6977787  10.2285731  64.0579342  64.7496086
  11.0021664  50.4798623  71.8288662  10.0884743  50.7102850  71.9970869
  11.4314765  50.5637067  72.6802695  10.7728122  58.6688515  74.3288556
  10.1199572  58.9164422  73.6741009  11.1508502  57.8552653  73.9951034
   7.7335296  68.7048208  68.4316727   7.9157691  67.8869864  68.8944479
   8.5568282  68.9215900  67.9941617   8.0677462  67.6316393  65.6931775
   8.5965228  67.1208848  65.0801937   8.3305681  67.3158923  66.5577308
   8.7006865  68.6657229  72.0375891   8.5758005  67.8646969  71.5286837
   9.3585956  69.1603422  71.5489861  10.7641774  66.4666249  73.6655442
   9.8172109  66.3471600  73.5933768  11.1124547  65.5788747  73.7481703
   7.7688207  66.2618965  69.8659794   7.6213169  65.3335672  70.0467364
   8.5941701  66.2839056  69.3816869   1.6350451  54.9137032  65.7240286
   1.9746524  55.4422953  65.0018894   2.0822572  55.2517438  66.4998852
  11.3722329  67.0847524  70.9524667  12.2968876  66.8790385  70.8149118
  11.2037632  66.8363925  71.8614008   4.3293892  53.2974083  75.1743354
   3.9890713  52.4981896  75.5764034   3.6232898  53.5975794  74.6020187
   4.9810364  50.3823395  73.6270677   5.8036433  49.9083873  73.5049567
   5.2248428  51.1613879  74.1269363   3.6218598  53.4111654  63.9233579
   4.3426961  53.7892906  63.4197296   2.9983903  54.1300530  64.0268557
   7.7649721  54.1156803  64.8591911   7.9813336  54.9981441  64.5580739
   7.2843789  53.7243016  64.1297553   2.5048943  57.0742516  71.4362656
   2.3593523  57.3882819  72.3286937   2.0274146  57.6927416  70.8833554
   4.3645326  54.0645064  71.4843545   4.3506894  53.1686157  71.1475843
   5.0817754  54.0715728  72.1181831   6.2171456  54.4982404  73.5296673
   5.9589234  55.4199475  73.5281003   5.6856497  54.1012839  74.2197137
  11.1617645  67.6033191  66.3086758  11.3354523  67.0379614  65.5560610
  11.6546536  68.4034086  66.1266248   3.7682222  52.9459444  66.7531115
   3.8898133  52.0176090  66.9522003   3.4784264  52.9598130  65.8409431
   6.6373412  50.6314355  69.8897835   6.6595109  50.6953688  68.9349815
   7.0541471  49.7918863  70.0838341  17.0157036  60.3669614  67.9277058
  17.4588182  59.6176939  67.5296181  16.1383547  60.3579750  67.5450790
  12.1492818  66.9199956  63.4083656  12.8443722  67.5406648  63.6270971
  12.4915968  66.0695307  63.6836034  14.0484241  64.3699661  64.9370987
  14.5735565  64.7086934  64.2120307  13.9606593  63.4346676  64.7534122
  13.8576022  61.8525031  77.5554914  13.9074027  61.6875039  78.4970436
  13.7489945  60.9852290  77.1652794   2.7412281  64.5313577  64.8447002
   2.8900401  65.2149041  64.1913675   3.5478724  64.5118667  65.3596458
  11.1479784  57.8355959  78.8714220  12.0489647  57.6962424  78.5798218
  11.2227759  58.0010414  79.8112398  15.3594219  64.2721973  77.7996935
  15.0679027  64.6351953  78.6360396  14.7466350  63.5588981  77.6210267
  16.5589901  61.8374852  70.3199505  17.3936792  62.2764656  70.4837066
  16.6949030  61.3613506  69.5007751  13.6081407  59.3954587  76.2676993
  14.0835529  59.5882234  75.4595844  12.6846972  59.4513773  76.0220377
   8.1861623  51.4302431  75.2332827   8.7043567  52.1663458  74.9079316
   7.8316756  51.7366424  76.0679586   8.4374218  47.8502713  70.7533724
   8.7175971  47.1825902  71.3794150   9.2224824  48.0431809  70.2408387
   6.2407686  67.0261707  62.3158750   5.6681653  67.6451894  61.8629222
   6.8140480  67.5761069  62.8498672  12.3083076  56.2720347  74.5005299
  13.2600499  56.3718445  74.5217523  12.1386526  55.4798616  75.0103383
  10.3297455  53.3575931  74.6864700   9.7347387  53.6380943  73.9911188
  10.0447152  53.8469832  75.4581441   9.4604946  67.3098857  63.4467332
  10.3935619  67.2444419  63.6500208   9.3728159  68.1455124  62.9881865
  12.0892963  66.6264728  60.4071280  12.0106594  66.2924591  61.3007038
  12.9102629  67.1186496  60.4062752  14.7871154  59.4926467  73.6147598
  14.7547474  58.5542468  73.8007282  15.3971777  59.5710504  72.8813423
   6.6254485  58.3622520  59.6574802   7.5713589  58.2328728  59.7263220
   6.2468730  57.6237182  60.1344231  14.9365642  56.2837510  73.6605882
  14.4204691  55.4995967  73.4735810  15.8205591  55.9556227  73.8252401
  12.5976369  50.0278526  69.6201694  12.4001190  49.7193614  70.5045026
  13.2076075  50.7540165  69.7499624  20.6047704  60.5542474  72.7553635
  21.3351092  60.2927762  73.3161338  19.9954649  59.8171196  72.7955703
  18.6863001  58.6950336  73.3528086  17.9596164  58.5606301  72.7444578
  18.2710288  59.0027165  74.1584804   4.8097402  56.2872496  59.5929688
   3.9028857  55.9905609  59.6692401   5.0873383  55.9902314  58.7263974
   6.4259467  50.8309386  65.7473929   5.6160196  50.4856471  66.1229175
   7.1143884  50.5216930  66.3361540   8.3550016  49.9087433  67.3698226
   8.9081054  50.3282886  68.0288249   8.5920102  48.9823181  67.4121182
   3.5796186  53.1459432  59.7341667   4.4415350  53.4714330  59.9937484
   3.7646530  52.3590928  59.2214733  11.7328823  52.0187958  66.8776890
  11.1527492  52.6772762  66.4954942  11.4664755  51.1965303  66.4664307
  10.1832389  51.4193016  69.0798210  10.6832168  51.5309550  68.2712529
  10.8267997  51.1154069  69.7199019  10.5153701  54.1788048  65.9333238
   9.6279556  54.4637699  65.7153433  10.9307690  54.0181812  65.0860515
  13.8668237  54.2034569  69.6487577  14.6428627  54.6931022  69.9212194
  13.1416371  54.6292624  70.1059447  16.3040796  54.9162189  70.7061518
  16.8985286  54.6757925  69.9954826  16.3767379  54.1969319  71.3335054
   9.6596914  63.9432723  60.0281258  10.3632764  64.1482726  60.6438914
   8.9359563  64.5109485  60.2930342  10.4894725  59.6942584  66.1483528
  10.4329926  60.1511136  65.3091161  11.0423067  58.9333269  65.9706371
  14.2999530  55.4832316  66.9733648  14.0436465  55.0828952  67.8041855
  13.6752399  56.1976110  66.8483787  18.6111868  58.2228390  69.4804939
  18.0511426  58.2921579  70.2536501  18.0055372  58.0469374  68.7604435
  11.5683612  64.3815252  62.0779718  12.4029216  63.9496451  61.8957193
  11.4067955  64.2097266  63.0056613  11.2229504  60.8847366  63.4436057
  11.1678308  60.7191637  62.5024502  10.5975559  61.5923399  63.5998247
   4.5325629  50.3855475  63.0221376   4.5204299  51.3297315  63.1789647
   5.4249051  50.2025620  62.7280837   8.3477749  46.9798251  67.2767313
   7.5810145  46.4256738  67.4223995   8.7588454  47.0520120  68.1381464
  20.1967887  74.8984903  72.1734895  20.8346297  74.7791651  71.4698235
  20.0788730  75.8465747  72.2322847  17.0057593  74.8512332  72.1096420
  16.6676105  74.7353396  71.2216954  17.8747361  74.4503497  72.0897426
  12.8644409  76.7047808  68.0993310  12.3009274  76.6137745  67.3309598
  12.7496804  75.8847712  68.5795803  18.4443967  80.3718776  63.4107775
  17.7931947  80.9572856  63.0241789  19.2388330  80.9024971  63.4702813
  12.3699595  77.4607913  63.8094910  13.1430471  76.9136900  63.6707786
  12.7224994  78.3252162  64.0209371  15.1340844  76.1661144  73.6063169
  15.7304416  75.9417166  72.8920132  15.1915816  75.4245889  74.2088617
  14.7065872  73.6200579  61.4413360  14.9591393  73.0982100  60.6796823
  13.7690432  73.4566724  61.5440043  19.7509155  72.6236357  69.2488103
  20.5372245  72.2055780  68.8978520  20.0147860  73.5282449  69.4169751
  19.9219233  78.0609208  63.9476760  19.2865066  78.1343834  64.6597664
  19.5916639  78.6502806  63.2695839  25.1517582  72.5611591  70.1521081
  25.8842754  71.9910807  70.3858911  24.3956938  72.1733191  70.5927587
  14.4262161  75.5228685  63.6437735  14.3098419  74.8473588  64.3118819
  14.5364421  75.0361059  62.8269888  16.7693702  74.9838832  67.3484424
  16.4051909  74.4569453  68.0597345  17.6260818  74.5937301  67.1750909
  22.6743003  66.2733165  74.6115690  22.3426328  67.1428576  74.3876905
  22.0788616  65.9569449  75.2909720  16.4099189  70.0128732  62.3445772
  16.5773591  70.8808968  62.7116243  16.2196358  70.1756013  61.4207062
  19.1674522  78.4745711  74.0111603  18.8675245  79.3770749  73.9027410
  18.8225582  78.2077894  74.8632756  12.6187004  74.9259507  70.0448307
  11.6937500  74.7935722  70.2525999  12.8671417  75.7053727  70.5418250
  22.5671666  70.9928251  71.6909040  21.6588543  70.9243659  71.3967801
  22.5159262  71.4700196  72.5190866  16.3888410  72.4686389  63.3292439
  16.2688035  72.9143440  64.1677919  15.6940998  72.8171707  62.7705977
  24.4333312  69.1944689  73.4686914  23.7907693  69.4877222  72.8226709
  23.9288241  69.0797610  74.2740111  22.0873476  72.9407862  64.1572773
  22.9991332  73.1735249  63.9820471  21.5783123  73.5244907  63.5947852
  16.7245314  72.3005097  75.1667623  17.5706509  72.7244511  75.3102272
  16.6643952  71.6438721  75.8606186  20.6943058  77.9233681  71.5486355
  20.0651921  78.0879395  70.8462423  20.3068721  78.3375290  72.3197319
  24.5732290  78.8588119  68.9030718  23.8883329  79.2387020  68.3527752
  24.6576140  79.4683445  69.6362666  19.8744759  69.9609465  76.8248796
  19.6305691  70.7151526  76.2883072  20.1504690  70.3394813  77.6596043
  21.8283222  76.5048078  75.5026062  22.0400117  77.1479838  74.8260443
  21.7812970  75.6710394  75.0347992  19.4309451  69.1165898  72.4062634
  18.5693930  69.4147152  72.6979372  19.4571886  69.3336297  71.4743667
  16.2471020  77.6608089  68.8136440  16.7109366  77.9395792  68.0241062
  15.9827818  76.7591533  68.6309530  15.1839906  73.7831241  65.6226005
  15.8863950  74.2352285  66.0899931  14.8520535  73.1415060  66.2505898
  22.9429050  79.3820033  73.6748419  23.7646494  78.9800220  73.3931101
  22.9391453  79.2788267  74.6264535  10.8779986  72.4059373  67.8826615
  10.0811149  72.5178067  68.4010111  10.6505578  72.7446025  67.0167506
  31.0335043  75.7258782  70.0233391  30.2798751  75.1566180  69.8677395
  31.1682584  75.6921446  70.9704025   9.8763068  78.1147622  66.2716035
  10.3887589  78.9090872  66.4221600  10.5285781  77.4173912  66.2049637
  19.7726135  64.1202746  74.2287004  19.4290404  65.0104387  74.1526114
  20.1405097  63.9304403  73.3656589   7.8411985  76.4436276  67.0475606
   8.6787207  76.8533285  66.8309313   8.0190253  75.5035718  67.0175800
  19.7376417  74.1111357  62.7359439  19.2223041  74.8815962  62.9747826
  19.4653726  73.4376493  63.3592500  17.3223528  68.9561058  67.7944677
  16.4665125  68.5667908  67.6150316  17.7350480  69.0353018  66.9344463
  18.8522675  66.4907401  72.1936237  18.3487471  66.4537536  71.3804042
  19.1453282  67.4000144  72.2532894  15.0965561  66.5746131  71.2002419
  15.9618558  66.3788939  70.8408308  15.1643070  66.3456482  72.1271775
  24.7110691  76.8643712  64.6712612  23.9340134  76.5254871  64.2267774
  25.3902172  76.8696335  63.9967577  19.5262720  71.9838449  64.5619220
  19.2212856  72.2984598  65.4129363  20.4793163  72.0619869  64.6046553
  17.9709152  78.1428672  66.2112174  17.4430514  77.4081432  65.8985411
  17.4696655  78.9203349  65.9652142  22.9501998  76.3377693  71.3279220
  22.2925673  77.0276954  71.4159349  23.7542398  76.7274125  71.6713207
  12.7027880  68.8048339  68.5718785  13.2771632  68.5823520  67.8391978
  13.2898862  68.8737033  69.3247387  21.7607457  74.6922065  69.3783162
  22.2739339  75.3252057  69.8804872  22.4108681  74.0923261  69.0126522
  13.0297467  70.8352800  62.5914671  12.1934779  71.1727486  62.9123945
  12.8902237  70.7001779  61.6541808  15.0050548  65.6789587  67.2993855
  14.3514960  65.3638605  66.6750470  14.9631022  65.0565328  68.0253678
  16.1161752  75.9608883  59.2147147  15.2088814  75.7298136  59.4138296
  16.6132784  75.1646502  59.4021128  18.2388288  72.1671521  71.6241502
  17.3210849  72.3886468  71.4663191  18.6548432  72.2417832  70.7653210
  19.0223336  73.5662937  66.7544183  19.7695155  74.0784334  66.4451305
  19.2914925  73.2446989  67.6148576  17.2949986  76.0621477  63.7371137
  16.3861205  75.7780510  63.8343607  17.3245070  76.4820556  62.8774444
  22.5269253  79.6728067  67.5062305  22.0731580  78.8318977  67.5627495
  21.8963220  80.3089465  67.8437085  21.4702173  70.6020053  68.7362972
  20.7324930  70.0897439  69.0673215  21.7228946  70.1620435  67.9246249
  20.9702193  81.5104564  68.4412123  21.2625167  82.0709621  67.7224488
  21.4800813  81.8033125  69.1965282  21.5713800  63.3796305  69.3304741
  21.8772677  62.5193668  69.0430656  22.2966405  63.9713925  69.1303735
   7.8638156  73.7826992  67.7186339   7.6662556  73.1896352  66.9937406
   7.3084820  73.4779202  68.4362278  15.8434880  73.6750098  69.8380932
  15.8983490  72.7223934  69.7623409  15.0326082  73.8309537  70.3222231
  16.9926074  77.6030221  61.0759216  16.5545504  76.8866080  60.6164853
  17.7336515  77.8306336  60.5144307  13.7827240  72.2927158  67.5971311
  12.9695105  72.5921328  68.0036503  14.2786234  71.8982847  68.3145793
  19.3801452  72.7568982  76.4286205  19.7350839  72.9840455  77.2880671
  20.0273583  73.0887359  75.8063460  25.1099189  75.8787418  67.1335534
  24.9717087  76.0689014  66.2056723  24.7535407  76.6406801  67.5903585
  13.2741315  69.8645513  73.2132546  13.9140694  69.7234272  72.5155509
  12.4418845  69.5780027  72.8371148  25.1368568  77.9463945  72.1446806
  25.5705075  77.8539234  72.9929860  25.8500149  77.9221446  71.5066822
  14.0501619  79.1647944  69.3267539  14.8442217  78.6698264  69.1250114
  13.3393311  78.6365807  68.9635244  10.3584382  73.3091025  65.4027291
   9.4281970  73.2475481  65.6197253  10.4541854  72.7866978  64.6063933
  10.2769931  69.8345838  67.9905533  10.5376748  70.7491172  67.8814693
  11.0987103  69.3670281  68.1402146  25.9984118  77.9887646  74.6779691
  26.1920008  78.8933456  74.9238966  25.8984736  77.5295065  75.5118276
  17.6520428  67.8745536  77.1770018  17.0048343  68.5735486  77.0834495
  18.4221444  68.3081680  77.5446267  17.8284563  75.7126301  75.2366838
  18.7576623  75.8637461  75.0635805  17.4075593  75.8010322  74.3815485
  18.1778110  79.1158568  70.3954214  17.8427942  79.0759338  71.2911863
  17.6782055  78.4503284  69.9224624  21.1137301  76.4614603  60.6691273
  20.4966472  75.7361431  60.5724326  20.6453790  77.2223963  60.3258347
  12.9035847  70.6800027  59.7912577  12.0265314  70.5588828  59.4274824
  13.3793600  69.8886105  59.5391466  22.7708840  79.1353095  76.5611033
  21.8835619  78.7979017  76.6837432  23.3407391  78.4036126  76.7979799
  19.3996423  68.8420947  69.6809303  19.8965123  68.0890909  69.3610374
  18.6283405  68.8785264  69.1152513  27.2526181  74.5461312  71.3227595
  27.2416057  75.4286028  70.9521528  26.3843560  74.1932863  71.1282132
  20.4826204  77.5992634  67.2547727  19.5482483  77.7194097  67.0852431
  20.6602873  76.6965101  66.9907737  15.9831392  70.9838330  69.4080988
  15.6129180  70.4309370  70.0961894  16.4790485  70.3796463  68.8555988
  23.8698755  73.4409953  67.7897761  24.3359208  74.2737945  67.7158064
  24.3206256  72.9754935  68.4943019  21.9374987  79.7853775  64.7883913
  22.2134830  79.6710369  65.6977787  21.0679485  79.3871260  64.7496086
  21.8415418  65.8090540  71.8288662  20.9278498  66.0394767  71.9970869
  22.2708520  65.8928984  72.6802695  21.6121877  73.9980432  74.3288556
  20.9593327  74.2456340  73.6741009  21.9902257  73.1844571  73.9951034
   7.6314541  72.2741882  65.2325483   7.9267982  71.3652561  65.1792537
   6.7302577  72.2529622  64.9106485  11.1608788  70.3497879  71.2153032
  10.4395374  70.9633847  71.0760505  11.9502044  70.8855644  71.1369678
  21.6035528  81.7958166  73.6655442  20.6565864  81.6763518  73.5933768
  21.9518301  80.9080665  73.7481703   9.3602383  69.9555980  65.3564808
   9.0315089  69.0753359  65.1739914   9.7141753  69.9003649  66.2441197
  18.6081962  81.5910883  69.8659794  18.4606924  80.6627590  70.0467364
  19.4335455  81.6130973  69.3816869  12.4744206  70.2428950  65.7240286
  12.8140278  70.7714871  65.0018894  12.9216326  70.5809356  66.4998852
  22.2116083  82.4139441  70.9524667  23.1362631  82.2082303  70.8149118
  22.0431387  82.1655843  71.8614008  15.1687647  68.6266000  75.1743354
  14.8284467  67.8273814  75.5764034  14.4626653  68.9267711  74.6020187
  15.8204118  65.7115313  73.6270677  16.6430188  65.2375791  73.5049567
  16.0642182  66.4905797  74.1269363  14.4612353  68.7403571  63.9233579
  15.1820715  69.1184824  63.4197296  13.8377657  69.4592448  64.0268557
  18.6043476  69.4448720  64.8591911  18.8207090  70.3273358  64.5580739
  18.1237543  69.0534934  64.1297553  13.3442697  72.4034434  71.4362656
  13.1987278  72.7174737  72.3286937  12.8667901  73.0219334  70.8833554
  15.2039080  69.3936982  71.4843545  15.1900649  68.4978075  71.1475843
  15.9211508  69.4007645  72.1181831  17.0565211  69.8274322  73.5296673
  16.7982989  70.7491392  73.5281003  16.5250251  69.4304756  74.2197137
  14.6075976  68.2751362  66.7531115  14.7291887  67.3468008  66.9522003
  14.3178018  68.2890048  65.8409431  17.4767166  65.9606272  69.8897835
  17.4988863  66.0245605  68.9349815  17.8935225  65.1210781  70.0838341
  27.8550791  75.6961532  67.9277058  28.2981937  74.9468857  67.5296181
  26.9777301  75.6871668  67.5450790  22.9886572  82.2491873  63.4083656
  23.6837477  82.8698566  63.6270971  23.3309722  81.3987224  63.6836034
  24.8877995  79.6991579  64.9370987  25.4129319  80.0378852  64.2120307
  24.8000348  78.7638594  64.7534122  24.6969776  77.1816949  77.5554914
  24.7467781  77.0166956  78.4970436  24.5883700  76.3144208  77.1652794
  21.9873539  73.1647877  78.8714220  22.8883401  73.0254342  78.5798218
  22.0621513  73.3302332  79.8112398  26.1987973  79.6013890  77.7996935
  25.9072781  79.9643871  78.6360396  25.5860104  78.8880899  77.6210267
  27.3983655  77.1666770  70.3199505  28.2330547  77.6056574  70.4837066
  27.5342784  76.6905423  69.5007751  24.4475161  74.7246505  76.2676993
  24.9229283  74.9174151  75.4595844  23.5240727  74.7805691  76.0220377
  11.3358668  75.8870672  65.8508071  11.0904710  74.9833002  66.0488281
  11.5054583  75.8887823  64.9087549  19.0255378  66.7594349  75.2332827
  19.5437322  67.4955375  74.9079316  18.6710511  67.0658342  76.0679586
  10.6054316  71.6199030  63.3494233   9.9123560  71.6943385  62.6934269
  10.3606067  70.8559373  63.8715750  19.2767972  63.1794631  70.7533724
  19.5569726  62.5117820  71.3794150  20.0618579  63.3723727  70.2408387
  23.1476830  71.6012265  74.5005299  24.0994253  71.7010363  74.5217523
  22.9780281  70.8090534  75.0103383  21.1691210  68.6867848  74.6864700
  20.5741142  68.9672861  73.9911188  20.8840907  69.1761749  75.4581441
  22.9286717  81.9556645  60.4071280  22.8500349  81.6216509  61.3007038
  23.7496384  82.4478413  60.4062752  25.6264908  74.8218385  73.6147598
  25.5941228  73.8834385  73.8007282  26.2365532  74.9002421  72.8813423
  17.4648239  73.6914438  59.6574802  18.4107344  73.5620646  59.7263220
  17.0862484  72.9529100  60.1344231  25.7759397  71.6129428  73.6605882
  25.2598445  70.8287885  73.4735810  26.6599345  71.2848145  73.8252401
  23.4370124  65.3570444  69.6201694  23.2394945  65.0485532  70.5045026
  24.0469829  66.0832083  69.7499624  31.4441458  75.8834392  72.7553635
  32.1744847  75.6219680  73.3161338  30.8348404  75.1463114  72.7955703
  29.5256755  74.0242254  73.3528086  28.7989919  73.8898219  72.7444578
  29.1104042  74.3319083  74.1584804  15.6491156  71.6164414  59.5929688
  14.7422612  71.3197527  59.6692401  15.9267137  71.3194232  58.7263974
  17.2653222  66.1601304  65.7473929  16.4553950  65.8148389  66.1229175
  17.9537639  65.8508848  66.3361540  19.1943770  65.2379351  67.3698226
  19.7474809  65.6574804  68.0288249  19.4313857  64.3115099  67.4121182
  14.4189941  68.4751349  59.7341667  15.2809105  68.8006248  59.9937484
  14.6040285  67.6882845  59.2214733  22.5722577  67.3479876  66.8776890
  21.9921246  68.0064680  66.4954942  22.3058510  66.5257220  66.4664307
  21.0226144  66.7484933  69.0798210  21.5225922  66.8601468  68.2712529
  21.6661752  66.4445986  69.7199019  21.3547455  69.5079966  65.9333238
  20.4673310  69.7929617  65.7153433  21.7701444  69.3473730  65.0860515
  24.7061991  69.5326487  69.6487577  25.4822382  70.0222940  69.9212194
  23.9810126  69.9584541  70.1059447  27.1434550  70.2454106  70.7061518
  27.7379041  70.0049842  69.9954826  27.2161134  69.5261237  71.3335054
  20.4990669  79.2724641  60.0281258  21.2026519  79.4774643  60.6438914
  19.7753318  79.8401403  60.2930342  21.3288479  75.0234502  66.1483528
  21.2723680  75.4803054  65.3091161  21.8816822  74.2625187  65.9706371
  25.1393285  70.8124234  66.9733648  24.8830219  70.4120870  67.8041855
  24.5146153  71.5268028  66.8483787  29.4505623  73.5520307  69.4804939
  28.8905181  73.6213497  70.2536501  28.8449126  73.3761292  68.7604435
  22.4077366  79.7107170  62.0779718  23.2422970  79.2788368  61.8957193
  22.2461709  79.5389184  63.0056613  22.0623258  76.2139283  63.4436057
  22.0072062  76.0483555  62.5024502  21.4369314  76.9215316  63.5998247
  15.3719384  65.7147392  63.0221376  15.3598054  66.6589232  63.1789647
  16.2642806  65.5317538  62.7280837  19.1871503  62.3090169  67.2767313
  18.4203899  61.7548656  67.4223995  19.5982208  62.3812038  68.1381464
  35.9911337  87.8903508  70.1521081  36.7236509  87.3202725  70.3858911
  35.2350693  87.5025109  70.5927587  33.5136757  81.6025082  74.6115690
  33.1820082  82.4720493  74.3876905  32.9182371  81.2861366  75.2909720
  33.4065421  86.3220168  71.6909040  32.4982298  86.2535577  71.3967801
  33.3553016  86.7992113  72.5190866  35.2727067  84.5236607  73.4686914
  34.6301447  84.8169140  72.8226709  34.7681995  84.4089527  74.2740111
  30.7138514  85.2901383  76.8248796  30.4699446  86.0443444  76.2883072
  30.9898444  85.6686731  77.6596043  30.2703205  84.4457816  72.4062634
  29.4087684  84.7439070  72.6979372  30.2965640  84.6628215  71.4743667
  30.6119889  79.4494663  74.2287004  30.2684158  80.3396305  74.1526114
  30.9798852  79.2596321  73.3656589  28.1617283  84.2852975  67.7944677
  27.3058879  83.8959826  67.6150316  28.5744235  84.3644936  66.9344463
  29.6916429  81.8199319  72.1936237  29.1881225  81.7829454  71.3804042
  29.9847036  82.7292061  72.2532894  25.9359315  81.9038048  71.2002419
  26.8012312  81.7080857  70.8408308  26.0036824  81.6748400  72.1271775
  25.8444302  81.0081505  67.2993855  25.1908714  80.6930522  66.6750470
  25.8024776  80.3857246  68.0253678  32.3095927  85.9311971  68.7362972
  31.5718684  85.4189357  69.0673215  32.5622701  85.4912352  67.9246249
  32.4107555  78.7088223  69.3304741  32.7166432  77.8485586  69.0430656
  33.1360160  79.3005843  69.1303735  28.4914183  83.2037454  77.1770018
  27.8442098  83.9027404  77.0834495  29.2615198  83.6373598  77.5446267
  30.2390178  84.1712865  69.6809303  30.7358877  83.4182827  69.3610374
  29.4677159  84.2077181  69.1152513  32.6809173  81.1382458  71.8288662
  31.7672252  81.3686685  71.9970869  33.1102274  81.2220902  72.6802695
  26.0081401  83.9557918  75.1743354  25.6678222  83.1565731  75.5764034
  25.3020407  84.2559629  74.6020187  26.6597873  81.0407231  73.6270677
  27.4823942  80.5667709  73.5049567  26.9035937  81.8197714  74.1269363
  29.4437230  84.7740638  64.8591911  29.6600845  85.6565276  64.5580739
  28.9631298  84.3826851  64.1297553  25.4469731  83.6043279  66.7531115
  25.5685642  82.6759926  66.9522003  25.1571773  83.6181965  65.8409431
  28.3160921  81.2898190  69.8897835  28.3382618  81.3537523  68.9349815
  28.7328980  80.4502699  70.0838341  29.8649132  82.0886266  75.2332827
  30.3831076  82.8247293  74.9079316  29.5104265  82.3950259  76.0679586
  30.1161727  78.5086549  70.7533724  30.3963480  77.8409738  71.3794150
  30.9012333  78.7015644  70.2408387  33.9870585  86.9304183  74.5005299
  34.9388008  87.0302280  74.5217523  33.8174035  86.1382451  75.0103383
  32.0084964  84.0159766  74.6864700  31.4134896  84.2964779  73.9911188
  31.7234661  84.5053667  75.4581441  36.6153151  86.9421346  73.6605882
  36.0992200  86.1579802  73.4735810  37.4993100  86.6140062  73.8252401
  34.2763878  80.6862361  69.6201694  34.0788699  80.3777450  70.5045026
  34.8863584  81.4124000  69.7499624  28.1046976  81.4893221  65.7473929
  27.2947705  81.1440306  66.1229175  28.7931393  81.1800765  66.3361540
  30.0337525  80.5671268  67.3698226  30.5868563  80.9866722  68.0288249
  30.2707611  79.6407016  67.4121182  25.2583695  83.8043267  59.7341667
  26.1202859  84.1298165  59.9937484  25.4434039  83.0174763  59.2214733
  33.4116332  82.6771793  66.8776890  32.8315001  83.3356597  66.4954942
  33.1452264  81.8549138  66.4664307  31.8619898  82.0776851  69.0798210
  32.3619677  82.1893386  68.2712529  32.5055506  81.7737904  69.7199019
  32.1941210  84.8371884  65.9333238  31.3067065  85.1221534  65.7153433
  32.6095199  84.6765647  65.0860515  35.5455746  84.8618405  69.6487577
  36.3216136  85.3514857  69.9212194  34.8203880  85.2876459  70.1059447
  37.9828305  85.5746024  70.7061518  38.5772795  85.3341760  69.9954826
  38.0554888  84.8553155  71.3335054  35.9787039  86.1416152  66.9733648
  35.7223974  85.7412787  67.8041855  35.3539907  86.8559946  66.8483787
  40.2899377  88.8812225  69.4804939  39.7298935  88.9505414  70.2536501
  39.6842881  88.7053209  68.7604435  26.2113138  81.0439310  63.0221376
  26.1991808  81.9881150  63.1789647  27.1036560  80.8609455  62.7280837
  30.0265258  77.6382087  67.2767313  29.2597654  77.0840573  67.4223995
  30.4375963  77.7103955  68.1381464   3.4730075  18.9089878  56.8766388
   4.2055247  18.3389095  57.1104218   2.7169430  18.5211478  57.3172894
   2.7545805  15.5422976  60.1932221   2.1120185  15.8355510  59.5472015
   2.2500733  15.4275897  60.9985417   2.8944783  25.2066406  55.6276025
   2.2095821  25.5865307  55.0773058   2.9788632  25.8161733  56.3607973
   1.2641542  25.7298320  60.3993726   2.0858986  25.3278508  60.1176408
   1.2603945  25.6266555  61.3509842   9.3547535  22.0737069  56.7478697
   8.6011244  21.5044467  56.5922702   9.4895076  22.0399733  57.6949332
   3.0323184  23.2121999  51.3957919   2.2552626  22.8733158  50.9513081
   3.7114665  23.2174622  50.7212884   1.2714491  22.6855980  58.0524527
   0.6138165  23.3755241  58.1404655   2.0754890  23.0752412  58.3958513
   3.4311681  22.2265705  53.8580841   3.2929579  22.4167301  52.9302030
   3.0747900  22.9885088  54.3148892   3.4581060  24.2942232  58.8692112
   3.8917567  24.2017521  59.7175166   4.1712641  24.2699733  58.2312128
   4.3196610  24.3365933  61.4024998   4.5132500  25.2411744  61.6484273
   4.2197228  23.8773352  62.2363583   1.0903925  27.5191798  65.0542360
   1.0316471  26.8351018  64.3872943   1.4923444  28.2610788  64.6022986
   5.5738673  20.8939600  58.0472901   5.5628549  21.7764315  57.6766835
   4.7056053  20.5411150  57.8527439   2.1911248  19.7888241  54.5143068
   2.6571700  20.6216232  54.4403370   2.6418748  19.3233222  55.2188326
   0.5328576  28.7617729  57.6769973   1.4575123  28.5560590  57.5394424
   0.3643879  28.5134130  58.5859315   6.1763283  22.0439819  54.6522364
   6.6194429  21.2947144  54.2541488   5.2989793  22.0349955  54.2696096
   1.3099064  28.5970161  50.1328963   2.0049969  29.2176853  50.3516278
   1.6522215  27.7465512  50.4081341   3.2090487  26.0469866  51.6616294
   3.7341812  26.3857139  50.9365614   3.1212840  25.1116881  51.4779428
   2.8984394  26.6802770  66.9667492   2.1079937  26.6626909  66.4271991
   2.6617748  27.2191063  67.7216528   3.0182269  23.5295236  64.2800220
   3.0680274  23.3645243  65.2215743   2.9096192  22.6622495  63.8898101
   4.5200465  25.9492178  64.5242242   4.2285274  26.3122158  65.3605703
   3.9072597  25.2359186  64.3455574   5.7196148  23.5145057  57.0444812
   6.5543039  23.9534861  57.2082372   5.8555277  23.0383711  56.2253058
   2.7687654  21.0724792  62.9922300   3.2441775  21.2652438  62.1841151
   1.8453219  21.1283978  62.7465683   1.4689323  17.9490552  61.2250605
   2.4206746  18.0488650  61.2462829   1.2992773  17.1568821  61.7348690
   1.2499209  28.3034933  47.1316586   1.1712841  27.9694796  48.0252344
   2.0708876  28.7956701  47.1308059   3.9477400  21.1696672  60.3392905
   3.9153721  20.2312673  60.5252589   4.5578024  21.2480709  59.6058730
   4.0971889  17.9607715  60.3851188   3.5810938  17.1766172  60.1981117
   4.9811837  17.6326432  60.5497708   9.7653950  22.2312679  59.4798942
  10.4957339  21.9697967  60.0406645   9.1560896  21.4941401  59.5201010
   7.8469247  20.3720541  60.0773393   7.1202411  20.2376506  59.4689885
   7.4316534  20.6797370  60.8830111   3.0274484  15.8804774  56.3732884
   3.8034874  16.3701227  56.6457501   2.3022618  16.3062829  56.8304753
   5.4647042  16.5932394  57.4306825   6.0591533  16.3528130  56.7200133
   5.5373626  15.8739524  58.0580361   3.4605777  17.1602521  53.6978954
   3.2042711  16.7599157  54.5287162   2.8358645  17.8746315  53.5729093
   7.7718115  19.8998594  56.2050246   7.2117673  19.9691784  56.9781808
   7.1661618  19.7239579  55.4849742   0.7289858  26.0585457  48.8025025
   1.5635462  25.6266656  48.6202500   0.5674201  25.8867471  49.7301919
   9.3574134  36.5755108  58.8980201   9.9952544  36.4561856  58.1943542
   9.2394976  37.5235952  58.9568154   6.1663840  36.5282536  58.8341726
   5.8282351  36.4123601  57.9462261   7.0353608  36.1273702  58.8142732
   2.0250656  38.3818013  54.8238617   1.4615521  38.2907950  54.0554905
   1.9103051  37.5617917  55.3041110   6.6483623  37.6817388  64.7927932
   6.6372264  37.2870186  63.9208435   6.8104262  36.9483461  65.3861703
   7.6050214  42.0488981  50.1353082   6.9538194  42.6343061  49.7487096
   8.3994577  42.5795176  50.1948119   1.5305841  39.1378118  50.5340216
   2.3036717  38.5907105  50.3953092   1.8831240  40.0022367  50.7454678
   3.3690884  40.4654500  63.7407116   3.0780750  41.3700131  63.6253782
   4.0047868  40.5071028  64.4551185   4.2947091  37.8431349  60.3308475
   4.8910663  37.6187371  59.6165438   4.3522062  37.1016094  60.9333923
   3.8672119  35.2970784  48.1658666   4.1197640  34.7752305  47.4042129
   2.9296678  35.1336929  48.2685350   8.9115402  34.3006562  55.9733410
   9.6978491  33.8825985  55.6223827   9.1754106  35.2052654  56.1415058
   9.0825479  39.7379413  50.6722066   8.4471312  39.8114039  51.3842971
   8.7522886  40.3273011  49.9941146  14.3123829  34.2381795  56.8766388
  15.0449001  33.6681012  57.1104218  13.5563185  33.8503396  57.3172894
   3.5868408  37.1998890  50.3683041   3.4704666  36.5243793  51.0364126
   3.6970668  36.7131264  49.5515194   5.9299949  36.6609037  54.0729730
   5.5658156  36.1339658  54.7842652   6.7867065  36.2707506  53.8996216
  11.8349250  27.9503370  61.3360997  11.5032574  28.8198780  61.1122212
  11.2394863  27.6339654  62.0155027   5.5705436  31.6898937  49.0691079
   5.7379838  32.5579173  49.4361550   5.3802605  31.8526218  48.1452368
   8.3280769  40.1515916  60.7356909   8.0281492  41.0540954  60.6272717
   7.9831829  39.8848099  61.5878062   1.7793251  36.6029712  56.7693614
   0.8543747  36.4705926  56.9771306   2.0277664  37.3823932  57.2663556
  11.7277913  32.6698456  58.4154347  10.8194790  32.6013864  58.1213108
  11.6765509  33.1470401  59.2436172   5.5494657  34.1456594  50.0537746
   5.4294282  34.5913645  50.8923226   4.8547245  34.4941912  49.4951284
   3.3101549  46.9160236  53.7027877   3.2325579  47.8668061  53.7816358
   2.7063192  46.5706108  54.3602803   5.8018779  34.0888101  66.3589244
   5.0252113  34.6482021  66.3492109   6.4409342  34.5744884  66.8804114
  13.5939559  30.8714894  60.1932221  12.9513939  31.1647427  59.5472015
  13.0894488  30.7567814  60.9985417  11.2479723  34.6178067  50.8818080
  12.1597579  34.8505454  50.7065777  10.7389370  35.2015112  50.3193158
   4.0565151  36.8973555  65.9207211   4.7979835  37.4358599  65.6442035
   3.3502136  37.5239843  66.0778763   9.5320491  39.0402695  64.5179372
   9.9403847  38.5985106  63.7734005   8.8097752  38.4655323  64.7713565
   5.8851561  33.9775302  61.8912929   6.7312756  34.4014715  62.0347578
   5.8250198  33.3208926  62.5851492   9.8549305  39.6003886  58.2731661
   9.2258168  39.7649600  57.5707729   9.4674967  40.0145495  59.0442625
  13.7338537  40.5358324  55.6276025  13.0489575  40.9157225  55.0773058
  13.8182386  41.1453650  56.3607973   9.0351006  31.6379670  63.5494103
   8.7911938  32.3921731  63.0128379   9.3110936  32.0165018  64.3841350
  10.9889469  38.1818283  62.2271369  11.2006364  38.8250043  61.5505750
  10.9419217  37.3480599  61.7593299   8.5915698  30.7936103  59.1307941
   7.7300177  31.0917357  59.4224678   8.6178132  31.0106502  58.1988973
   5.4077267  39.3378294  55.5381746   5.8715613  39.6165997  54.7486369
   5.1434065  38.4361738  55.3554837   2.3001348  38.8849775  58.4761510
   2.8702705  39.3137044  57.8378994   2.8909460  38.6032360  59.1745695
   4.3446153  35.4601446  52.3471312   5.0470196  35.9122490  52.8145238
   4.0126782  34.8185265  52.9751205   2.7926515  34.0513203  66.7222521
   2.1625175  34.7329484  66.9557918   2.6862603  33.9396284  65.7775659
  12.1035297  41.0590238  60.3993726  12.9252740  40.6570425  60.1176408
  12.0997700  40.9558472  61.3509842   5.8691900  40.6074281  62.5554436
   5.9336333  41.0694689  63.3912608   5.1602824  39.9771646  62.6836746
  20.1941290  37.4028987  56.7478697  19.4404998  36.8336385  56.5922702
  20.3288831  37.3691651  57.6949332   5.5839918  42.2742389  52.4233417
   5.4485593  43.1193925  52.8518265   6.1249730  42.4761666  51.6599351
   2.0707257  28.3533969  69.0847772   1.6774203  27.8000167  69.7595416
   2.8873398  28.6644547  69.4754290   0.8464200  42.9083583  55.0784095
   1.0230828  43.8301548  54.8905079   1.6421033  42.5942002  55.5078475
   4.9875218  29.7691848  66.6768029   5.7284932  30.3699001  66.5972491
   5.2193141  29.0269486  66.1186071   7.2108394  42.8965955  66.5533759
   6.7672248  42.1102334  66.2354663   7.8725608  43.0845106  65.8877650
   1.9695515  44.4261757  61.0794437   2.5202940  44.2978820  60.3071431
   1.1306991  44.7256646  60.7289330   9.3089632  43.1768755  64.5815160
   9.2908108  43.9977636  64.0895429  10.2309552  43.0522830  64.8065301
   5.7662686  40.6912885  65.4238668   6.2991023  39.9301173  65.1937976
   5.2376767  40.3986537  66.1662823   8.9332381  25.7972951  60.9532310
   8.5896651  26.6874592  60.8771421   9.3011344  25.6074608  60.0901895
   8.8982664  35.7881562  49.4604745   8.3829287  36.5586166  49.6993133
   8.6259973  35.1146698  50.0837807   6.4829775  30.6331263  54.5189984
   5.6271371  30.2438113  54.3395622   6.8956727  30.7123223  53.6589769
   8.0128922  28.1677606  58.9181543   7.5093717  28.1307741  58.1049349
   8.3059529  29.0770349  58.9778200   4.2571808  28.2516336  57.9247725
   5.1224804  28.0559144  57.5653615   4.3249317  28.0226687  58.8517082
  13.8716938  38.5413916  51.3957919  13.0946381  38.2025076  50.9513081
  14.5508419  38.5466540  50.7212884   8.6868967  33.6608654  51.2864527
   8.3819103  33.9754803  52.1374670   9.6399409  33.7390074  51.3291860
   7.1315399  39.8198877  52.9357481   6.6036761  39.0851637  52.6230718
   6.6302902  40.5973554  52.6897449  12.1108245  38.0147898  58.0524527
  11.4531920  38.7047159  58.1404655  12.9148644  38.4044330  58.3958513
   1.8634127  30.4818544  55.2964092   2.4377879  30.2593725  54.5637285
   2.4505109  30.5507238  56.0492693  10.9213704  36.3692270  56.1028469
  11.4345586  37.0022262  56.6050178  11.5714928  35.7693466  55.7371829
   2.1903714  32.5123005  49.3159977   1.3541026  32.8497691  49.6369252
   2.0508483  32.3771984  48.3787114   4.1656794  27.3559792  54.0239161
   3.5121207  27.0408810  53.3995776   4.1237269  26.7335533  54.7498984
   5.2767999  37.6379087  45.9392454   4.3695061  37.4068341  46.1383603
   5.7739031  36.8416707  46.1266435   8.1836078  46.3476595  48.8589140
   7.5097777  46.6508291  49.4674098   8.5701900  47.1505675  48.5094597
   7.3994535  33.8441726  58.3486809   6.4817096  34.0656673  58.1908497
   7.8154678  33.9188036  57.4898516   8.1829583  35.2433142  53.4789489
   8.9301401  35.7554539  53.1696611   8.4521172  34.9217194  54.3393883
   6.4556233  37.7391682  50.4616444   5.5467452  37.4550715  50.5588913
   6.4851317  38.1590761  49.6019750  11.6875500  41.3498272  54.2307611
  11.2337827  40.5089182  54.2872802  11.0569467  41.9859670  54.5682391
  10.6308420  32.2790258  55.4608279   9.8931176  31.7667644  55.7918521
  10.8835193  31.8390639  54.6491556  10.1308439  43.1874769  55.1657429
  10.4231414  43.7479826  54.4469795  10.6407060  43.4803330  55.9210588
  10.7320047  25.0566510  56.0550048  11.0378924  24.1963873  55.7675963
  11.4572652  25.6484130  55.8549042   5.0041127  35.3520303  56.5626239
   5.0589737  34.3994139  56.4868716   4.1932329  35.5079742  57.0467537
   6.1532321  39.2800426  47.8004522   5.7151750  38.5636285  47.3410160
   6.8942761  39.5076541  47.2389614   2.9433487  33.9697363  54.3216618
   2.1301352  34.2691533  54.7281810   3.4392481  33.5753051  55.0391100
   5.0942065  43.9655120  56.2550883   5.0518243  44.1915966  55.3259415
   6.0104763  43.7318494  56.4036684   8.5407698  34.4339187  63.1531512
   8.8957086  34.6610660  64.0125977   9.1879830  34.7657564  62.5308767
  14.2705435  37.5557623  53.8580841  14.1323334  37.7459219  52.9302030
  13.9141654  38.3177006  54.3148892   2.4347561  31.5415718  59.9377853
   3.0746941  31.4004477  59.2400816   1.6025092  31.2550232  59.5616455
  14.2974815  39.6234150  58.8692112  14.7311322  39.5309439  59.7175166
  15.0106396  39.5991651  58.2312128   3.2107865  40.8418149  56.0512845
   4.0048464  40.3468469  55.8495420   2.4999558  40.3136012  55.6880551
   8.0302710  43.2236244  60.4025213   8.0839732  43.7927180  61.1702929
   7.1617491  43.3938129  60.0379250  15.1590364  39.6657851  61.4024998
  15.3526255  40.5703661  61.6484273  15.0590983  39.2065270  62.2363583
   6.8126675  29.5515741  63.9015325   6.1654590  30.2505691  63.8079801
   7.5827691  29.9851885  64.2691573  10.2205473  39.8164593  66.9765878
  10.0690980  39.5875145  66.0595962  10.2110153  40.7735195  66.9897223
   6.9890810  37.3896506  61.9612145   7.9182870  37.5407666  61.7881112
   6.5681840  37.4780527  61.1060791   5.7879141  41.4147171  59.7310682
   5.6490227  41.0465955  60.6036620   4.9993738  41.9294810  59.5594640
   6.3827293  46.5156267  51.0736219   6.5579049  46.0444310  51.8881842
   5.6960081  47.1422033  51.3017480   7.3384356  40.7928773  57.1199520
   7.0034189  40.7529543  58.0157170   6.8388302  40.1273489  56.6469930
   1.3128600  36.1996403  62.6452101   1.1748398  35.4676642  63.2463640
   2.2233524  36.1105303  62.3636289  10.2743548  38.1384808  47.3936580
   9.6572719  37.4131636  47.2969632   9.8060037  38.8994168  47.0503654
   3.9410901  35.9116363  62.1335781   4.6510520  35.2709555  62.0922399
   3.8980209  36.1629258  63.0561962  11.9297680  42.8483716  65.0542360
  11.8710226  42.1642936  64.3872943  12.3317198  43.5902706  64.6022986
   2.6539835  32.8981581  63.9531420   2.1177192  32.4472319  64.6053017
   2.0656544  33.0327489  63.2101885   2.0642094  32.3570232  46.5157884
   1.1871560  32.2359033  46.1520131   2.5399847  31.5656310  46.2636773
  11.9315087  40.8123300  63.2856340  11.0441866  40.4749222  63.4082739
  12.5013638  40.0806331  63.5225105   5.4616240  45.4724752  60.2517583
   5.3886412  46.2779724  60.7636888   5.0193634  45.6716718  59.4265604
   5.2506020  44.7096522  53.7620405   4.4673542  45.2518203  53.8558629
   5.9498765  45.2270502  54.1614646   8.5602670  30.5191152  56.4054610
   9.0571370  29.7661114  56.0855680   7.7889652  30.5555468  55.8397819
  16.4132428  36.2231517  58.0472901  16.4022304  37.1056233  57.6766835
  15.5449807  35.8703068  57.8527439   7.9214924  45.3711586  62.4075742
   8.6342896  46.0059051  62.3351643   7.4304953  45.4675452  61.5915744
   9.6432451  39.2762839  53.9793033   8.7088730  39.3964301  53.8097738
   9.8209119  38.3735306  53.7153043   5.1437639  32.6608535  56.1326295
   4.7735426  32.1079575  56.8207200   5.6396731  32.0566668  55.5801295
  13.0305002  35.1180158  54.5143068  13.4965454  35.9508150  54.4403370
  13.4812503  34.6525140  55.2188326   2.9726837  43.1206030  63.2281313
   3.6736297  43.7542513  63.3810707   2.5021952  43.4620761  62.4676952
  11.0981233  41.4623980  51.5129220  11.3741077  41.3480574  52.4223094
  10.2285732  41.0641464  51.4741393  11.0021665  27.4860745  58.5533969
  10.0884745  27.7164972  58.7216176  11.4314766  27.5699189  59.4048001
  10.7728123  35.6750637  61.0533863  10.1199574  35.9226545  60.3986316
  11.1508503  34.8614775  60.7196340   7.7335297  45.7110330  55.1562033
   7.9157692  44.8931986  55.6189785   8.5568283  45.9278023  54.7186923
   8.0677463  44.6378516  52.4177082   8.5965229  44.1270970  51.8047244
   8.3305682  44.3221046  53.2822615   6.8215696  36.4170448  67.5399900
   6.1456333  36.3164578  68.2102275   7.6443330  36.2609662  68.0035897
   1.4233211  45.6893632  55.1774858   0.7543586  46.1739760  54.6938898
   1.2846080  45.9362853  56.0918236   5.5638479  47.7237376  61.7757516
   6.1156787  47.8868997  62.5406601   5.9044673  48.3141814  61.1037541
   0.5402973  30.0712526  62.3779401   0.6044299  30.9327356  61.9656798
   0.4770093  29.4586527  61.6451759  10.4149354  42.5498633  67.6306170
  10.9589258  43.1628592  67.1361125   9.8336199  43.1078212  68.1473183
   8.7006867  45.6719351  58.7621198   8.5758006  44.8709091  58.2532144
   9.3585958  46.1665545  58.2735168  10.7641775  43.4728371  60.3900748
   9.8172111  43.3533723  60.3179075  11.1124548  42.5850869  60.4727010
   3.1241348  29.3622510  64.2138990   3.6475750  29.6084807  64.9765299
   2.9053682  30.1942545  63.7942127   7.7688208  43.2681088  56.5905100
   7.6213171  42.3397795  56.7712670   8.5941702  43.2901178  56.1062176
   1.6350453  31.9199155  52.4485593   1.9746525  32.4485076  51.7264201
   2.0822573  32.2579561  53.2244159  11.3722330  44.0909646  57.6769973
  12.2968878  43.8852508  57.5394424  11.2037634  43.8426047  58.5859315
   4.3293893  30.3036205  61.8988661   3.9890714  29.5044018  62.3009341
   3.6232900  30.6037916  61.3265494   4.9810365  27.3885518  60.3515984
   5.8036435  26.9145996  60.2294874   5.2248429  28.1676002  60.8514670
   3.6218600  30.4173776  50.6478885   4.3426962  30.7955029  50.1442602
   2.9983904  31.1362653  50.7513863   7.7649723  31.1218925  51.5837218
   7.9813337  32.0043563  51.2826046   7.2843790  30.7305139  50.8542860
   2.5048944  34.0804638  58.1607962   2.3593525  34.3944942  59.0532244
   2.0274148  34.6989539  57.6078861   4.3645327  31.0707186  58.2088852
   4.3506896  30.1748280  57.8721150   5.0817755  31.0777850  58.8427138
   6.2171458  31.5044527  60.2541979   5.9589235  32.4261597  60.2526310
   5.6856498  31.1074961  60.9442443  11.1617646  44.6095314  53.0332065
  11.3354524  44.0441736  52.2805917  11.6546538  45.4096209  52.8511555
   3.7682223  29.9521567  53.4776422   3.8898134  29.0238213  53.6767309
   3.4784265  29.9660253  52.5654737   6.6373413  27.6376477  56.6143142
   6.6595110  27.7015810  55.6595121   7.0541472  26.7980986  56.8083648
  17.0157038  37.3731737  54.6522364  17.4588184  36.6239062  54.2541488
  16.1383548  37.3641873  54.2696096  12.1492819  43.9262078  50.1328963
  12.8443723  44.5468771  50.3516278  12.4915969  43.0757429  50.4081341
  14.0484242  41.3761784  51.6616294  14.5735566  41.7149056  50.9365614
  13.9606595  40.4408799  51.4779428   5.7104291  45.2895857  63.7906170
   6.0191417  45.0445004  64.6628870   6.5079773  45.4942496  63.3025041
   5.7324903  47.4433767  56.0211547   5.2929893  46.9510146  56.7144404
   6.4833020  46.9006735  55.7803622   3.1798775  42.9871776  58.0933849
   2.5578784  42.3242481  57.7936076   3.8503642  43.0132908  57.4107496
   3.2523302  31.4653564  67.6866355   3.3011458  32.3415687  67.3044124
   3.7945817  30.9230957  67.1137998  13.7378148  42.0094687  66.9667492
  12.9473692  41.9918826  66.4271991  13.5011503  42.5482981  67.7216528
  13.8576023  38.8587154  64.2800220  13.9074028  38.6937161  65.2215743
  13.7489946  37.9914413  63.8898101   2.7412282  41.5375699  51.5692309
   2.8900402  42.2211164  50.9158982   3.5478725  41.5180789  52.0841765
  11.1479785  34.8418082  65.5959527  12.0489648  34.7024547  65.3043525
  11.2227760  35.0072537  66.5357704   5.4822591  32.2184937  64.4412713
   4.6125900  32.5118503  64.1695302   5.7182071  32.8025382  65.1619977
  15.3594220  41.2784095  64.5242242  15.0679028  41.6414076  65.3605703
  14.7466351  40.5651104  64.3455574  16.5589902  38.8436975  57.0444812
  17.3936794  39.2826779  57.2082372  16.6949031  38.3675628  56.2253058
  13.6081408  36.4016710  62.9922300  14.0835530  36.5944356  62.1841151
  12.6846974  36.4575896  62.7465683   8.1861625  28.4364553  61.9578134
   8.7043569  29.1725580  61.6324622   7.8316757  28.7428547  62.7924893
   8.4374219  24.8564836  57.4779030   8.7175973  24.1888025  58.1039457
   9.2224826  25.0493932  56.9653694   6.2407687  44.0323830  49.0404057
   5.6681654  44.6514017  48.5874528   6.8140481  44.5823192  49.5743978
  12.3083077  33.2782470  61.2250605  13.2600500  33.3780568  61.2462829
  12.1386528  32.4860739  61.7348690  10.3297457  30.3638053  61.4110006
   9.7347389  30.6443066  60.7156495  10.0447153  30.8531954  62.1826747
   9.4604947  44.3160980  50.1712639  10.3935620  44.2506542  50.3745514
   9.3728160  45.1517247  49.7127171  12.0892964  43.6326850  47.1316586
  12.0106595  43.2986714  48.0252344  12.9102631  44.1248618  47.1308059
  14.7871155  36.4988590  60.3392905  14.7547475  35.5604590  60.5252589
  15.3971779  36.5772626  59.6058730   6.6254486  35.3684643  46.3820109
   7.5713591  35.2390851  46.4508527   6.2468731  34.6299305  46.8589537
  14.9365643  33.2899633  60.3851188  14.4204692  32.5058090  60.1981117
  15.8205592  32.9618350  60.5497708  12.5976370  27.0340649  56.3447001
  12.4001191  26.7255737  57.2290333  13.2076076  27.7602288  56.4744931
  20.6047705  37.5604596  59.4798942  21.3351093  37.2989885  60.0406645
  19.9954650  36.8233318  59.5201010  18.6863002  35.7012459  60.0773393
  17.9596166  35.5668424  59.4689885  18.2710289  36.0089288  60.8830111
   6.5093178  39.4202389  67.8420766   7.4296188  39.5980988  68.0360812
   6.4742761  38.4758434  67.6900465   4.8097403  33.2934619  46.3174994
   3.9028858  32.9967732  46.3937708   5.0873384  32.9964437  45.4509280
   6.4259469  27.8371509  52.4719236   5.6160197  27.4918594  52.8474482
   7.1143886  27.5279052  53.0606847   8.3550017  26.9149556  54.0943532
   8.9081056  27.3345009  54.7533555   8.5920103  25.9885304  54.1366488
   4.3783116  32.9036629  69.8746296   4.2779843  33.8530986  69.8058387
   4.1604658  32.5754868  69.0022366   3.5796188  30.1521554  46.4586973
   4.4415352  30.4776453  46.7182791   3.7646532  29.3653050  45.9460039
  11.7328824  29.0250081  53.6022196  11.1527493  29.6834885  53.2200249
  11.4664757  28.2027425  53.1909614  10.1832390  28.4255138  55.8043517
  10.6832169  28.5371673  54.9957836  10.8267998  28.1216191  56.4444325
   4.2414386  36.3333768  68.6911358   3.7581468  37.1334128  68.8975247
   4.3275325  36.3441713  67.7378802   0.7587106  38.7939419  63.2950589
   1.5779995  39.2883497  63.3185426   1.0323914  37.8771387  63.2668157
  10.5153702  31.1850171  52.6578545   9.6279557  31.4699822  52.4398739
  10.9307691  31.0243934  51.8105822  13.8668238  31.2096692  56.3732884
  14.6428628  31.6993144  56.6457501  13.1416372  31.6354746  56.8304753
  16.3040797  31.9224311  57.4306825  16.8985288  31.6820047  56.7200133
  16.3767381  31.2031442  58.0580361   9.6596916  40.9494846  46.7526565
  10.3632766  41.1544848  47.3684220   8.9359564  41.5171608  47.0175648
  10.4894726  36.7004707  52.8728835  10.4329927  37.1573258  52.0336467
  11.0423068  35.9395392  52.6951678  14.2999532  32.4894439  53.6978954
  14.0436466  32.0891075  54.5287162  13.6752400  33.2038233  53.5729093
  18.6111870  35.2290512  56.2050246  18.0511428  35.2983701  56.9781808
  18.0055373  35.0531497  55.4849742   1.6807078  46.6627239  57.9568432
   1.5639463  47.6072672  57.8547122   0.8599525  46.3600801  58.3454231
  11.5683613  41.3877375  48.8025025  12.4029217  40.9558573  48.6202500
  11.4067956  41.2159389  49.7301919  11.2229505  37.8909488  50.1681364
  11.1678309  37.7253760  49.2269808  10.5975560  38.5985521  50.3243554
   8.5375412  40.1958400  69.4934927   9.4066572  40.3699052  69.1321562
   8.0582164  41.0152817  69.3710656   4.5325631  27.3917597  49.7466682
   4.5204300  28.3359437  49.9034953   5.4249052  27.2087743  49.4526144
   2.7061593  47.3155501  61.1724360   3.6088839  47.3479111  61.4890855
   2.4798963  46.3855952  61.1870696   4.4615195  46.0686488  57.8334439
   3.5110826  46.0688349  57.7198811   4.7647681  45.3219222  57.3170474
   8.3477750  23.9860374  54.0012619   7.5810146  23.4318861  54.1469302
   8.7588455  24.0582243  54.8626771  20.1967888  51.9047026  58.8980201
  20.8346298  51.7853773  58.1943542  20.0788731  52.8527870  58.9568154
  17.0057594  51.8574454  58.8341726  16.6676106  51.7415519  57.9462261
  17.8747363  51.4565619  58.8142732  12.8644410  53.7109931  54.8238617
  12.3009275  53.6199868  54.0554905  12.7496805  52.8909835  55.3041110
  17.4877377  53.0109306  64.7927932  17.4766018  52.6162104  63.9208435
  17.6498017  52.2775378  65.3861703  10.4108842  55.2061122  57.6622838
  11.2030134  54.8651947  57.2469137  10.6505492  55.3156097  58.5824991
  18.4443969  57.3780898  50.1353082  17.7931949  57.9634979  49.7487096
  19.2388332  57.9087093  50.1948119  12.3699596  54.4670035  50.5340216
  13.1430472  53.9199023  50.3953092  12.7224995  55.3314285  50.7454678
  14.2084638  55.7946418  63.7407116  13.9174504  56.6992049  63.6253782
  14.8441623  55.8362945  64.4551185  15.1340845  53.1723266  60.3308475
  15.7304418  52.9479289  59.6165438  15.1915817  52.4308012  60.9333923
  14.7065874  50.6262702  48.1658666  14.9591394  50.1044223  47.4042129
  13.7690433  50.4628847  48.2685350  19.7509157  49.6298480  55.9733410
  20.5372246  49.2117903  55.6223827  20.0147861  50.5344572  56.1415058
  19.9219234  55.0671330  50.6722066  19.2865067  55.1405957  51.3842971
  19.5916640  55.6564929  49.9941146  25.1517584  49.5673713  56.8766388
  25.8842756  48.9972930  57.1104218  24.3956939  49.1795314  57.3172894
  14.4262162  52.5290807  50.3683041  14.3098421  51.8535711  51.0364126
  14.5364422  52.0423181  49.5515194  16.7693703  51.9900955  54.0729730
  16.4051911  51.4631576  54.7842652  17.6260819  51.5999424  53.8996216
  22.6743004  43.2795287  61.3360997  22.3426329  44.1490698  61.1122212
  22.0788617  42.9631571  62.0155027  16.4099190  47.0190854  49.0691079
  16.5773593  47.8871091  49.4361550  16.2196359  47.1818136  48.1452368
  19.1674524  55.4807833  60.7356909  18.8675247  56.3832872  60.6272717
  18.8225583  55.2140016  61.5878062  12.6187005  51.9321630  56.7693614
  11.6937502  51.7997844  56.9771306  12.8671418  52.7115849  57.2663556
  22.5671667  47.9990373  58.4154347  21.6588545  47.9305782  58.1213108
  22.5159263  48.4762318  59.2436172  16.3888411  49.4748512  50.0537746
  16.2688036  49.9205563  50.8923226  15.6941000  49.8233829  49.4951284
   9.9795816  51.5754904  57.6037403  10.1088197  51.8289383  58.5176815
   9.2993267  52.1682612  57.2842058  14.1495303  62.2452154  53.7027877
  14.0719333  63.1959979  53.7816358  13.5456947  61.8998026  54.3602803
  16.6412533  49.4180019  66.3589244  15.8645867  49.9773939  66.3492109
  17.2803096  49.9036802  66.8804114  24.4333314  46.2006812  60.1932221
  23.7907694  46.4939345  59.5472015  23.9288242  46.0859732  60.9985417
  22.0873477  49.9469985  50.8818080  22.9991334  50.1797372  50.7065777
  21.5783124  50.5307029  50.3193158  14.8958905  52.2265472  65.9207211
  15.6373590  52.7650516  65.6442035  14.1895891  52.8531761  66.0778763
  20.3714245  54.3694613  64.5179372  20.7797601  53.9277023  63.7734005
  19.6491507  53.7947240  64.7713565  16.7245315  49.3067220  61.8912929
  17.5706510  49.7306633  62.0347578  16.6643953  48.6500844  62.5851492
  20.6943060  54.9295803  58.2731661  20.0651922  55.0941518  57.5707729
  20.3068722  55.3437413  59.0442625  24.5732292  55.8650241  55.6276025
  23.8883330  56.2449143  55.0773058  24.6576141  56.4745568  56.3607973
  19.8744760  46.9671588  63.5494103  19.6305692  47.7213648  63.0128379
  20.1504691  47.3456936  64.3841350  21.8283223  53.5110200  62.2271369
  22.0400118  54.1541960  61.5505750  21.7812971  52.6772517  61.7593299
  19.4309452  46.1228021  59.1307941  18.5693931  46.4209275  59.4224678
  19.4571887  46.3398420  58.1988973  16.2471022  54.6670212  55.5381746
  16.7109367  54.9457915  54.7486369  15.9827820  53.7653656  55.3554837
  13.1395103  54.2141693  58.4761510  13.7096460  54.6428961  57.8378994
  13.7303214  53.9324278  59.1745695  15.1839908  50.7893364  52.3471312
  15.8863951  51.2414408  52.8145238  14.8520536  50.1477183  52.9751205
  13.6320269  49.3805121  66.7222521  13.0018930  50.0621401  66.9557918
  13.5256357  49.2688202  65.7775659   8.9265242  49.0476917  57.6488445
   8.1364296  49.3034445  57.1728556   9.4176489  49.8625254  57.7540486
  22.9429051  56.3882156  60.3993726  23.7646495  55.9862343  60.1176408
  22.9391454  56.2850390  61.3509842  10.8779987  49.4121496  54.6071922
  10.0811150  49.5240190  55.1255417  10.6505579  49.7508148  53.7412812
  16.7085655  55.9366199  62.5554436  16.7730087  56.3986606  63.3912608
  15.9996578  55.3063564  62.6836746   7.2102945  49.3007407  60.0803436
   7.4610983  50.1854417  60.3461012   7.7462493  49.1212009  59.3078528
  31.0335044  52.7320904  56.7478697  30.2798753  52.1628302  56.5922702
  31.1682585  52.6983569  57.6949332  16.4233672  57.6034307  52.4233417
  16.2879347  58.4485842  52.8518265  16.9643485  57.8053584  51.6599351
  12.9101012  43.6825886  69.0847772  12.5167957  43.1292085  69.7595416
  13.7267152  43.9936465  69.4754290   9.8763070  55.1209745  52.9961342
  10.3887590  55.9152995  53.1466907  10.5285782  54.4236035  52.9294943
  11.6857954  58.2375501  55.0784095  11.8624583  59.1593466  54.8905079
  12.4814788  57.9233920  55.5078475  15.8268973  45.0983765  66.6768029
  16.5678686  45.6990919  66.5972491  16.0586896  44.3561403  66.1186071
  10.9710311  50.2840133  64.9546258  10.8563826  49.3825390  65.2553357
  10.1154829  50.5303829  64.6031075  18.0502149  58.2257873  66.5533759
  17.6066003  57.4394252  66.2354663  18.7119362  58.4137024  65.8877650
  12.8089270  59.7553675  61.0794437  13.3596695  59.6270738  60.3071431
  11.9700746  60.0548564  60.7289330  20.1483387  58.5060673  64.5815160
  20.1301862  59.3269554  64.0895429  21.0703307  58.3814748  64.8065301
  16.6056441  56.0204802  65.4238668  17.1384778  55.2593091  65.1937976
  16.0770522  55.7278454  66.1662823  19.7726136  41.1264868  60.9532310
  19.4290405  42.0166510  60.8771421  20.1405098  40.9366526  60.0901895
   7.8411986  53.4498399  53.7720912   8.6787208  53.8595407  53.5554620
   8.0190254  52.5097841  53.7421106  19.7376419  51.1173479  49.4604745
  19.2223042  51.8878084  49.6993133  19.4653727  50.4438616  50.0837807
  17.3223530  45.9623180  54.5189984  16.4665126  45.5730031  54.3395622
  17.7350481  46.0415141  53.6589769  18.8522676  43.4969524  58.9181543
  18.3487472  43.4599659  58.1049349  19.1453283  44.4062266  58.9778200
  15.0965562  43.5808253  57.9247725  15.9618559  43.3851062  57.5653615
  15.1643071  43.3518605  58.8517082  24.7110693  53.8705834  51.3957919
  23.9340135  53.5316994  50.9513081  25.3902174  53.8758457  50.7212884
  19.5262722  48.9900572  51.2864527  19.2212857  49.3046721  52.1374670
  20.4793164  49.0681991  51.3291860  17.9709154  55.1490795  52.9357481
  17.4430515  54.4143554  52.6230718  17.4696656  55.9265471  52.6897449
  22.9502000  53.3439815  58.0524527  22.2925674  54.0339077  58.1404655
  23.7542399  53.7336247  58.3958513  12.7027881  45.8110461  55.2964092
  13.2771633  45.5885643  54.5637285  13.2898864  45.8799156  56.0492693
  21.7607458  51.6984188  56.1028469  22.2739340  52.3314180  56.6050178
  22.4108682  51.0985384  55.7371829  13.0297468  47.8414922  49.3159977
  12.1934781  48.1789609  49.6369252  12.8902238  47.7063902  48.3787114
  15.0050549  42.6851710  54.0239161  14.3514961  42.3700727  53.3995776
  14.9631023  42.0627451  54.7498984  16.1161754  52.9671005  45.9392454
  15.2088815  52.7360259  46.1383603  16.6132786  52.1708624  46.1266435
  19.0229833  61.6768512  48.8589140  18.3491531  61.9800209  49.4674098
  19.4095655  62.4797593  48.5094597  18.2388289  49.1733644  58.3486809
  17.3210851  49.3948591  58.1908497  18.6548433  49.2479954  57.4898516
  19.0223337  50.5725059  53.4789489  19.7695156  51.0846457  53.1696611
  19.2914927  50.2509112  54.3393883  17.2949987  53.0683600  50.4616444
  16.3861206  52.7842633  50.5588913  17.3245071  53.4882679  49.6019750
  22.5269255  56.6790190  54.2307611  22.0731582  55.8381099  54.2872802
  21.8963221  57.3151588  54.5682391  21.4702174  47.6082176  55.4608279
  20.7324931  47.0959562  55.7918521  21.7228948  47.1682557  54.6491556
  20.9702194  58.5166686  55.1657429  21.2625168  59.0771743  54.4469795
  21.4800814  58.8095247  55.9210588  21.5713801  40.3858428  56.0550048
  21.8772678  39.5255791  55.7675963  22.2966406  40.9776048  55.8549042
   7.8638158  50.7889114  54.4431646   7.6662557  50.1958475  53.7182712
   7.3084822  50.4841324  55.1607585  15.8434881  50.6812221  56.5626239
  15.8983491  49.7286057  56.4868716  15.0326083  50.8371660  57.0467537
  16.9926075  54.6092344  47.8004522  16.5545505  53.8928203  47.3410160
  17.7336516  54.8368459  47.2389614  13.7827241  49.2989280  54.3216618
  12.9695107  49.5983451  54.7281810  14.2786235  48.9044969  55.0391100
  15.9335819  59.2947037  56.2550883  15.8911998  59.5207884  55.3259415
  16.8498518  59.0610412  56.4036684  19.3801453  49.7631105  63.1531512
  19.7350841  49.9902578  64.0125977  20.0273584  50.0949482  62.5308767
  25.1099190  52.8849541  53.8580841  24.9717088  53.0751137  52.9302030
  24.7535409  53.6468924  54.3148892  13.2741316  46.8707636  59.9377853
  13.9140695  46.7296395  59.2400816  12.4418846  46.5842149  59.5616455
  25.1368569  54.9526068  58.8692112  25.5705076  54.8601357  59.7175166
  25.8500150  54.9283568  58.2312128  14.0501620  56.1710066  56.0512845
  14.8442218  55.6760386  55.8495420  13.3393312  55.6427929  55.6880551
  18.8696464  58.5528162  60.4025213  18.9233487  59.1219098  61.1702929
  18.0011246  58.7230047  60.0379250  10.3584383  50.3153148  52.1272598
   9.4281971  50.2537604  52.3442560  10.4541855  49.7929101  51.3309239
  10.2769932  46.8407961  54.7150840  10.5376750  47.7553294  54.6060000
  11.0987105  46.3732403  54.8647452  11.7494858  48.2545718  61.8849664
  12.4217911  48.0463080  61.2362313  10.9224644  48.0567804  61.4454896
  25.9984119  54.9949768  61.4024998  26.1920009  55.8995579  61.6484273
  25.8984737  54.5357187  62.2363583  17.6520430  44.8807659  63.9015325
  17.0048345  45.5797609  63.8079801  18.4221445  45.3143803  64.2691573
  21.0599228  55.1456511  66.9765878  20.9084734  54.9167063  66.0595962
  21.0503907  56.1027113  66.9897223  17.8284564  52.7188424  61.9612145
  18.7576624  52.8699584  61.7881112  17.4075594  52.8072445  61.1060791
  16.6272896  56.7439088  59.7310682  16.4883982  56.3757873  60.6036620
  15.8387492  57.2586728  59.5594640  17.2221048  61.8448185  51.0736219
  17.3972803  61.3736228  51.8881842  16.5353836  62.4713951  51.3017480
  18.1778111  56.1220691  57.1199520  17.8427944  56.0821461  58.0157170
  17.6782057  55.4565407  56.6469930  12.1522355  51.5288321  62.6452101
  12.0142153  50.7968560  63.2463640  13.0627278  51.4397221  62.3636289
  21.1137303  53.4676725  47.3936580  20.4966473  52.7423554  47.2969632
  20.6453791  54.2286086  47.0503654  14.7804656  51.2408280  62.1335781
  15.4904274  50.6001473  62.0922399  14.7373964  51.4921175  63.0561962
  22.7691434  58.1775634  65.0542360  22.7103980  57.4934854  64.3872943
  23.1710953  58.9194624  64.6022986  13.4933590  48.2273498  63.9531420
  12.9570947  47.7764237  64.6053017  12.9050298  48.3619407  63.2101885
  11.7882133  64.9937548  57.8476079  12.0278731  65.6256072  58.5255098
  10.9451330  64.6425588  58.1341438  12.9035849  47.6862150  46.5157884
  12.0265315  47.5650950  46.1520131  13.3793602  46.8948228  46.2636773
  22.7708842  56.1415218  63.2856340  21.8835620  55.8041139  63.4082739
  23.3407393  55.4098249  63.5225105   4.4237989  52.4739309  56.6099391
   5.1109028  52.1601039  56.0220407   4.2686117  53.3780674  56.3366643
   9.2272711  47.3629506  61.0384415   9.1430900  46.7555176  60.3034825
   8.4055417  47.8538524  61.0393911  16.3009995  60.8016670  60.2517583
  16.2280166  61.6071641  60.7636888  15.8587388  61.0008636  59.4265604
  16.0899775  60.0388440  53.7620405  15.3067296  60.5810120  53.8558629
  16.7892520  60.5562420  54.1614646  19.3996425  45.8483069  56.4054610
  19.8965124  45.0953032  56.0855680  18.6283406  45.8847386  55.8397819
  27.2526182  51.5523435  58.0472901  27.2416058  52.4348150  57.6766835
  26.3843561  51.1994986  57.8527439  18.7608678  60.7003504  62.4075742
  19.4736651  61.3350969  62.3351643  18.2698707  60.7967370  61.5915744
  20.4826205  54.6054757  53.9793033  19.5482484  54.7256219  53.8097738
  20.6602874  53.7027223  53.7153043  15.9831393  47.9900452  56.1326295
  15.6129181  47.4371493  56.8207200  16.4790486  47.3858586  55.5801295
  23.8698757  50.4472076  54.5143068  24.3359209  51.2800068  54.4403370
  24.3206257  49.9817058  55.2188326  13.8120592  58.4497947  63.2281313
  14.5130051  59.0834430  63.3810707  13.3415707  58.7912679  62.4676952
  21.9374988  56.7915897  51.5129220  22.2134832  56.6772492  52.4223094
  21.0679487  56.3933382  51.4741393  21.8415419  42.8152663  58.5533969
  20.9278499  43.0456890  58.7216176  22.2708521  42.8991107  59.4048001
  21.6121878  51.0042555  61.0533863  20.9593328  51.2518462  60.3986316
  21.9902258  50.1906693  60.7196340  18.5729052  61.0402248  55.1562033
  18.7551446  60.2223904  55.6189785  19.3962038  61.2569940  54.7186923
  18.9071217  59.9670433  52.4177082  19.4358984  59.4562888  51.8047244
  19.1699437  59.6512963  53.2822615  17.6609451  51.7462366  67.5399900
  16.9850088  51.6456495  68.2102275  18.4837085  51.5901580  68.0035897
   9.4088310  57.9834303  60.1612415   9.9941747  57.2377990  60.2940319
   9.2113148  58.2938259  61.0449079  12.2626965  61.0185550  55.1774858
  11.5937341  61.5031678  54.6938898  12.1239835  61.2654770  56.0918236
   4.0005965  50.5539903  58.8816858   4.0390064  50.0203493  59.6753976
   3.4946258  50.0275108  58.2627836  16.4032234  63.0529293  61.7757516
  16.9550542  63.2160915  62.5406601  16.7438427  63.6433731  61.1037541
  11.3796727  45.4004443  62.3779401  11.4438054  46.2619274  61.9656798
  11.3163847  44.7878445  61.6451759  10.8549000  47.4727576  66.0252435
  11.4821038  47.0904653  66.6389959   9.9976918  47.2541778  66.3908127
  21.2543108  57.8790551  67.6306170  21.7983012  58.4920509  67.1361125
  20.6729953  58.4370129  68.1473183   7.6314542  49.2804005  51.9570790
   7.9267983  48.3714683  51.9037843   6.7302578  49.2591744  51.6351792
  19.5400621  61.0011269  58.7621198  19.4151761  60.2001009  58.2532144
  20.1979712  61.4957462  58.2735168  11.1608789  47.3560001  57.9398338
  10.4395375  47.9695969  57.8005812  11.9502045  47.8917766  57.8614984
  21.6035530  58.8020289  60.3900748  20.6565865  58.6825640  60.3179075
  21.9518303  57.9142787  60.4727010  13.9635103  44.6914428  64.2138990
  14.4869505  44.9376725  64.9765299  13.7447436  45.5234463  63.7942127
   9.3602384  46.9618103  52.0810115   9.0315090  46.0815481  51.8985221
   9.7141755  46.9065771  52.9686504  18.6081963  58.5973005  56.5905100
  18.4606925  57.6689713  56.7712670  19.4335456  58.6193096  56.1062176
  12.4744207  47.2491072  52.4485593  12.8140280  47.7776994  51.7264201
  12.9216328  47.5871478  53.2244159  22.2116085  59.4201564  57.6769973
  23.1362632  59.2144425  57.5394424  22.0431388  59.1717965  58.5859315
  15.1687648  45.6328123  61.8988661  14.8284468  44.8335936  62.3009341
  14.4626654  45.9329834  61.3265494  15.8204120  42.7177435  60.3515984
  16.6430189  42.2437914  60.2294874  16.0642183  43.4967919  60.8514670
  14.4612354  45.7465694  50.6478885  15.1820717  46.1246947  50.1442602
  13.8377658  46.4654571  50.7513863  18.6043477  46.4510843  51.5837218
  18.8207092  47.3335481  51.2826046  18.1237544  46.0597056  50.8542860
  13.3442699  49.4096556  58.1607962  13.1987279  49.7236859  59.0532244
  12.8667902  50.0281456  57.6078861  15.2039081  46.3999104  58.2088852
  15.1900650  45.5040197  57.8721150  15.9211510  46.4069768  58.8427138
  17.0565212  46.8336444  60.2541979  16.7982990  47.7553515  60.2526310
  16.5250252  46.4366879  60.9442443  22.0011401  59.9387231  53.0332065
  22.1748278  59.3733654  52.2805917  22.4940292  60.7388126  52.8511555
   7.8188361  51.9501901  61.0995623   7.2741829  52.7261708  61.2315898
   8.6967711  52.2972705  60.9414745  14.6075977  45.2813484  53.4776422
  14.7291889  44.3530131  53.6767309  14.3178020  45.2952170  52.5654737
  17.4767168  42.9668395  56.6143142  17.4988865  43.0307728  55.6595121
  17.8935227  42.1272903  56.8083648  27.8550792  52.7023654  54.6522364
  28.2981938  51.9530980  54.2541488  26.9777302  52.6933791  54.2696096
  22.9886573  59.2553996  50.1328963  23.6837478  59.8760689  50.3516278
  23.3309723  58.4049347  50.4081341   8.6054383  51.0771797  63.9925780
   7.8636119  51.2254432  64.5790411   8.2847127  51.3380062  63.1292530
  24.8877996  56.7053701  51.6616294  25.4129321  57.0440974  50.9365614
  24.8000349  55.7700717  51.4779428  16.5498045  60.6187775  63.7906170
  16.8585172  60.3736922  64.6628870  17.3473527  60.8234413  63.3025041
  16.5718657  62.7725685  56.0211547  16.1323648  62.2802063  56.7144404
  17.3226774  62.2298652  55.7803622   9.0510996  58.9637226  56.0236175
   9.8769016  58.6640997  55.6434818   8.7005048  58.1944848  56.4725964
  14.0192529  58.3163694  58.0933849  13.3972539  57.6534399  57.7936076
  14.6897396  58.3424826  57.4107496   7.2519601  56.8823552  56.9825109
   6.4151510  56.4545726  56.8009110   7.2243247  57.0755995  57.9195900
  14.0917057  46.7945482  67.6866355  14.1405212  47.6707605  67.3044124
  14.6339571  46.2522875  67.1137998  24.5771903  57.3386605  66.9667492
  23.7867446  57.3210744  66.4271991  24.3405257  57.8774899  67.7216528
  24.6969778  54.1879071  64.2800220  24.7467783  54.0229079  65.2215743
  24.5883701  53.3206330  63.8898101  13.5806036  56.8667617  51.5692309
  13.7294157  57.5503081  50.9158982  14.3872480  56.8472707  52.0841765
  21.9873540  50.1709999  65.5959527  22.8883403  50.0316464  65.3043525
  22.0621514  50.3364454  66.5357704  16.3216345  47.5476854  64.4412713
  15.4519655  47.8410420  64.1695302  16.5575826  48.1317299  65.1619977
  26.1987974  56.6076013  64.5242242  25.9072783  56.9705993  65.3605703
  25.5860106  55.8943021  64.3455574  27.3983657  54.1728893  57.0444812
  28.2330548  54.6118697  57.2082372  27.5342786  53.6967546  56.2253058
  24.4475163  51.7308628  62.9922300  24.9229284  51.9236274  62.1841151
  23.5240728  51.7867813  62.7465683  11.3358669  52.8932795  52.5753378
  11.0904711  51.9895125  52.7733588  11.5054584  52.8949945  51.6332856
  19.0255379  43.7656471  61.9578134  19.5437323  44.5017498  61.6324622
  18.6710512  44.0720464  62.7924893  10.6054317  48.6261152  50.0739539
   9.9123562  48.7005507  49.4179575  10.3606069  47.8621496  50.5961056
  19.2767973  40.1856754  57.4779030  19.5569727  39.5179943  58.1039457
  20.0618580  40.3785849  56.9653694  17.0801442  59.3615748  49.0404057
  16.5075409  59.9805935  48.5874528  17.6534235  59.9115109  49.5743978
  23.1476832  48.6074388  61.2250605  24.0994255  48.7072485  61.2462829
  22.9780282  47.8152656  61.7348690  21.1691211  45.6929971  61.4110006
  20.5741143  45.9734984  60.7156495  20.8840908  46.1823872  62.1826747
  20.2998702  59.6452898  50.1712639  21.2329375  59.5798459  50.3745514
  20.2121914  60.4809165  49.7127171  22.9286718  58.9618768  47.1316586
  22.8500350  58.6278632  48.0252344  23.7496385  59.4540536  47.1308059
  25.6264909  51.8280507  60.3392905  25.5941230  50.8896508  60.5252589
  26.2365533  51.9064544  59.6058730  17.4648240  50.6976560  46.3820109
  18.4107345  50.5682768  46.4508527  17.0862485  49.9591222  46.8589537
  25.7759398  48.6191551  60.3851188  25.2598447  47.8350007  60.1981117
  26.6599346  48.2910267  60.5497708  23.4370125  42.3632566  56.3447001
  23.2394946  42.0547655  57.2290333  24.0469830  43.0894205  56.4744931
  29.5256756  51.0304377  60.0773393  28.7989920  50.8960342  59.4689885
  29.1104043  51.3381205  60.8830111  17.3486933  54.7494306  67.8420766
  18.2689942  54.9272905  68.0360812  17.3136516  53.8050352  67.6900465
  15.6491157  48.6226537  46.3174994  14.7422613  48.3259649  46.3937708
  15.9267138  48.3256355  45.4509280   6.5669098  49.9432900  56.7674041
   6.2471882  49.0898208  56.4748415   6.0202526  50.1581478  57.5232008
  10.3449005  52.6595341  60.4843547  10.5635015  53.5912449  60.5031581
  10.7574779  52.3003315  61.2698351  17.2653223  43.1663426  52.4719236
  16.4553952  42.8210511  52.8474482  17.9537640  42.8570970  53.0606847
  19.1943771  42.2441473  54.0943532  19.7474810  42.6636927  54.7533555
  19.4313858  41.3177221  54.1366488  15.2176871  48.2328547  69.8746296
  15.1173598  49.1822904  69.8058387  14.9998413  47.9046786  69.0022366
  14.4189942  45.4813472  46.4586973  15.2809106  45.8068370  46.7182791
  14.6040286  44.6944968  45.9460039   6.4357358  53.5635812  58.7367162
   5.7420829  53.1489764  58.2237117   7.1830349  53.6056348  58.1400581
  22.5722579  44.3541998  53.6022196  21.9921248  45.0126802  53.2200249
  22.3058511  43.5319343  53.1909614  21.0226145  43.7547056  55.8043517
  21.5225923  43.8663591  54.9957836  21.6661753  43.4508109  56.4444325
  15.0808141  51.6625686  68.6911358  14.5975222  52.4626046  68.8975247
  15.1669080  51.6733631  67.7378802   8.3494100  53.4954065  56.6133177
   8.3264788  53.5941753  55.6615060   8.6594737  54.3419216  56.9350343
  11.0081478  55.5530220  60.7279792  11.9624732  55.5214163  60.6609723
  10.8094002  55.0920844  61.5430017  11.5980860  54.1231336  63.2950589
  12.4173749  54.6175415  63.3185426  11.8717668  53.2063305  63.2668157
  21.3547457  46.5142089  52.6578545  20.4673312  46.7991739  52.4398739
  21.7701446  46.3535852  51.8105822  24.7061993  46.5388610  56.3732884
  25.4822383  47.0285062  56.6457501  23.9810127  46.9646664  56.8304753
  27.1434551  47.2516229  57.4306825  27.7379042  47.0111965  56.7200133
  27.2161135  46.5323360  58.0580361   9.3631707  61.0949840  57.7449989
   9.2286175  60.3350241  57.1787987   8.9463769  61.8190740  57.2778778
  20.4990670  56.2786763  46.7526565  21.2026520  56.4836766  47.3684220
  19.7753319  56.8463525  47.0175648  21.3288480  52.0296625  52.8728835
  21.2723682  52.4865176  52.0336467  21.8816823  51.2687309  52.6951678
  25.1393286  47.8186357  53.6978954  24.8830220  47.4182992  54.5287162
  24.5146154  48.5330150  53.5729093  29.4505624  50.5582430  56.2050246
  28.8905182  50.6275619  56.9781808  28.8449127  50.3823414  55.4849742
  12.5200833  61.9919157  57.9568432  12.4033217  62.9364589  57.8547122
  11.6993279  61.6892718  58.3454231  22.4077367  56.7169293  48.8025025
  23.2422971  56.2850491  48.6202500  22.2461710  56.5451306  49.7301919
  22.0623260  53.2201406  50.1681364  22.0072063  53.0545677  49.2269808
  21.4369315  53.9277439  50.3243554   6.8515775  48.4569470  63.9942786
   7.4974638  47.9468424  64.4830011   6.6432926  49.1938152  64.5686211
  19.3769167  55.5250318  69.4934927  20.2460326  55.6990970  69.1321562
  18.8975918  56.3444735  69.3710656  15.3719385  42.7209515  49.7466682
  15.3598055  43.6651355  49.9034953  16.2642807  42.5379660  49.4526144
  13.5455347  62.6447419  61.1724360  14.4482594  62.6771029  61.4890855
  13.3192717  61.7147870  61.1870696  15.3008949  61.3978405  57.8334439
  14.3504580  61.3980267  57.7198811  15.6041435  60.6511140  57.3170474
  19.1871505  39.3152292  54.0012619  18.4203900  38.7610778  54.1469302
  19.5982210  39.3874160  54.8626771  11.1913266  45.6037087  68.0917800
  12.0544727  45.2473892  68.3021125  10.6178676  45.2650982  68.7793205
  31.0361643  67.2338944  58.8980201  31.6740052  67.1145691  58.1943542
  30.9182485  68.1819788  58.9568154  27.8451349  67.1866372  58.8341726
  27.5069860  67.0707437  57.9462261  28.7141117  66.7857537  58.8142732
  23.7038165  69.0401848  54.8238617  23.1403030  68.9491785  54.0554905
  23.5890560  68.2201753  55.3041110  28.3271132  68.3401224  64.7927932
  28.3159773  67.9454022  63.9208435  28.4891771  67.6067296  65.3861703
  21.2502596  70.5353040  57.6622838  22.0423888  70.1943864  57.2469137
  21.4899247  70.6448015  58.5824991  29.2837723  72.7072816  50.1353082
  28.6325703  73.2926896  49.7487096  30.0782086  73.2379011  50.1948119
  23.2093350  69.7961953  50.5340216  23.9824226  69.2490940  50.3953092
  23.5618749  70.6606202  50.7454678  25.0478393  71.1238335  63.7407116
  24.7568259  72.0283966  63.6253782  25.6835377  71.1654863  64.4551185
  25.9734600  68.5015184  60.3308475  26.5698172  68.2771206  59.6165438
  26.0309571  67.7599929  60.9333923  25.5459628  65.9554619  48.1658666
  25.7985149  65.4336140  47.4042129  24.6084187  65.7920765  48.2685350
  30.7612988  70.3963248  50.6722066  30.1258821  70.4697874  51.3842971
  30.4310395  70.9856847  49.9941146  25.2655917  67.8582725  50.3683041
  25.1492175  67.1827629  51.0364126  25.3758177  67.3715099  49.5515194
  27.6087458  67.3192872  54.0729730  27.2445665  66.7923493  54.7842652
  28.4654574  66.9291341  53.8996216  27.2492945  62.3482772  49.0691079
  27.4167347  63.2163008  49.4361550  27.0590114  62.5110054  48.1452368
  30.0068278  70.8099751  60.7356909  29.7069001  71.7124790  60.6272717
  29.6619338  70.5431934  61.5878062  23.4580760  67.2613548  56.7693614
  22.5331256  67.1289762  56.9771306  23.7065173  68.0407767  57.2663556
  27.2282166  64.8040429  50.0537746  27.1081791  65.2497480  50.8923226
  26.5334754  65.1525747  49.4951284  20.8189571  66.9046821  57.6037403
  20.9481952  67.1581300  58.5176815  20.1387022  67.4974529  57.2842058
  24.9889058  77.5744071  53.7027877  24.9113088  78.5251896  53.7816358
  24.3850701  77.2289944  54.3602803  27.4806288  64.7471937  66.3589244
  26.7039622  65.3065857  66.3492109  28.1196851  65.2328720  66.8804114
  32.9267232  65.2761903  50.8818080  33.8385088  65.5089289  50.7065777
  32.4176879  65.8598947  50.3193158  25.7352660  67.5557390  65.9207211
  26.4767344  68.0942434  65.6442035  25.0289645  68.1823679  66.0778763
  31.2108000  69.6986530  64.5179372  31.6191356  69.2568941  63.7734005
  30.4885261  69.1239158  64.7713565  27.5639070  64.6359137  61.8912929
  28.4100265  65.0598551  62.0347578  27.5037707  63.9792762  62.5851492
  31.5336814  70.2587721  58.2731661  30.9045677  70.4233435  57.5707729
  31.1462476  70.6729331  59.0442625  35.4126046  71.1942159  55.6276025
  34.7277084  71.5741060  55.0773058  35.4969895  71.8037486  56.3607973
  32.6676978  68.8402118  62.2271369  32.8793873  69.4833878  61.5505750
  32.6206726  68.0064435  61.7593299  27.0864776  69.9962129  55.5381746
  27.5503122  70.2749832  54.7486369  26.8221574  69.0945574  55.3554837
  23.9788857  69.5433611  58.4761510  24.5490214  69.9720879  57.8378994
  24.5696969  69.2616195  59.1745695  26.0233662  66.1185282  52.3471312
  26.7257705  66.5706325  52.8145238  25.6914291  65.4769100  52.9751205
  24.4714024  64.7097038  66.7222521  23.8412684  65.3913319  66.9557918
  24.3650112  64.5980120  65.7775659  19.7658996  64.3768834  57.6488445
  18.9758050  64.6326363  57.1728556  20.2570243  65.1917172  57.7540486
  33.7822806  71.7174073  60.3993726  34.6040249  71.3154261  60.1176408
  33.7785209  71.6142308  61.3509842  21.7173741  64.7413413  54.6071922
  20.9204905  64.8532108  55.1255417  21.4899334  65.0800066  53.7412812
  27.5479409  71.2658117  62.5554436  27.6123842  71.7278524  63.3912608
  26.8390333  70.6355482  62.6836746  18.0496699  64.6299325  60.0803436
  18.3004737  65.5146335  60.3461012  18.5856247  64.4503926  59.3078528
  41.8728799  68.0612822  56.7478697  41.1192507  67.4920220  56.5922702
  42.0076340  68.0275486  57.6949332  27.2627427  72.9326224  52.4233417
  27.1273102  73.7777760  52.8518265  27.8037239  73.1345502  51.6599351
  23.7494766  59.0117804  69.0847772  23.3561712  58.4584003  69.7595416
  24.5660907  59.3228383  69.4754290  20.7156824  70.4501662  52.9961342
  21.2281345  71.2444912  53.1466907  21.3679537  69.7527953  52.9294943
  22.5251709  73.5667419  55.0784095  22.7018337  74.4885383  54.8905079
  23.3208542  73.2525838  55.5078475  26.6662727  60.4275683  66.6768029
  27.4072441  61.0282836  66.5972491  26.8980650  59.6853321  66.1186071
  21.8104065  65.6132050  64.9546258  21.6957581  64.7117308  65.2553357
  20.9548583  65.8595747  64.6031075  28.8895903  73.5549791  66.5533759
  28.4459757  72.7686169  66.2354663  29.5513117  73.7428941  65.8877650
  23.6483024  75.0845592  61.0794437  24.1990449  74.9562656  60.3071431
  22.8094500  75.3840481  60.7289330  30.9877141  73.8352591  64.5815160
  30.9695617  74.6561472  64.0895429  31.9097061  73.7106666  64.8065301
  27.4450195  71.3496720  65.4238668  27.9778532  70.5885008  65.1937976
  26.9164276  71.0570372  66.1662823  18.6805741  68.7790317  53.7720912
  19.5180963  69.1887325  53.5554620  18.8584009  67.8389759  53.7421106
  30.5770173  66.4465397  49.4604745  30.0616796  67.2170002  49.6993133
  30.3047481  65.7730533  50.0837807  25.9359317  58.9100171  57.9247725
  26.8012313  58.7142980  57.5653615  26.0036825  58.6810523  58.8517082
  35.5504447  69.1997752  51.3957919  34.7733890  68.8608911  50.9513081
  36.2295928  69.2050375  50.7212884  30.3656476  64.3192489  51.2864527
  30.0606612  64.6338638  52.1374670  31.3186918  64.3973909  51.3291860
  28.8102908  70.4782713  52.9357481  28.2824270  69.7435472  52.6230718
  28.3090411  71.2557389  52.6897449  33.7895754  68.6731733  58.0524527
  33.1319429  69.3630994  58.1404655  34.5936153  69.0628165  58.3958513
  23.5421636  61.1402379  55.2964092  24.1165388  60.9177560  54.5637285
  24.1292618  61.2091073  56.0492693  23.8691223  63.1706840  49.3159977
  23.0328535  63.5081526  49.6369252  23.7295992  63.0355820  48.3787114
  25.8444303  58.0143628  54.0239161  25.1908716  57.6992645  53.3995776
  25.8024778  57.3919368  54.7498984  26.9555508  68.2962923  45.9392454
  26.0482570  68.0652176  46.1383603  27.4526540  67.5000542  46.1266435
  29.8623587  77.0060430  48.8589140  29.1885286  77.3092127  49.4674098
  30.2489409  77.8089510  48.5094597  28.1343742  68.3975518  50.4616444
  27.2254961  68.1134551  50.5588913  28.1638825  68.8174596  49.6019750
  33.3663009  72.0082107  54.2307611  32.9125336  71.1673017  54.2872802
  32.7356976  72.6443506  54.5682391  31.8095948  73.8458604  55.1657429
  32.1018923  74.4063661  54.4469795  32.3194569  74.1387165  55.9210588
  18.7031912  66.1181032  54.4431646  18.5056312  65.5250393  53.7182712
  18.1478576  65.8133242  55.1607585  26.6828636  66.0104138  56.5626239
  26.7377245  65.0577975  56.4868716  25.8719838  66.1663577  57.0467537
  27.8319829  69.9384261  47.8004522  27.3939259  69.2220120  47.3410160
  28.5730270  70.1660376  47.2389614  24.6220996  64.6281198  54.3216618
  23.8088861  64.9275369  54.7281810  25.1179990  64.2336887  55.0391100
  26.7729574  74.6238955  56.2550883  26.7305752  74.8499801  55.3259415
  27.6892272  74.3902330  56.4036684  30.2195207  65.0923023  63.1531512
  30.5744595  65.3194496  64.0125977  30.8667339  65.4241399  62.5308767
  35.9492944  68.2141458  53.8580841  35.8110843  68.4043054  52.9302030
  35.5929163  68.9760841  54.3148892  24.1135070  62.1999554  59.9377853
  24.7534450  62.0588313  59.2400816  23.2812601  61.9134067  59.5616455
  35.9762324  70.2817985  58.8692112  36.4098831  70.1893275  59.7175166
  36.6893905  70.2575486  58.2312128  24.8895374  71.5001984  56.0512845
  25.6835973  71.0052304  55.8495420  24.1787067  70.9719847  55.6880551
  29.7090219  73.8820080  60.4025213  29.7627241  74.4511016  61.1702929
  28.8405000  74.0521965  60.0379250  21.1978138  65.6445066  52.1272598
  20.2675726  65.5829521  52.3442560  21.2935610  65.1221019  51.3309239
  21.1163687  62.1699879  54.7150840  21.3770504  63.0845212  54.6060000
  21.9380859  61.7024321  54.8647452  22.5888612  63.5837636  61.8849664
  23.2611666  63.3754998  61.2362313  21.7618399  63.3859722  61.4454896
  36.8377873  70.3241686  61.4024998  37.0313764  71.2287497  61.6484273
  36.7378492  69.8649105  62.2363583  28.4914184  60.2099577  63.9015325
  27.8442099  60.9089526  63.8079801  29.2615200  60.6435721  64.2691573
  31.8992982  70.4748429  66.9765878  31.7478489  70.2458981  66.0595962
  31.8897662  71.4319030  66.9897223  28.6678319  68.0480342  61.9612145
  29.5970379  68.1991501  61.7881112  28.2469349  68.1364362  61.1060791
  27.4666650  72.0731006  59.7310682  27.3277736  71.7049790  60.6036620
  26.6781247  72.5878645  59.5594640  28.0614802  77.1740102  51.0736219
  28.2366558  76.7028146  51.8881842  27.3747590  77.8005869  51.3017480
  29.0171865  71.4512609  57.1199520  28.6821698  71.4113379  58.0157170
  28.5175811  70.7857325  56.6469930  22.9916109  66.8580239  62.6452101
  22.8535907  66.1260478  63.2463640  23.9021033  66.7689139  62.3636289
  25.6198410  66.5700198  62.1335781  26.3298029  65.9293390  62.0922399
  25.5767718  66.8213093  63.0561962  33.6085189  73.5067551  65.0542360
  33.5497735  72.8226772  64.3872943  34.0104707  74.2486541  64.6022986
  24.3327344  63.5565416  63.9531420  23.7964701  63.1056154  64.6053017
  23.7444053  63.6911325  63.2101885  22.6275888  80.3229465  57.8476079
  22.8672486  80.9547989  58.5255098  21.7845084  79.9717505  58.1341438
  23.7429603  63.0154067  46.5157884  22.8659069  62.8942868  46.1520131
  24.2187356  62.2240146  46.2636773  33.6102596  71.4707135  63.2856340
  32.7229375  71.1333057  63.4082739  34.1801147  70.7390167  63.5225105
  15.2631743  67.8031227  56.6099391  15.9502783  67.4892957  56.0220407
  15.1079872  68.7072592  56.3366643  20.0666465  62.6921424  61.0384415
  19.9824654  62.0847093  60.3034825  19.2449172  63.1830442  61.0393911
  27.1403749  76.1308588  60.2517583  27.0673921  76.9363559  60.7636888
  26.6981143  76.3300553  59.4265604  26.9293529  75.3680358  53.7620405
  26.1461051  75.9102038  53.8558629  27.6286274  75.8854337  54.1614646
  38.0919937  66.8815353  58.0472901  38.0809813  67.7640068  57.6766835
  37.2237316  66.5286904  57.8527439  29.6002433  76.0295422  62.4075742
  30.3130405  76.6642887  62.3351643  29.1092462  76.1259288  61.5915744
  31.3219960  69.9346674  53.9793033  30.3876239  70.0548137  53.8097738
  31.4996628  69.0319141  53.7153043  26.8225148  63.3192370  56.1326295
  26.4522935  62.7663411  56.8207200  27.3184240  62.7150504  55.5801295
  24.6514346  73.7789865  63.2281313  25.3523806  74.4126348  63.3810707
  24.1809461  74.1204597  62.4676952  32.7768742  72.1207815  51.5129220
  33.0528586  72.0064410  52.4223094  31.9073241  71.7225300  51.4741393
  32.4515632  66.3334473  61.0533863  31.7987083  66.5810380  60.3986316
  32.8296012  65.5198611  60.7196340  29.4122806  76.3694166  55.1562033
  29.5945201  75.5515822  55.6189785  30.2355792  76.5861858  54.7186923
  29.7464972  75.2962351  52.4177082  30.2752738  74.7854806  51.8047244
  30.0093191  74.9804881  53.2822615  28.5003205  67.0754284  67.5399900
  27.8243842  66.9748413  68.2102275  29.3230839  66.9193497  68.0035897
  20.2482065  73.3126220  60.1612415  20.8335501  72.5669908  60.2940319
  20.0506903  73.6230177  61.0449079  23.1020720  76.3477468  55.1774858
  22.4331095  76.8323595  54.6938898  22.9633589  76.5946688  56.0918236
  14.8399719  65.8831820  58.8816858  14.8783819  65.3495411  59.6753976
  14.3340012  65.3567026  58.2627836  27.2425988  78.3821211  61.7757516
  27.7944296  78.5452833  62.5406601  27.5832182  78.9725649  61.1037541
  22.2190482  60.7296361  62.3779401  22.2831808  61.5911192  61.9656798
  22.1557602  60.1170363  61.6451759  21.6942754  62.8019493  66.0252435
  22.3214793  62.4196571  66.6389959  20.8370673  62.5833695  66.3908127
  32.0936863  73.2082469  67.6306170  32.6376767  73.8212427  67.1361125
  31.5123708  73.7662047  68.1473183  18.4708297  64.6095923  51.9570790
  18.7661738  63.7006601  51.9037843  17.5696333  64.5883662  51.6351792
  30.3794376  76.3303187  58.7621198  30.2545515  75.5292926  58.2532144
  31.0373467  76.8249380  58.2735168  22.0002544  62.6851919  57.9398338
  21.2789130  63.2987887  57.8005812  22.7895800  63.2209684  57.8614984
  32.4429284  74.1312207  60.3900748  31.4959620  74.0117558  60.3179075
  32.7912057  73.2434705  60.4727010  24.8028857  60.0206346  64.2138990
  25.3263259  60.2668642  64.9765299  24.5841191  60.8526380  63.7942127
  20.1996138  62.2910020  52.0810115  19.8708845  61.4107399  51.8985221
  20.5535509  62.2357689  52.9686504  29.4475717  73.9264923  56.5905100
  29.3000680  72.9981630  56.7712670  30.2729211  73.9485014  56.1062176
  23.3137962  62.5782990  52.4485593  23.6534034  63.1068911  51.7264201
  23.7610082  62.9163396  53.2244159  33.0509839  74.7493482  57.6769973
  33.9756387  74.5436343  57.5394424  32.8825143  74.5009883  58.5859315
  26.0081402  60.9620041  61.8988661  25.6678223  60.1627854  62.3009341
  25.3020409  61.2621752  61.3265494  26.6597874  58.0469353  60.3515984
  27.4823944  57.5729831  60.2294874  26.9035938  58.8259837  60.8514670
  25.3006109  61.0757612  50.6478885  26.0214471  61.4538864  50.1442602
  24.6771413  61.7946488  50.7513863  29.4437232  61.7802761  51.5837218
  29.6600846  62.6627398  51.2826046  28.9631299  61.3888974  50.8542860
  24.1836453  64.7388474  58.1607962  24.0381034  65.0528777  59.0532244
  23.7061657  65.3573374  57.6078861  26.0432836  61.7291022  58.2088852
  26.0294405  60.8332115  57.8721150  26.7605264  61.7361686  58.8427138
  32.8405155  75.2679149  53.0332065  33.0142033  74.7025572  52.2805917
  33.3334047  76.0680044  52.8511555  18.6582115  67.2793818  61.0995623
  18.1135583  68.0553626  61.2315898  19.5361465  67.6264623  60.9414745
  25.4469732  60.6105402  53.4776422  25.5685643  59.6822048  53.6767309
  25.1571774  60.6244088  52.5654737  33.8280328  74.5845914  50.1328963
  34.5231232  75.2052606  50.3516278  34.1703478  73.7341265  50.4081341
  19.4448137  66.4063714  63.9925780  18.7029873  66.5546350  64.5790411
  19.1240881  66.6671980  63.1292530  35.7271751  72.0345619  51.6616294
  36.2523075  72.3732892  50.9365614  35.6394104  71.0992634  51.4779428
  27.3891800  75.9479693  63.7906170  27.6978926  75.7028839  64.6628870
  28.1867282  76.1526331  63.3025041  27.4112412  78.1017602  56.0211547
  26.9717402  77.6093981  56.7144404  28.1620529  77.5590570  55.7803622
  19.8904751  74.2929143  56.0236175  20.7162771  73.9932915  55.6434818
  19.5398803  73.5236766  56.4725964  24.8586284  73.6455611  58.0933849
  24.2366293  72.9826316  57.7936076  25.5291151  73.6716743  57.4107496
  18.0913356  72.2115470  56.9825109  17.2545264  71.7837644  56.8009110
  18.0637001  72.4047913  57.9195900  24.9310811  62.1237399  67.6866355
  24.9798967  62.9999522  67.3044124  25.4733326  61.5814793  67.1137998
  35.4165657  72.6678523  66.9667492  34.6261201  72.6502662  66.4271991
  35.1799012  73.2066816  67.7216528  35.5363532  69.5170989  64.2800220
  35.5861537  69.3520997  65.2215743  35.4277455  68.6498248  63.8898101
  24.4199791  72.1959535  51.5692309  24.5687911  72.8794999  50.9158982
  25.2266234  72.1764625  52.0841765  32.8267294  65.5001917  65.5959527
  33.7277157  65.3608382  65.3043525  32.9015269  65.6656372  66.5357704
  27.1610100  62.8768772  64.4412713  26.2913409  63.1702338  64.1695302
  27.3969580  63.4609217  65.1619977  37.0381729  71.9367931  64.5242242
  36.7466537  72.2997911  65.3605703  36.4253860  71.2234939  64.3455574
  38.2377411  69.5020810  57.0444812  39.0724303  69.9410614  57.2082372
  38.3736540  69.0259464  56.2253058  35.2868917  67.0600545  62.9922300
  35.7623039  67.2528192  62.1841151  34.3634483  67.1159731  62.7465683
  22.1752424  68.2224712  52.5753378  21.9298466  67.3187042  52.7733588
  22.3448338  68.2241863  51.6332856  21.4448071  63.9553070  50.0739539
  20.7517316  64.0297425  49.4179575  21.1999823  63.1913414  50.5961056
  27.9195196  74.6907665  49.0404057  27.3469163  75.3097852  48.5874528
  28.4927990  75.2407027  49.5743978  31.1392456  74.9744815  50.1712639
  32.0723129  74.9090377  50.3745514  31.0515669  75.8101082  49.7127171
  33.7680473  74.2910686  47.1316586  33.6894104  73.9570549  48.0252344
  34.5890140  74.7832454  47.1308059  36.4658664  67.1572425  60.3392905
  36.4334984  66.2188426  60.5252589  37.0759288  67.2356462  59.6058730
  28.3041995  66.0268478  46.3820109  29.2501100  65.8974686  46.4508527
  27.9256240  65.2883140  46.8589537  42.2835214  68.2188432  59.4798942
  43.0138602  67.9573720  60.0406645  41.6742159  67.4817154  59.5201010
  40.3650511  66.3596294  60.0773393  39.6383674  66.2252259  59.4689885
  39.9497798  66.6673123  60.8830111  28.1880687  70.0786224  67.8420766
  29.1083697  70.2564823  68.0360812  28.1530270  69.1342269  67.6900465
  26.4884912  63.9518454  46.3174994  25.5816367  63.6551567  46.3937708
  26.7660893  63.6548272  45.4509280  17.4062852  65.2724818  56.7674041
  17.0865637  64.4190126  56.4748415  16.8596281  65.4873396  57.5232008
  21.1842760  67.9887259  60.4843547  21.4028770  68.9204367  60.5031581
  21.5968534  67.6295233  61.2698351  26.0570625  63.5620465  69.8746296
  25.9567352  64.5114821  69.8058387  25.8392167  63.2338703  69.0022366
  25.2583697  60.8105390  46.4586973  26.1202861  61.1360288  46.7182791
  25.4434041  60.0236885  45.9460039  17.2751112  68.8927729  58.7367162
  16.5814584  68.4781682  58.2237117  18.0224103  68.9348266  58.1400581
  25.9201895  66.9917603  68.6911358  25.4368977  67.7917963  68.8975247
  26.0062834  67.0025548  67.7378802  19.1887855  68.8245983  56.6133177
  19.1658543  68.9233670  55.6615060  19.4988491  69.6711134  56.9350343
  21.8475233  70.8822138  60.7279792  22.8018486  70.8506080  60.6609723
  21.6487756  70.4212762  61.5430017  22.4374615  69.4523254  63.2950589
  23.2567504  69.9467333  63.3185426  22.7111423  68.5355222  63.2668157
  20.2025462  76.4241758  57.7449989  20.0679929  75.6642158  57.1787987
  19.7857524  77.1482657  57.2778778  31.3384425  71.6078681  46.7526565
  32.0420275  71.8128684  47.3684220  30.6147073  72.1755443  47.0175648
  32.1682235  67.3588542  52.8728835  32.1117436  67.8157094  52.0336467
  32.7210577  66.5979227  52.6951678  23.3594587  77.3211075  57.9568432
  23.2426972  78.2656507  57.8547122  22.5387034  77.0184636  58.3454231
  33.2471122  72.0461210  48.8025025  34.0816726  71.6142409  48.6202500
  33.0855465  71.8743224  49.7301919  32.9017014  68.5493324  50.1681364
  32.8465818  68.3837595  49.2269808  32.2763069  69.2569357  50.3243554
  17.6909529  63.7861388  63.9942786  18.3368393  63.2760342  64.4830011
  17.4826680  64.5230070  64.5686211  30.2162921  70.8542235  69.4934927
  31.0854081  71.0282888  69.1321562  29.7369673  71.6736652  69.3710656
  26.2113140  58.0501433  49.7466682  26.1991809  58.9943273  49.9034953
  27.1036561  57.8671578  49.4526144  24.3849102  77.9739336  61.1724360
  25.2876348  78.0062947  61.4890855  24.1586472  77.0439787  61.1870696
  26.1402704  76.7270323  57.8334439  25.1898335  76.7272185  57.7198811
  26.4435190  75.9803058  57.3170474  22.0307020  60.9329005  68.0917800
  22.8938482  60.5765810  68.3021125  21.4572431  60.5942900  68.7793205
  41.8755397  82.5630861  58.8980201  42.5133807  82.4437609  58.1943542
  41.7576240  83.5111705  58.9568154  38.6845103  82.5158290  58.8341726
  38.3463615  82.3999354  57.9462261  39.5534872  82.1149455  58.8142732
  34.5431919  84.3693766  54.8238617  33.9796784  84.2783703  54.0554905
  34.4284314  83.5493670  55.3041110  39.1664886  83.6693141  64.7927932
  39.1553527  83.2745940  63.9208435  39.3285526  82.9359214  65.3861703
  32.0896351  85.8644958  57.6622838  32.8817643  85.5235782  57.2469137
  32.3293001  85.9739933  58.5824991  40.1231478  88.0364734  50.1353082
  39.4719457  88.6218814  49.7487096  40.9175841  88.5670929  50.1948119
  34.0487105  85.1253871  50.5340216  34.8217981  84.5782858  50.3953092
  34.4012504  85.9898120  50.7454678  35.8872147  86.4530253  63.7407116
  35.5962013  87.3575884  63.6253782  36.5229132  86.4946781  64.4551185
  36.8128354  83.8307102  60.3308475  37.4091927  83.6063124  59.6165438
  36.8703326  83.0891847  60.9333923  36.3853383  81.2846537  48.1658666
  36.6378903  80.7628058  47.4042129  35.4477942  81.1212682  48.2685350
  41.4296666  80.2882315  55.9733410  42.2159755  79.8701738  55.6223827
  41.6935370  81.1928407  56.1415058  41.6006743  85.7255166  50.6722066
  40.9652576  85.7989792  51.3842971  41.2704149  86.3148764  49.9941146
  46.8305093  80.2257548  56.8766388  47.5630265  79.6556765  57.1104218
  46.0744448  79.8379149  57.3172894  36.1049671  83.1874643  50.3683041
  35.9885930  82.5119546  51.0364126  36.2151931  82.7007017  49.5515194
  38.4481212  82.6484790  54.0729730  38.0839420  82.1215411  54.7842652
  39.3048328  82.2583259  53.8996216  44.3530513  73.9379123  61.3360997
  44.0213838  74.8074534  61.1122212  43.7576126  73.6215407  62.0155027
  38.0886699  77.6774690  49.0691079  38.2561102  78.5454926  49.4361550
  37.8983868  77.8401971  48.1452368  40.8462033  86.1391669  60.7356909
  40.5462756  87.0416707  60.6272717  40.5013092  85.8723852  61.5878062
  34.2974514  82.5905465  56.7693614  33.3725010  82.4581680  56.9771306
  34.5458927  83.3699685  57.2663556  44.2459176  78.6574209  58.4154347
  43.3376054  78.5889617  58.1213108  44.1946772  79.1346154  59.2436172
  38.0675920  80.1332347  50.0537746  37.9475545  80.5789398  50.8923226
  37.3728509  80.4817665  49.4951284  31.6583325  82.2338739  57.6037403
  31.7875706  82.4873218  58.5176815  30.9780776  82.8266447  57.2842058
  38.3200042  80.0763854  66.3589244  37.5433376  80.6357774  66.3492109
  38.9590605  80.5620637  66.8804114  46.1120823  76.8590647  60.1932221
  45.4695203  77.1523180  59.5472015  45.6075751  76.7443567  60.9985417
  43.7660986  80.6053820  50.8818080  44.6778842  80.8381207  50.7065777
  43.2570633  81.1890865  50.3193158  36.5746414  82.8849308  65.9207211
  37.3161099  83.4234352  65.6442035  35.8683400  83.5115596  66.0778763
  42.0501754  85.0278448  64.5179372  42.4585110  84.5860859  63.7734005
  41.3279016  84.4531076  64.7713565  38.4032824  79.9651055  61.8912929
  39.2494019  80.3890468  62.0347578  38.3431462  79.3084679  62.5851492
  42.3730569  85.5879639  58.2731661  41.7439431  85.7525353  57.5707729
  41.9856231  86.0021248  59.0442625  46.2519801  86.5234077  55.6276025
  45.5670839  86.9032978  55.0773058  46.3363650  87.1329403  56.3607973
  41.5532269  77.6255423  63.5494103  41.3093201  78.3797484  63.0128379
  41.8292200  78.0040771  64.3841350  43.5070732  84.1694036  62.2271369
  43.7187627  84.8125796  61.5505750  43.4600480  83.3356352  61.7593299
  41.1096961  76.7811856  59.1307941  40.2481440  77.0793110  59.4224678
  41.1359396  76.9982255  58.1988973  37.9258531  85.3254047  55.5381746
  38.3896876  85.6041750  54.7486369  37.6615329  84.4237491  55.3554837
  34.8182612  84.8725528  58.4761510  35.3883969  85.3012797  57.8378994
  35.4090723  84.5908113  59.1745695  36.8627417  81.4477199  52.3471312
  37.5651460  81.8998243  52.8145238  36.5308045  80.8061018  52.9751205
  35.3107778  80.0388956  66.7222521  34.6806439  80.7205237  66.9557918
  35.2043866  79.9272037  65.7775659  30.6052751  79.7060752  57.6488445
  29.8151805  79.9618280  57.1728556  31.0963998  80.5209090  57.7540486
  44.6216560  87.0465991  60.3993726  45.4434004  86.6446178  60.1176408
  44.6178963  86.9434225  61.3509842  32.5567496  80.0705331  54.6071922
  31.7598659  80.1824025  55.1255417  32.3293088  80.4091983  53.7412812
  38.3873164  86.5950034  62.5554436  38.4517596  87.0570442  63.3912608
  37.6784087  85.9647399  62.6836746  28.8890454  79.9591242  60.0803436
  29.1398492  80.8438252  60.3461012  29.4250002  79.7795844  59.3078528
  52.7122553  83.3904740  56.7478697  51.9586262  82.8212138  56.5922702
  52.8470094  83.3567404  57.6949332  34.5888521  74.3409722  69.0847772
  34.1955466  73.7875920  69.7595416  35.4054661  74.6520300  69.4754290
  31.5550579  85.7793580  52.9961342  32.0675099  86.5736830  53.1466907
  32.2073291  85.0819870  52.9294943  37.5056482  75.7567601  66.6768029
  38.2466195  76.3574754  66.5972491  37.7374405  75.0145239  66.1186071
  32.6497820  80.9423968  64.9546258  32.5351335  80.0409225  65.2553357
  31.7942338  81.1887665  64.6031075  39.7289658  88.8841708  66.5533759
  39.2853512  88.0978087  66.2354663  40.3906871  89.0720859  65.8877650
  41.8270896  89.1644508  64.5815160  41.8089371  89.9853389  64.0895429
  42.7490816  89.0398584  64.8065301  38.2843950  86.6788638  65.4238668
  38.8172287  85.9176926  65.1937976  37.7558031  86.3862290  66.1662823
  41.4513645  71.7848704  60.9532310  41.1077914  72.6750345  60.8771421
  41.8192607  71.5950361  60.0901895  29.5199495  84.1082234  53.7720912
  30.3574717  84.5179243  53.5554620  29.6977763  83.1681676  53.7421106
  41.4163928  81.7757315  49.4604745  40.9010551  82.5461919  49.6993133
  41.1441236  81.1022451  50.0837807  39.0011039  76.6207016  54.5189984
  38.1452635  76.2313866  54.3395622  39.4137990  76.6998976  53.6589769
  40.5310185  74.1553359  58.9181543  40.0274981  74.1183494  58.1049349
  40.8240792  75.0646102  58.9778200  36.7753071  74.2392089  57.9247725
  37.6406068  74.0434897  57.5653615  36.8430580  74.0102440  58.8517082
  46.3898202  84.5289669  51.3957919  45.6127644  84.1900829  50.9513081
  47.0689683  84.5342293  50.7212884  41.2050231  79.6484407  51.2864527
  40.9000366  79.9630556  52.1374670  42.1580673  79.7265827  51.3291860
  39.6496663  85.8074630  52.9357481  39.1218024  85.0727390  52.6230718
  39.1484165  86.5849307  52.6897449  44.6289509  84.0023651  58.0524527
  43.9713183  84.6922912  58.1404655  45.4329908  84.3920083  58.3958513
  34.3815390  76.4694297  55.2964092  34.9559142  76.2469478  54.5637285
  34.9686373  76.5382991  56.0492693  43.4394967  82.3568023  56.1028469
  43.9526849  82.9898015  56.6050178  44.0896191  81.7569219  55.7371829
  34.7084977  78.4998758  49.3159977  33.8722290  78.8373444  49.6369252
  34.5689747  78.3647737  48.3787114  36.6838058  73.3435545  54.0239161
  36.0302470  73.0284563  53.3995776  36.6418532  72.7211286  54.7498984
  37.7949263  83.6254841  45.9392454  36.8876324  83.3944094  46.1383603
  38.2920295  82.8292460  46.1266435  39.9175798  79.8317479  58.3486809
  38.9998360  80.0532426  58.1908497  40.3335942  79.9063789  57.4898516
  40.7010846  81.2308895  53.4789489  41.4482665  81.7430292  53.1696611
  40.9702436  80.9092947  54.3393883  38.9737496  83.7267435  50.4616444
  38.0648715  83.4426468  50.5588913  39.0032580  84.1466514  49.6019750
  44.2056764  87.3374025  54.2307611  43.7519091  86.4964935  54.2872802
  43.5750730  87.9735423  54.5682391  43.1489683  78.2666011  55.4608279
  42.4112440  77.7543397  55.7918521  43.4016457  77.8266393  54.6491556
  42.6489703  89.1750522  55.1657429  42.9412677  89.7355579  54.4469795
  43.1588323  89.4679083  55.9210588  43.2501310  71.0442263  56.0550048
  43.5560187  70.1839626  55.7675963  43.9753915  71.6359883  55.8549042
  29.5425667  81.4472950  54.4431646  29.3450066  80.8542310  53.7182712
  28.9872331  81.1425160  55.1607585  37.5222390  81.3396056  56.5626239
  37.5771000  80.3869892  56.4868716  36.7113592  81.4955495  57.0467537
  38.6713584  85.2676179  47.8004522  38.2333014  84.5512038  47.3410160
  39.4124025  85.4952294  47.2389614  35.4614750  79.9573116  54.3216618
  34.6482616  80.2567286  54.7281810  35.9573744  79.5628805  55.0391100
  41.0588962  80.4214940  63.1531512  41.4138350  80.6486413  64.0125977
  41.7061093  80.7533317  62.5308767  46.7886699  83.5433376  53.8580841
  46.6504597  83.7334972  52.9302030  46.4322918  84.3052759  54.3148892
  34.9528825  77.5291471  59.9377853  35.5928204  77.3880230  59.2400816
  34.1206355  77.2425985  59.5616455  46.8156078  85.6109903  58.8692112
  47.2492585  85.5185192  59.7175166  47.5287659  85.5867404  58.2312128
  35.7289129  86.8293902  56.0512845  36.5229727  86.3344222  55.8495420
  35.0180821  86.3011765  55.6880551  32.0371892  80.9736983  52.1272598
  31.1069480  80.9121439  52.3442560  32.1329364  80.4512936  51.3309239
  31.9557441  77.4991796  54.7150840  32.2164259  78.4137129  54.6060000
  32.7774614  77.0316239  54.8647452  33.4282367  78.9129553  61.8849664
  34.1005420  78.7046916  61.2362313  32.6012153  78.7151639  61.4454896
  47.6771628  85.6533604  61.4024998  47.8707518  86.5579414  61.6484273
  47.5772246  85.1941023  62.2363583  39.3307939  75.5391494  63.9015325
  38.6835854  76.2381444  63.8079801  40.1008954  75.9727638  64.2691573
  42.7386737  85.8040347  66.9765878  42.5872243  85.5750898  66.0595962
  42.7291416  86.7610948  66.9897223  39.5072073  83.3772259  61.9612145
  40.4364133  83.5283419  61.7881112  39.0863103  83.4656280  61.1060791
  38.3060405  87.4022924  59.7310682  38.1671490  87.0341708  60.6036620
  37.5175001  87.9170563  59.5594640  39.8565620  86.7804526  57.1199520
  39.5215453  86.7405296  58.0157170  39.3569566  86.1149242  56.6469930
  33.8309864  82.1872156  62.6452101  33.6929662  81.4552395  63.2463640
  34.7414787  82.0981056  62.3636289  42.7924812  84.1260561  47.3936580
  42.1753982  83.4007389  47.2969632  42.3241300  84.8869921  47.0503654
  36.4592165  81.8992116  62.1335781  37.1691783  81.2585308  62.0922399
  36.4161473  82.1505011  63.0561962  44.4478943  88.8359469  65.0542360
  44.3891489  88.1518689  64.3872943  44.8498462  89.5778459  64.6022986
  35.1721099  78.8857334  63.9531420  34.6358456  78.4348072  64.6053017
  34.5837807  79.0203242  63.2101885  34.5823357  78.3445985  46.5157884
  33.7052824  78.2234786  46.1520131  35.0581111  77.5532063  46.2636773
  44.4496351  86.7999053  63.2856340  43.5623129  86.4624975  63.4082739
  45.0194902  86.0682084  63.5225105  26.1025498  83.1323145  56.6099391
  26.7896537  82.8184875  56.0220407  25.9473626  84.0364509  56.3366643
  30.9060220  78.0213341  61.0384415  30.8218409  77.4139011  60.3034825
  30.0842926  78.5122360  61.0393911  41.0783934  76.5066905  56.4054610
  41.5752633  75.7536867  56.0855680  40.3070915  76.5431221  55.8397819
  48.9313691  82.2107270  58.0472901  48.9203567  83.0931986  57.6766835
  48.0631070  81.8578821  57.8527439  42.1613714  85.2638592  53.9793033
  41.2269993  85.3840055  53.8097738  42.3390383  84.3611059  53.7153043
  37.6618902  78.6484288  56.1326295  37.2916690  78.0955328  56.8207200
  38.1577995  78.0442421  55.5801295  45.5486266  81.1055911  54.5143068
  46.0146718  81.9383903  54.4403370  45.9993766  80.6400893  55.2188326
  43.6162497  87.4499733  51.5129220  43.8922341  87.3356327  52.4223094
  42.7466996  87.0517217  51.4741393  43.5202928  73.4736498  58.5533969
  42.6066008  73.7040725  58.7216176  43.9496030  73.5574942  59.4048001
  43.2909387  81.6626390  61.0533863  42.6380837  81.9102298  60.3986316
  43.6689767  80.8490528  60.7196340  39.3396960  82.4046201  67.5399900
  38.6637597  82.3040331  68.2102275  40.1624594  82.2485415  68.0035897
  25.6793474  81.2123738  58.8816858  25.7177573  80.6787329  59.6753976
  25.1733767  80.6858944  58.2627836  33.0584236  76.0588279  62.3779401
  33.1225563  76.9203110  61.9656798  32.9951356  75.4462280  61.6451759
  32.5336509  78.1311411  66.0252435  33.1608547  77.7488488  66.6389959
  31.6764427  77.9125613  66.3908127  42.9330617  88.5374386  67.6306170
  43.4770521  89.1504345  67.1361125  42.3517462  89.0953965  68.1473183
  29.3102051  79.9387840  51.9570790  29.6055492  79.0298519  51.9037843
  28.4090087  79.9175580  51.6351792  32.8396298  78.0143837  57.9398338
  32.1182884  78.6279805  57.8005812  33.6289554  78.5501602  57.8614984
  43.2823038  89.4604124  60.3900748  42.3353374  89.3409476  60.3179075
  43.6305812  88.5726622  60.4727010  35.6422612  75.3498263  64.2138990
  36.1657014  75.5960560  64.9765299  35.4234945  76.1818298  63.7942127
  31.0389893  77.6201938  52.0810115  30.7102599  76.7399317  51.8985221
  31.3929264  77.5649607  52.9686504  40.2869472  89.2556841  56.5905100
  40.1394434  88.3273548  56.7712670  41.1122965  89.2776931  56.1062176
  34.1531716  77.9074908  52.4485593  34.4927789  78.4360829  51.7264201
  34.6003837  78.2455314  53.2244159  43.8903594  90.0785399  57.6769973
  44.8150141  89.8728261  57.5394424  43.7218897  89.8301801  58.5859315
  36.8475157  76.2911958  61.8988661  36.5071977  75.4919771  62.3009341
  36.1414163  76.5913669  61.3265494  37.4991629  73.3761271  60.3515984
  38.3217698  72.9021749  60.2294874  37.7429692  74.1551755  60.8514670
  36.1399863  76.4049529  50.6478885  36.8608226  76.7830782  50.1442602
  35.5165167  77.1238406  50.7513863  40.2830986  77.1094678  51.5837218
  40.4994600  77.9919316  51.2826046  39.8025053  76.7180892  50.8542860
  35.0230207  80.0680391  58.1607962  34.8774788  80.3820695  59.0532244
  34.5455411  80.6865292  57.6078861  36.8826590  77.0582939  58.2088852
  36.8688159  76.1624033  57.8721150  37.5999018  77.0653603  58.8427138
  38.7352721  77.4920280  60.2541979  38.4770499  78.4137350  60.2526310
  38.2037761  77.0950714  60.9442443  29.4975870  82.6085736  61.0995623
  28.9529338  83.3845544  61.2315898  30.3755220  82.9556540  60.9414745
  36.2863486  75.9397320  53.4776422  36.4079397  75.0113966  53.6767309
  35.9965529  75.9536006  52.5654737  39.1554677  73.6252230  56.6143142
  39.1776374  73.6891563  55.6595121  39.5722736  72.7856739  56.8083648
  49.5338301  83.3607490  54.6522364  49.9769447  82.6114815  54.2541488
  48.6564811  83.3517626  54.2696096  44.6674082  89.9137831  50.1328963
  45.3624987  90.5344524  50.3516278  45.0097232  89.0633182  50.4081341
  30.2841892  81.7355632  63.9925780  29.5423628  81.8838268  64.5790411
  29.9634636  81.9963898  63.1292530  46.5665505  87.3637537  51.6616294
  47.0916830  87.7024809  50.9365614  46.4787858  86.4284552  51.4779428
  35.7704566  77.4529317  67.6866355  35.8192721  78.3291440  67.3044124
  36.3127080  76.9106710  67.1137998  46.2559412  87.9970440  66.9667492
  45.4654955  87.9794579  66.4271991  46.0192766  88.5358734  67.7216528
  46.3757287  84.8462907  64.2800220  46.4255291  84.6812914  65.2215743
  46.2671210  83.9790166  63.8898101  43.6661049  80.8293835  65.5959527
  44.5670912  80.6900300  65.3043525  43.7409023  80.9948290  66.5357704
  38.0003854  78.2060690  64.4412713  37.1307164  78.4994256  64.1695302
  38.2363335  78.7901135  65.1619977  47.8775483  87.2659848  64.5242242
  47.5860292  87.6289829  65.3605703  47.2647615  86.5526857  64.3455574
  49.0771166  84.8312728  57.0444812  49.9118057  85.2702532  57.2082372
  49.2130295  84.3551381  56.2253058  46.1262672  82.3892463  62.9922300
  46.6016793  82.5820109  62.1841151  45.2028237  82.4451649  62.7465683
  33.0146178  83.5516630  52.5753378  32.7692220  82.6478960  52.7733588
  33.1842093  83.5533781  51.6332856  40.7042888  74.4240306  61.9578134
  41.2224832  75.1601333  61.6324622  40.3498021  74.7304300  62.7924893
  32.2841826  79.2844988  50.0739539  31.5911071  79.3589343  49.4179575
  32.0393578  78.5205331  50.5961056  40.9555482  70.8440589  57.4779030
  41.2357236  70.1763778  58.1039457  41.7406089  71.0369685  56.9653694
  44.8264341  79.2658223  61.2250605  45.7781764  79.3656321  61.2462829
  44.6567791  78.4736492  61.7348690  42.8478720  76.3513806  61.4110006
  42.2528652  76.6318819  60.7156495  42.5628417  76.8407707  62.1826747
  44.6074227  89.6202603  47.1316586  44.5287859  89.2862467  48.0252344
  45.4283894  90.1124371  47.1308059  47.3052418  82.4864343  60.3392905
  47.2728739  81.5480343  60.5252589  47.9153042  82.5648379  59.6058730
  39.1435749  81.3560396  46.3820109  40.0894854  81.2266604  46.4508527
  38.7649994  80.6175058  46.8589537  47.4546907  79.2775386  60.3851188
  46.9385956  78.4933843  60.1981117  48.3386855  78.9494103  60.5497708
  45.1157634  73.0216402  56.3447001  44.9182455  72.7131490  57.2290333
  45.7257339  73.7478041  56.4744931  53.1228968  83.5480350  59.4798942
  53.8532357  83.2865638  60.0406645  52.5135914  82.8109071  59.5201010
  51.2044265  81.6888212  60.0773393  50.4777429  81.5544177  59.4689885
  50.7891552  81.9965041  60.8830111  39.0274442  85.4078142  67.8420766
  39.9477451  85.5856741  68.0360812  38.9924025  84.4634187  67.6900465
  37.3278666  79.2810372  46.3174994  36.4210122  78.9843485  46.3937708
  37.6054647  78.9840190  45.4509280  28.2456607  80.6016735  56.7674041
  27.9259391  79.7482044  56.4748415  27.6990035  80.8165314  57.5232008
  32.0236514  83.3179176  60.4843547  32.2422524  84.2496284  60.5031581
  32.4362288  82.9587151  61.2698351  38.9440732  73.8247262  52.4719236
  38.1341460  73.4794347  52.8474482  39.6325149  73.5154805  53.0606847
  40.8731280  72.9025309  54.0943532  41.4262319  73.3220762  54.7533555
  41.1101367  71.9761057  54.1366488  36.8964380  78.8912382  69.8746296
  36.7961107  79.8406739  69.8058387  36.6785922  78.5630621  69.0022366
  36.0977451  76.1397307  46.4586973  36.9596615  76.4652206  46.7182791
  36.2827795  75.3528803  45.9460039  28.1144867  84.2219647  58.7367162
  27.4208338  83.8073600  58.2237117  28.8617858  84.2640183  58.1400581
  44.2510088  75.0125834  53.6022196  43.6708757  75.6710638  53.2200249
  43.9846020  74.1903178  53.1909614  42.7013654  74.4130891  55.8043517
  43.2013432  74.5247426  54.9957836  43.3449262  74.1091944  56.4444325
  36.7595650  82.3209521  68.6911358  36.2762731  83.1209881  68.8975247
  36.8456589  82.3317466  67.7378802  30.0281609  84.1537901  56.6133177
  30.0052297  84.2525588  55.6615060  30.3382246  85.0003052  56.9350343
  32.6868987  86.2114056  60.7279792  33.6412241  86.1797998  60.6609723
  32.4881511  85.7504679  61.5430017  33.2768369  84.7815172  63.2950589
  34.0961258  85.2759250  63.3185426  33.5505177  83.8647140  63.2668157
  43.0334966  77.1725924  52.6578545  42.1460821  77.4575575  52.4398739
  43.4488955  77.0119687  51.8105822  46.3849502  77.1972445  56.3732884
  47.1609892  77.6868898  56.6457501  45.6597636  77.6230499  56.8304753
  48.8222060  77.9100064  57.4306825  49.4166551  77.6695800  56.7200133
  48.8948644  77.1907195  58.0580361  42.1778179  86.9370599  46.7526565
  42.8814029  87.1420601  47.3684220  41.4540828  87.5047361  47.0175648
  43.0075989  82.6880460  52.8728835  42.9511191  83.1449011  52.0336467
  43.5604332  81.9271145  52.6951678  46.8180795  78.4770192  53.6978954
  46.5617729  78.0766828  54.5287162  46.1933663  79.1913986  53.5729093
  51.1293133  81.2166265  56.2050246  50.5692691  81.2859454  56.9781808
  50.5236636  81.0407250  55.4849742  44.0864876  87.3753128  48.8025025
  44.9210480  86.9434326  48.6202500  43.9249219  87.2035142  49.7301919
  43.7410769  83.8785241  50.1681364  43.6859572  83.7129513  49.2269808
  43.1156824  84.5861274  50.3243554  28.5303284  79.1153306  63.9942786
  29.1762147  78.6052260  64.4830011  28.3220435  79.8521987  64.5686211
  41.0556676  86.1834153  69.4934927  41.9247835  86.3574805  69.1321562
  40.5763427  87.0028570  69.3710656  37.0506894  73.3793350  49.7466682
  37.0385564  74.3235190  49.9034953  37.9430316  73.1963496  49.4526144
  40.8659014  69.9736127  54.0012619  40.0991409  69.4194614  54.1469302
  41.2769718  70.0457996  54.8626771  32.8700775  76.2620923  68.0917800
  33.7332236  75.9057728  68.3021125  32.2966185  75.9234818  68.7793205
  57.6698847  95.5549466  56.8766388  58.4024019  94.9848683  57.1104218
  56.9138203  95.1671067  57.3172894  55.1924267  89.2671040  61.3360997
  54.8607592  90.1366451  61.1122212  54.5969881  88.9507324  62.0155027
  55.0852931  93.9866126  58.4154347  54.1769808  93.9181535  58.1213108
  55.0340527  94.4638071  59.2436172  56.9514577  92.1882565  60.1932221
  56.3088957  92.4815098  59.5472015  56.4469506  92.0735485  60.9985417
  52.3926024  92.9547341  63.5494103  52.1486956  93.7089401  63.0128379
  52.6685954  93.3332689  64.3841350  51.9490716  92.1103774  59.1307941
  51.0875195  92.4085028  59.4224678  51.9753150  92.3274173  58.1988973
  45.4282275  89.6701639  69.0847772  45.0349221  89.1167838  69.7595416
  46.2448416  89.9812218  69.4754290  48.3450236  91.0859518  66.6768029
  49.0859950  91.6866672  66.5972491  48.5768159  90.3437156  66.1186071
  52.2907399  87.1140621  60.9532310  51.9471669  88.0042263  60.8771421
  52.6586362  86.9242279  60.0901895  49.8404793  91.9498933  54.5189984
  48.9846389  91.5605784  54.3395622  50.2531745  92.0290894  53.6589769
  51.3703940  89.4845277  58.9181543  50.8668735  89.4475412  58.1049349
  51.6634547  90.3938019  58.9778200  47.6146826  89.5684006  57.9247725
  48.4799822  89.3726815  57.5653615  47.6824334  89.3394358  58.8517082
  47.5231812  88.6727463  54.0239161  46.8696225  88.3576480  53.3995776
  47.4812287  88.0503204  54.7498984  53.9883438  93.5957929  55.4608279
  53.2506194  93.0835315  55.7918521  54.2410211  93.1558310  54.6491556
  54.0895065  86.3734181  56.0550048  54.3953942  85.5131544  55.7675963
  54.8147670  86.9651801  55.8549042  50.1701693  90.8683412  63.9015325
  49.5229608  91.5673362  63.8079801  50.9402709  91.3019556  64.2691573
  51.9177688  91.8358823  56.4054610  52.4146388  91.0828785  56.0855680
  51.1464670  91.8723139  55.8397819  54.3596683  88.8028416  58.5533969
  53.4459763  89.0332643  58.7216176  54.7889784  88.8866860  59.4048001
  46.4816366  90.6790181  64.2138990  47.0050768  90.9252478  64.9765299
  46.2628700  91.5110216  63.7942127  47.6868911  91.6203876  61.8988661
  47.3465732  90.8211689  62.3009341  46.9807918  91.9205587  61.3265494
  48.3385383  88.7053189  60.3515984  49.1611453  88.2313667  60.2294874
  48.5823447  89.4843672  60.8514670  51.1224741  92.4386596  51.5837218
  51.3388355  93.3211234  51.2826046  50.6418808  92.0472809  50.8542860
  47.1257241  91.2689237  53.4776422  47.2473152  90.3405884  53.6767309
  46.8359283  91.2827923  52.5654737  49.9948431  88.9544148  56.6143142
  50.0170128  89.0183481  55.6595121  50.4116490  88.1148657  56.8083648
  51.5436643  89.7532224  61.9578134  52.0618586  90.4893251  61.6324622
  51.1891775  90.0596217  62.7924893  51.7949237  86.1732507  57.4779030
  52.0750991  85.5055696  58.1039457  52.5799844  86.3661602  56.9653694
  55.6658095  94.5950141  61.2250605  56.6175518  94.6948238  61.2462829
  55.4961546  93.8028409  61.7348690  53.6872475  91.6805724  61.4110006
  53.0922407  91.9610737  60.7156495  53.4022171  92.1699625  62.1826747
  58.2940661  94.6067304  60.3851188  57.7779710  93.8225760  60.1981117
  59.1780610  94.2786020  60.5497708  55.9551388  88.3508319  56.3447001
  55.7576209  88.0423408  57.2290333  56.5651094  89.0769958  56.4744931
  49.7834487  89.1539179  52.4719236  48.9735215  88.8086264  52.8474482
  50.4718904  88.8446723  53.0606847  51.7125035  88.2317226  54.0943532
  52.2656074  88.6512680  54.7533555  51.9495121  87.3052974  54.1366488
  46.9371206  91.4689225  46.4586973  47.7990370  91.7944123  46.7182791
  47.1221550  90.6820721  45.9460039  55.0903842  90.3417751  53.6022196
  54.5102511  91.0002555  53.2200249  54.8239775  89.5195096  53.1909614
  53.5407408  89.7422809  55.8043517  54.0407187  89.8539344  54.9957836
  54.1843016  89.4383862  56.4444325  53.8728720  92.5017842  52.6578545
  52.9854575  92.7867492  52.4398739  54.2882709  92.3411605  51.8105822
  57.2243256  92.5264363  56.3732884  58.0003646  93.0160815  56.6457501
  56.4991390  92.9522417  56.8304753  59.6615815  93.2391982  57.4306825
  60.2560306  92.9987718  56.7200133  59.7342399  92.5199113  58.0580361
  57.6574550  93.8062110  53.6978954  57.4011484  93.4058745  54.5287162
  57.0327418  94.5205904  53.5729093  47.8900649  88.7085268  49.7466682
  47.8779318  89.6527108  49.9034953  48.7824070  88.5255413  49.4526144
  51.7052768  85.3028045  54.0012619  50.9385164  84.7486531  54.1469302
  52.1163473  85.3749913  54.8626771   9.3574135  13.5817231  45.6225508
   9.9952545  13.4623978  44.9188848   9.2394978  14.5298075  45.6813460
   6.1663841  13.5344659  45.5587033   5.8282353  13.4185724  44.6707568
   7.0353609  13.1335824  45.5388039   2.0250657  15.3880135  41.5483924
   1.4615522  15.2970072  40.7800211   1.9103052  14.5680040  42.0286416
   6.6483624  14.6879511  51.5173238   6.6372265  14.2932309  50.6453742
   6.8104264  13.9545583  52.1107010   7.6050216  19.0551103  36.8598389
   6.9538195  19.6405184  36.4732402   8.3994578  19.5857298  36.9193426
   1.5305843  16.1440240  37.2585523   2.3036719  15.5969227  37.1198399
   1.8831242  17.0084490  37.4699984   3.3690885  17.4716623  50.4652422
   3.0780751  18.3762253  50.3499089   4.0047870  17.5133150  51.1796492
   4.2947092  14.8493471  47.0553782   4.8910664  14.6249494  46.3410745
   4.3522064  14.1078217  47.6579230   3.8672120  12.3032906  34.8903973
   4.1197641  11.7814428  34.1287436   2.9296680  12.1399052  34.9930657
   8.9115403  11.3068685  42.6978716   9.6978493  10.8888108  42.3469133
   9.1754108  12.2114777  42.8660365   9.0825481  16.7441535  37.3967373
   8.4471314  16.8176162  38.1088278   8.7522887  17.3335134  36.7186452
  14.3123830  11.2443918  43.6011695  15.0449002  10.6743135  43.8349524
  13.5563186  10.8565518  44.0418200   3.5868409  14.2061012  37.0928348
   3.4704667  13.5305916  37.7609432   3.6970669  13.7193386  36.2760501
   5.9299950  13.6671160  40.7975037   5.5658157  13.1401780  41.5087959
   6.7867066  13.2769629  40.6241523   8.3280770  17.1578038  47.4602216
   8.0281493  18.0603077  47.3518023   7.9831830  16.8910221  48.3123369
   1.7793252  13.6091835  43.4938920   0.8543748  13.4768049  43.7016612
   2.0277665  14.3886054  43.9908863  11.7277914   9.6760578  45.1399653
  10.8194791   9.6075987  44.8458414  11.6765510  10.1532523  45.9681479
   5.5494658  11.1518717  36.7783052   5.4294283  11.5975767  37.6168533
   4.8547246  11.5004034  36.2196591   3.3101550  23.9222358  40.4273184
   3.2325580  24.8730184  40.5061664   2.7063194  23.5768231  41.0848110
   5.8018780  11.0950224  53.0834551   5.0252114  11.6544144  53.0737415
   6.4409343  11.5807007  53.6049421  13.5939561   7.8777017  46.9177527
  12.9513941   8.1709550  46.2717322  13.0894489   7.7629937  47.7230724
  11.2479724  11.6240190  37.6063386  12.1597580  11.8567577  37.4311084
  10.7389371  12.2077234  37.0438465   4.0565152  13.9035677  52.6452518
   4.7979837  14.4420721  52.3687341   3.3502138  14.5301966  52.8024069
   9.5320492  16.0464818  51.2424679   9.9403848  15.6047228  50.4979311
   8.8097753  15.4717445  51.4958872   5.8851562  10.9837424  48.6158236
   6.7312757  11.4076838  48.7592885   5.8250200  10.3271049  49.3096799
   9.8549306  16.6066008  44.9976968   9.2258169  16.7711722  44.2953036
   9.4674969  17.0207618  45.7687932  13.7338538  17.5420446  42.3521332
  13.0489577  17.9219348  41.8018365  13.8182388  18.1515773  43.0853279
   9.0351007   8.6441793  50.2739410   8.7911939   9.3983853  49.7373685
   9.3110938   9.0227140  51.1086657  10.9889470  15.1880405  48.9516675
  11.2006365  15.8312165  48.2751056  10.9419218  14.3542722  48.4838605
   8.5915699   7.7998226  45.8553247   7.7300178   8.0979479  46.1469985
   8.6178134   8.0168625  44.9234280   5.4077268  16.3440416  42.2627053
   5.8715614  16.6228119  41.4731676   5.1434066  15.4423861  42.0800144
   2.3001349  15.8911898  45.2006816   2.8702706  16.3199166  44.5624301
   2.8909461  15.6094483  45.8991002   4.3446154  12.4663569  39.0716618
   5.0470198  12.9184612  39.5390545   4.0126783  11.8247388  39.6996511
  12.1035298  18.0652361  47.1239033  12.9252742  17.6632548  46.8421714
  12.0997701  17.9620595  48.0755148   5.8691901  17.6136404  49.2799743
   5.9336334  18.0756811  50.1157915   5.1602825  16.9833769  49.4082053
  20.1941291  14.4091109  43.4724004  19.4404999  13.8398507  43.3168008
  20.3288832  14.3753774  44.4194639   5.5839919  19.2804511  39.1478723
   5.4485594  20.1256047  39.5763571   6.1249732  19.4823789  38.3844657
   0.8464201  19.9145706  41.8029402   1.0230829  20.8363670  41.6150386
   1.6421035  19.6004125  42.2323781   7.2108395  19.9028078  53.2779065
   6.7672250  19.1164456  52.9599970   7.8725609  20.0907228  52.6122956
   1.9695517  21.4323880  47.8039744   2.5202942  21.3040943  47.0316738
   1.1306992  21.7318769  47.4534637   9.3089633  20.1830878  51.3060467
   9.2908109  21.0039759  50.8140736  10.2309554  20.0584953  51.5310608
   5.7662688  17.6975007  52.1483975   6.2991024  16.9363296  51.9183283
   5.2376769  17.4048659  52.8908130   8.8982665  12.7943684  36.1850052
   8.3829289  13.5648289  36.4238439   8.6259974  12.1208821  36.8083113
  13.8716939  15.5476039  38.1203225  13.0946382  15.2087199  37.6758388
  14.5508420  15.5528662  37.4458191   8.6868968  10.6670777  38.0109833
   8.3819104  10.9816926  38.8619976   9.6399411  10.7452196  38.0537166
   7.1315400  16.8261000  39.6602787   6.6036762  16.0913759  39.3476025
   6.6302903  17.6035676  39.4142755  12.1108246  15.0210020  44.7769833
  11.4531921  15.7109282  44.8649962  12.9148646  15.4106452  45.1203820
  10.9213705  13.3754393  42.8273775  11.4345587  14.0084385  43.3295485
  11.5714929  12.7755589  42.4617135   5.2768001  14.6441210  32.6637760
   4.3695062  14.4130464  32.8628909   5.7739033  13.8478829  32.8511742
   8.1836079  23.3538717  35.5834446   7.5097778  23.6570414  36.1919404
   8.5701901  24.1567798  35.2339903   7.3994536  10.8503849  45.0732116
   6.4817097  11.0718796  44.9153804   7.8154680  10.9250159  44.2143823
   8.1829584  12.2495264  40.2034796   8.9301403  12.7616661  39.8941918
   8.4521173  11.9279317  41.0639190   6.4556234  14.7453805  37.1861750
   5.5467453  14.4612838  37.2834220   6.4851318  15.1652884  36.3265057
  11.6875501  18.3560394  40.9552918  11.2337828  17.5151304  41.0118108
  11.0569468  18.9921793  41.2927698  10.6308421   9.2852380  42.1853585
   9.8931178   8.7729767  42.5163828  10.8835194   8.8452762  41.3736862
  10.1308441  20.1936891  41.8902736  10.4231415  20.7541948  41.1715102
  10.6407061  20.4865452  42.6455895   5.0041128  12.3582426  43.2871546
   5.0589738  11.4056262  43.2114022   4.1932330  12.5141865  43.7712844
   6.1532322  16.2862549  34.5249829   5.7151752  15.5698408  34.0655466
   6.8942763  16.5138663  33.9634920   5.0942066  20.9717242  42.9796189
   5.0518245  21.1978089  42.0504721   6.0104765  20.7380617  43.1281990
   8.5407700  11.4401310  49.8776818   8.8957087  11.6672783  50.7371284
   9.1879831  11.7719687  49.2554074  14.2705437  14.5619746  40.5826147
  14.1323335  14.7521342  39.6547337  13.9141655  15.3239128  41.0394199
  14.2974816  16.6296273  45.5937419  14.7311323  16.5371562  46.4420473
  15.0106397  16.6053773  44.9557435   3.2107867  17.8480271  42.7758152
   4.0048465  17.3530591  42.5740727   2.4999559  17.3198134  42.4125857
   8.0302711  20.2298367  47.1270520   8.0839733  20.7989303  47.8948235
   7.1617492  20.4000252  46.7624557  15.1590366  16.6719973  48.1270304
  15.3526256  17.5765784  48.3729579  15.0590984  16.2127392  48.9608889
  10.2205474  16.8226716  53.7011185  10.0690981  16.5937268  52.7841269
  10.2110154  17.7797317  53.7142530   6.9890811  14.3958629  48.6857451
   7.9182871  14.5469788  48.5126419   6.5681841  14.4842650  47.8306098
   5.7879143  18.4209293  46.4555989   5.6490228  18.0528078  47.3281927
   4.9993739  18.9356933  46.2839947   6.3827295  23.5218390  37.7981526
   6.5579050  23.0506433  38.6127148   5.6960083  24.1484156  38.0262786
   7.3384358  17.7990896  43.8444827   7.0034190  17.7591666  44.7402477
   6.8388303  17.1335612  43.3715237  10.2743549  15.1446930  34.1181886
   9.6572720  14.4193758  34.0214939   9.8060038  15.9056291  33.7748961
   3.9410902  12.9178485  48.8581088   4.6510521  12.2771677  48.8167706
   3.8980211  13.1691380  49.7807268  11.9297681  19.8545839  51.7787667
  11.8710227  19.1705059  51.1118250  12.3317199  20.5964829  51.3268293
  11.9315088  17.8185423  50.0101646  11.0441867  17.4811344  50.1328045
  12.5013639  17.0868454  50.2470412   5.4616242  22.4786875  46.9762890
   5.3886413  23.2841846  47.4882194   5.0193635  22.6778841  46.1510911
   5.2506021  21.7158645  40.4865711   4.4673543  22.2580325  40.5803936
   5.9498766  22.2332625  40.8859952  16.4132429  13.2293640  44.7718208
  16.4022305  14.1118355  44.4012141  15.5449808  12.8765191  44.5772745
   7.9214925  22.3773709  49.1321048   8.6342897  23.0121174  49.0596950
   7.4304954  22.4737575  48.3161050   9.6432452  16.2824962  40.7038340
   8.7088731  16.4026424  40.5343044   9.8209121  15.3797428  40.4398350
  13.0305003  12.1242281  41.2388374  13.4965456  12.9570272  41.1648677
  13.4812504  11.6587262  41.9433633   2.9726839  20.1268152  49.9526619
   3.6736298  20.7604635  50.1056013   2.5021954  20.4682884  49.1922258
  11.0981235  18.4686102  38.2374526  11.3741078  18.3542697  39.1468400
  10.2285733  18.0703587  38.1986699  10.7728125  12.6812760  47.7779170
  10.1199575  12.9288667  47.1231622  11.1508505  11.8676898  47.4441647
   7.7335299  22.7172453  41.8807340   7.9157693  21.8994109  42.3435092
   8.5568285  22.9340145  41.4432230   8.0677464  21.6440638  39.1422388
   8.5965231  21.1333093  38.5292550   8.3305684  21.3283168  40.0067921
   6.8215698  13.4232571  54.2645207   6.1456335  13.3226700  54.9347582
   7.6443332  13.2671785  54.7281204   1.4233212  22.6955755  41.9020164
   0.7543587  23.1801882  41.4184204   1.2846082  22.9424975  42.8163543
   5.5638481  24.7299498  48.5002823   6.1156789  24.8931120  49.2651908
   5.9044674  25.3203936  47.8282847  10.4149355  19.5560756  54.3551477
  10.9589259  20.1690714  53.8606432   9.8336200  20.1140334  54.8718490
   8.7006868  22.6781474  45.4866505   8.5758007  21.8771214  44.9777450
   9.3585959  23.1727667  44.9980475  10.7641776  20.4790494  47.1146055
   9.8172112  20.3595845  47.0424382  11.1124549  19.5912992  47.1972316
   7.7688210  20.2743210  43.3150407   7.6213172  19.3459918  43.4957977
   8.5941703  20.2963301  42.8307482  11.3722331  21.0971769  44.4015280
  12.2968879  20.8914630  44.2639731  11.2037635  20.8488170  45.3104621
  11.1617648  21.6157436  39.7577371  11.3354525  21.0503859  39.0051224
  11.6546539  22.4158331  39.5756861  17.0157039  14.3793859  41.3767671
  17.4588185  13.6301185  40.9786794  16.1383549  14.3703996  40.9941403
  12.1492820  20.9324201  36.8574270  12.8443725  21.5530893  37.0761584
  12.4915970  20.0819552  37.1326647  14.0484243  18.3823906  38.3861600
  14.5735567  18.7211179  37.6610920  13.9606596  17.4470922  38.2024735
   5.7104292  22.2957980  50.5151477   6.0191418  22.0507127  51.3874177
   6.5079774  22.5004618  50.0270347   5.7324904  24.4495890  42.7456853
   5.2929894  23.9572268  43.4389710   6.4833021  23.9068857  42.5048929
   3.1798776  19.9933899  44.8179155   2.5578785  19.3304604  44.5181383
   3.8503643  20.0195031  44.1352803  13.7378149  19.0156810  53.6912798
  12.9473693  18.9980949  53.1517298  13.5011504  19.5545104  54.4461835
  13.8576024  15.8649276  51.0045527  13.9074029  15.6999284  51.9461050
  13.7489948  14.9976535  50.6143408   2.7412283  18.5437822  38.2937616
   2.8900403  19.2273286  37.6404288   3.5478727  18.5242912  38.8087071
  11.1479787  11.8480204  52.3204834  12.0489650  11.7086669  52.0288831
  11.2227761  12.0134659  53.2603011  15.3594221  18.2846218  51.2487548
  15.0679029  18.6476198  52.0851009  14.7466352  17.5713226  51.0700880
  16.5589903  15.8499098  43.7690119  17.3936795  16.2888902  43.9327679
  16.6949032  15.3737751  42.9498364  13.6081409  13.4078832  49.7167606
  14.0835531  13.6006479  48.9086458  12.6846975  13.4638018  49.4710990
   6.2407689  21.0385952  35.7649363   5.6681656  21.6576140  35.3119835
   6.8140482  21.5885314  36.2989285  12.3083078  10.2844593  47.9495912
  13.2600501  10.3842690  47.9708136  12.1386529   9.4922861  48.4593996
  10.3297458   7.3700176  48.1355313   9.7347390   7.6505188  47.4401801
  10.0447155   7.8594077  48.9072054   9.4604948  21.3223103  36.8957945
  10.3935622  21.2568664  37.0990821   9.3728161  22.1579369  36.4372478
  12.0892965  20.6388973  33.8561893  12.0106597  20.3048837  34.7497651
  12.9102632  21.1310741  33.8553365  14.7871156  13.5050712  47.0638212
  14.7547476  12.5666713  47.2497895  15.3971780  13.5834749  46.3304036
   6.6254487  12.3746765  33.1065416   7.5713592  12.2452973  33.1753834
   6.2468732  11.6361427  33.5834844  14.9365645  10.2961756  47.1096495
  14.4204693   9.5120212  46.9226424  15.8205593   9.9680472  47.2743014
  20.6047706  14.5666719  46.2044248  21.3351095  14.3052007  46.7651952
  19.9954652  13.8295441  46.2446316  18.6863003  12.7074582  46.8018700
  17.9596167  12.5730547  46.1935191  18.2710290  13.0151410  47.6075418
   6.5093180  16.4264511  54.5666073   7.4296189  16.6043110  54.7606119
   6.4742763  15.4820557  54.4145772   4.2414388  13.3395891  55.4156664
   3.7581469  14.1396251  55.6220553   4.3275327  13.3503835  54.4624108
   0.7587107  15.8001541  50.0195896   1.5779996  16.2945620  50.0430733
   1.0323915  14.8833509  49.9913463  10.5153703   8.1912294  39.3823851
   9.6279558   8.4761944  39.1644046  10.9307692   8.0306057  38.5351128
  13.8668239   8.2158815  43.0978191  14.6428630   8.7055267  43.3702807
  13.1416374   8.6416869  43.5550060  16.3040798   8.9286434  44.1552131
  16.8985289   8.6882170  43.4445439  16.3767382   8.2093564  44.7825667
   9.6596917  17.9556968  33.4771871  10.3632767  18.1606971  34.0929527
   8.9359566  18.5233730  33.7420955  10.4894727  13.7066830  39.5974141
  10.4329928  14.1635381  38.7581774  11.0423070  12.9457514  39.4196984
  14.2999533   9.4956561  40.4224261  14.0436467   9.0953197  41.2532469
  13.6752401  10.2100355  40.2974400  18.6111871  12.2352635  42.9295552
  18.0511429  12.3045824  43.7027114  18.0055374  12.0593619  42.2095049
   1.6807080  23.6689362  44.6813739   1.5639464  24.6134794  44.5792429
   0.8599526  23.3662923  45.0699538  11.5683614  18.3939498  35.5270331
  12.4029218  17.9620696  35.3447806  11.4067957  18.2221511  36.4547226
  11.2229506  14.8971611  36.8926671  11.1678310  14.7315882  35.9515115
  10.5975562  15.6047644  37.0488860   8.5375414  17.2020523  56.2180233
   9.4066573  17.3761175  55.8566868   8.0582165  18.0214940  56.0955963
   2.7061594  24.3217624  47.8969667   3.6088841  24.3541234  48.2136162
   2.4798964  23.3918075  47.9116003   4.4615196  23.0748610  44.5579746
   3.5110827  23.0750472  44.4444118   4.7647682  22.3281345  44.0415780
  12.8644411  30.7172053  41.5483924  12.3009276  30.6261990  40.7800211
  12.7496806  29.8971958  42.0286416  17.4877379  30.0171428  51.5173238
  17.4766019  29.6224227  50.6453742  17.6498018  29.2837501  52.1107010
  10.4108843  32.2123245  44.3868144  11.2030135  31.8714069  43.9714444
  10.6505493  32.3218220  45.3070298  18.4443970  34.3843021  36.8598389
  17.7931950  34.9697101  36.4732402  19.2388333  34.9149216  36.9193426
  12.3699597  31.4732158  37.2585523  13.1430473  30.9261145  37.1198399
  12.7224996  32.3376407  37.4699984  14.2084640  32.8008540  50.4652422
  13.9174506  33.7054171  50.3499089  14.8441624  32.8425068  51.1796492
  15.1340847  30.1785389  47.0553782  15.7304419  29.9541411  46.3410745
  15.1915818  29.4370134  47.6579230  14.7065875  27.6324824  34.8903973
  14.9591396  27.1106345  34.1287436  13.7690434  27.4690970  34.9930657
  14.4262164  29.5352930  37.0928348  14.3098422  28.8597833  37.7609432
  14.5364424  29.0485304  36.2760501  16.7693705  28.9963077  40.7975037
  16.4051912  28.4693698  41.5087959  17.6260821  28.6061546  40.6241523
  22.6743005  20.2857410  48.0606303  22.3426330  21.1552821  47.8367518
  22.0788619  19.9693694  48.7400334  16.4099192  24.0252977  35.7936386
  16.5773594  24.8933213  36.1606857  16.2196361  24.1880259  34.8697675
  12.6187006  28.9383753  43.4938920  11.6937503  28.8059967  43.7016612
  12.8671419  29.7177972  43.9908863  16.3888413  26.4810634  36.7783052
  16.2688038  26.9267685  37.6168533  15.6941001  26.8295952  36.2196591
   9.9795817  28.5817026  44.3282709  10.1088198  28.8351505  45.2422121
   9.2993269  29.1744734  44.0087365  14.1495305  39.2514276  40.4273184
  14.0719334  40.2022101  40.5061664  13.5456948  38.9060149  41.0848110
  16.6412534  26.4242142  53.0834551  15.8645868  26.9836062  53.0737415
  17.2803097  26.9098925  53.6049421  14.8958907  29.2327595  52.6452518
  15.6373591  29.7712639  52.3687341  14.1895892  29.8593884  52.8024069
  16.7245316  26.3129342  48.6158236  17.5706512  26.7368756  48.7592885
  16.6643954  25.6562966  49.3096799  19.8744762  23.9733711  50.2739410
  19.6305694  24.7275771  49.7373685  20.1504692  24.3519058  51.1086657
  19.4309453  23.1290144  45.8553247  18.5693932  23.4271397  46.1469985
  19.4571888  23.3460542  44.9234280  16.2471023  31.6732334  42.2627053
  16.7109368  31.9520037  41.4731676  15.9827821  30.7715779  42.0800144
  13.1395104  31.2203816  45.2006816  13.7096461  31.6491084  44.5624301
  13.7303216  30.9386400  45.8991002  15.1839909  27.7955486  39.0716618
  15.8863952  28.2476530  39.5390545  14.8520537  27.1539305  39.6996511
  13.6320270  26.3867243  53.4467828  13.0018931  27.0683524  53.6803224
  13.5256358  26.2750325  52.5020966   8.9265243  26.0539039  44.3733752
   8.1364297  26.3096568  43.8973862   9.4176490  26.8687377  44.4785792
  10.8779988  26.4183618  41.3317228  10.0811152  26.5302313  41.8500724
  10.6505580  26.7570271  40.4658119  16.7085656  32.9428322  49.2799743
  16.7730088  33.4048729  50.1157915  15.9996580  32.3125687  49.4082053
   7.2102946  26.3069530  46.8048743   7.4610984  27.1916540  47.0706318
   7.7462494  26.1274131  46.0323834  16.4233674  34.6096429  39.1478723
  16.2879348  35.4547965  39.5763571  16.9643486  34.8115707  38.3844657
  12.9101013  20.6888009  55.8093079  12.5167959  20.1354208  56.4840723
  13.7267153  20.9998587  56.1999596   9.8763071  32.1271867  39.7206648
  10.3887591  32.9215117  39.8712213  10.5285784  31.4298158  39.6540250
  11.6857956  35.2437623  41.8029402  11.8624584  36.1655588  41.6150386
  12.4814789  34.9296043  42.2323781  15.8268974  22.1045888  53.4013335
  16.5678688  22.7053041  53.3217798  16.0586897  21.3623526  52.8431378
  10.9710312  27.2902255  51.6791565  10.8563827  26.3887513  51.9798664
  10.1154830  27.5365952  51.3276381  18.0502150  35.2319996  53.2779065
  17.6066004  34.4456374  52.9599970  18.7119363  35.4199146  52.6122956
  12.8089271  36.7615797  47.8039744  13.3596696  36.6332861  47.0316738
  11.9700747  37.0610686  47.4534637  20.1483388  35.5122796  51.3060467
  20.1301863  36.3331677  50.8140736  21.0703308  35.3876871  51.5310608
  16.6056442  33.0266925  52.1483975  17.1384779  32.2655213  51.9183283
  16.0770523  32.7340577  52.8908130  19.7726137  18.1326991  47.6777617
  19.4290406  19.0228633  47.6016727  20.1405100  17.9428649  46.8147202
   7.8411988  30.4560521  40.4966219   8.6787210  30.8657530  40.2799927
   8.0190255  29.5159964  40.4666413  19.7376420  28.1235602  36.1850052
  19.2223043  28.8940207  36.4238439  19.4653728  27.4500738  36.8083113
  17.3223531  22.9685303  41.2435290  16.4665127  22.5792153  41.0640929
  17.7350483  23.0477264  40.3835076  18.8522677  20.5031646  45.6426850
  18.3487473  20.4661781  44.8294655  19.1453284  21.4124389  45.7023507
  15.0965563  20.5870376  44.6493032  15.9618560  20.3913185  44.2898921
  15.1643072  20.3580728  45.5762389  19.5262723  25.9962694  38.0109833
  19.2212859  26.3108843  38.8619976  20.4793165  26.0744114  38.0537166
  17.9709155  32.1552918  39.6602787  17.4430516  31.4205677  39.3476025
  17.4696658  32.9327594  39.4142755  12.7027882  22.8172584  42.0209399
  13.2771634  22.5947765  41.2882592  13.2898865  22.8861278  42.7738000
  13.0297470  24.8477045  36.0405284  12.1934782  25.1851731  36.3614559
  12.8902239  24.7126025  35.1032421  15.0050550  19.6913833  40.7484468
  14.3514962  19.3762850  40.1241083  14.9631024  19.0689573  41.4744291
  16.1161755  29.9733128  32.6637760  15.2088817  29.7422381  32.8628909
  16.6132787  29.1770747  32.8511742  19.0229834  38.6830635  35.5834446
  18.3491533  38.9862332  36.1919404  19.4095656  39.4859715  35.2339903
  18.2388291  26.1795766  45.0732116  17.3210852  26.4010713  44.9153804
  18.6548434  26.2542077  44.2143823  17.2949988  30.0745723  37.1861750
  16.3861208  29.7904755  37.2834220  17.3245072  30.4944801  36.3265057
  21.5713803  17.3920550  42.7795355  21.8772680  16.5317914  42.4921270
  22.2966408  17.9838170  42.5794348   7.8638159  27.7951237  41.1676952
   7.6662559  27.2020597  40.4428019   7.3084823  27.4903447  41.8852891
  15.8434882  27.6874343  43.2871546  15.8983492  26.7348180  43.2114022
  15.0326085  27.8433782  43.7712844  16.9926076  31.6154466  34.5249829
  16.5545506  30.8990325  34.0655466  17.7336517  31.8430581  33.9634920
  13.7827242  26.3051403  41.0461924  12.9695108  26.6045574  41.4527117
  14.2786237  25.9107092  41.7636407  15.9335820  36.3009160  42.9796189
  15.8911999  36.5270006  42.0504721  16.8498519  36.0672534  43.1281990
  19.3801454  26.7693227  49.8776818  19.7350842  26.9964701  50.7371284
  20.0273585  27.1011604  49.2554074  13.2741317  23.8769759  46.6623159
  13.9140696  23.7358518  45.9646123  12.4418848  23.5904272  46.2861761
  14.0501621  33.1772189  42.7758152  14.8442220  32.6822509  42.5740727
  13.3393313  32.6490052  42.4125857  18.8696466  35.5590284  47.1270520
  18.9233488  36.1281221  47.8948235  18.0011247  35.7292169  46.7624557
  10.3584385  27.3215271  38.8517905   9.4281973  27.2599726  39.0687867
  10.4541857  26.7991223  38.0554546  10.2769934  23.8470083  41.4396146
  10.5376751  24.7615417  41.3305307  11.0987106  23.3794526  41.5892759
  11.7494859  25.2607841  48.6094971  12.4217912  25.0525203  47.9607620
  10.9224645  25.0629927  48.1700203  17.6520431  21.8869782  50.6260632
  17.0048346  22.5859731  50.5325108  18.4221446  22.3205926  50.9936880
  16.6272897  33.7501211  46.4555989  16.4883983  33.3819995  47.3281927
  15.8387493  34.2648850  46.2839947  17.2221049  38.8510307  37.7981526
  17.3972805  38.3798351  38.6127148  16.5353837  39.4776074  38.0262786
  18.1778112  33.1282814  43.8444827  17.8427945  33.0883584  44.7402477
  17.6782058  32.4627530  43.3715237  12.1522356  28.5350444  49.3697408
  12.0142154  27.8030682  49.9708947  13.0627280  28.4459344  49.0881596
  14.7804657  28.2470403  48.8581088  15.4904275  27.6063595  48.8167706
  14.7373965  28.4983298  49.7807268  13.4933591  25.2335621  50.6776727
  12.9570948  24.7826359  51.3298323  12.9050299  25.3681530  49.9347191
  11.7882134  41.9999670  44.5721386  12.0278733  42.6318194  45.2500404
  10.9451331  41.6487710  44.8586745  12.9035850  24.6924272  33.2403191
  12.0265316  24.5713073  32.8765437  13.3793603  23.9010351  32.9882079
   4.4237990  29.4801432  43.3344698   5.1109030  29.1663162  42.7465713
   4.2686119  30.3842797  43.0611949   9.2272712  24.3691629  47.7629722
   9.1430901  23.7617298  47.0280131   8.4055418  24.8600647  47.7639218
  16.3009996  37.8078793  46.9762890  16.2280168  38.6133764  47.4882194
  15.8587389  38.0070758  46.1510911  16.0899776  37.0450563  40.4865711
  15.3067298  37.5872243  40.5803936  16.7892521  37.5624542  40.8859952
  19.3996426  22.8545192  43.1299917  19.8965125  22.1015154  42.8100987
  18.6283407  22.8909509  42.5643126  18.7608680  37.7065627  49.1321048
  19.4736652  38.3413091  49.0596950  18.2698708  37.8029493  48.3161050
  15.9831395  24.9962575  42.8571601  15.6129182  24.4433615  43.5452507
  16.4790487  24.3920709  42.3046601  13.8120593  35.4560070  49.9526619
  14.5130053  36.0896553  50.1056013  13.3415708  35.7974802  49.1922258
  21.8415421  19.8214786  45.2779275  20.9278501  20.0519012  45.4461482
  22.2708522  19.9053230  46.1293308  18.5729053  38.0464371  41.8807340
  18.7551448  37.2286027  42.3435092  19.3962039  38.2632063  41.4432230
  18.9071219  36.9732556  39.1422388  19.4358985  36.4625010  38.5292550
  19.1699438  36.6575086  40.0067921  17.6609452  28.7524489  54.2645207
  16.9850089  28.6518618  54.9347582  18.4837086  28.5963702  54.7281204
   9.4088311  34.9896425  46.8857722   9.9941748  34.2440113  47.0185626
   9.2113150  35.3000382  47.7694386  12.2626967  38.0247673  41.9020164
  11.5937342  38.5093800  41.4184204  12.1239836  38.2716893  42.8163543
   4.0005966  27.5602025  45.6062165   4.0390066  27.0265616  46.3999283
   3.4946259  27.0337231  44.9873142  16.4032235  40.0591416  48.5002823
  16.9550543  40.2223038  49.2651908  16.7438429  40.6495854  47.8282847
  11.3796728  22.4066566  49.1024707  11.4438055  23.2681397  48.6902105
  11.3163849  21.7940567  48.3697066  10.8549001  24.4789698  52.7497742
  11.4821040  24.0966776  53.3635266   9.9976920  24.2603900  53.1153434
  21.2543109  34.8852674  54.3551477  21.7983013  35.4982632  53.8606432
  20.6729954  35.4432252  54.8718490   7.6314544  26.2866127  38.6816096
   7.9267985  25.3776806  38.6283150   6.7302579  26.2653867  38.3597099
  19.5400622  38.0073392  45.4866505  19.4151762  37.2063131  44.9777450
  20.1979713  38.5019585  44.9980475  11.1608791  24.3622124  44.6643645
  10.4395376  24.9758092  44.5251118  11.9502046  24.8979889  44.5860291
  13.9635104  21.6976551  50.9384297  14.4869506  21.9438847  51.7010606
  13.7447437  22.5296585  50.5187434   9.3602385  23.9680225  38.8055422
   9.0315091  23.0877604  38.6230527   9.7141756  23.9127894  39.6931811
  18.6081964  35.6035128  43.3150407  18.4606926  34.6751835  43.4957977
  19.4335458  35.6255219  42.8307482  12.4744208  24.2553195  39.1730899
  12.8140281  24.7839116  38.4509508  12.9216329  24.5933601  39.9489466
  15.1687649  22.6390246  48.6233967  14.8284470  21.8398059  49.0254647
  14.4626655  22.9391957  48.0510800  15.8204121  19.7239558  47.0761290
  16.6430190  19.2500036  46.9540181  16.0642185  20.5030042  47.5759977
  14.4612355  22.7527817  37.3724192  15.1820718  23.1309069  36.8687909
  13.8377660  23.4716693  37.4759170  18.6043478  23.4572966  38.3082524
  18.8207093  24.3397603  38.0071352  18.1237546  23.0659179  37.5788166
  13.3442700  26.4158679  44.8853269  13.1987280  26.7298982  45.7777550
  12.8667903  27.0343579  44.3324168  15.2039083  23.4061227  44.9334158
  15.1900651  22.5102320  44.5966456  15.9211511  23.4131890  45.5672444
  17.0565213  23.8398567  46.9787286  16.7982991  24.7615638  46.9771616
  16.5250254  23.4429001  47.6687750   7.8188362  28.9564023  47.8240930
   7.2741830  29.7323831  47.9561204   8.6967712  29.3034828  47.6660052
  14.6075979  22.2875607  40.2021729  14.7291890  21.3592253  40.4012616
  14.3178021  22.3014293  39.2900044  17.4767169  19.9730517  43.3388448
  17.4988866  20.0369851  42.3840428  17.8935228  19.1335026  43.5328955
   8.6054384  28.0833919  50.7171087   7.8636120  28.2316555  51.3035717
   8.2847128  28.3442185  49.8537836  16.5498046  37.6249898  50.5151477
  16.8585173  37.3799044  51.3874177  17.3473528  37.8296536  50.0270347
  16.5718658  39.7787807  42.7456853  16.1323649  39.2864186  43.4389710
  17.3226775  39.2360775  42.5048929   9.0510997  35.9699348  42.7481482
   9.8769017  35.6703120  42.3680125   8.7005049  35.2006971  43.1971270
  14.0192531  35.3225816  44.8179155  13.3972540  34.6596521  44.5181383
  14.6897398  35.3486948  44.1352803   7.2519603  33.8885675  43.7070415
   6.4151511  33.4607849  43.5254416   7.2243248  34.0818118  44.6441206
  14.0917058  23.8007604  54.4111661  14.1405214  24.6769727  54.0289431
  14.6339572  23.2584997  53.8383304  13.5806038  33.8729740  38.2937616
  13.7294158  34.5565204  37.6404288  14.3872481  33.8534830  38.8087071
  16.3216347  24.5538977  51.1658020  15.4519656  24.8472543  50.8940608
  16.5575827  25.1379422  51.8865283  11.3358671  29.8994917  39.2998685
  11.0904712  28.9957247  39.4978895  11.5054585  29.9012068  38.3578163
  19.0255380  20.7718594  48.6823440  19.5437324  21.5079621  48.3569929
  18.6710513  21.0782587  49.5170199  10.6054318  25.6323275  36.7984846
   9.9123563  25.7067630  36.1424882  10.3606070  24.8683619  37.3206363
  19.2767975  17.1918876  44.2024337  19.5569728  16.5242065  44.8284763
  20.0618581  17.3847972  43.6899001  17.0801443  36.3677870  35.7649363
  16.5075410  36.9868057  35.3119835  17.6534237  36.9177232  36.2989285
  20.2998703  36.6515020  36.8957945  21.2329376  36.5860582  37.0990821
  20.2121916  37.4871287  36.4372478  17.4648242  27.7038683  33.1065416
  18.4107346  27.5744891  33.1753834  17.0862487  26.9653345  33.5834844
  23.4370126  19.3694689  43.0692307  23.2394947  19.0609777  43.9535639
  24.0469832  20.0956328  43.1990237  17.3486934  31.7556429  54.5666073
  18.2689944  31.9335028  54.7606119  17.3136517  30.8112474  54.4145772
  15.6491159  25.6288659  33.0420301  14.7422614  25.3321772  33.1183014
  15.9267140  25.3318477  32.1754587   6.5669099  26.9495023  43.4919347
   6.2471883  26.0960331  43.1993721   6.0202527  27.1643601  44.2477315
  10.3449007  29.6657464  47.2088854  10.5635016  30.5974571  47.2276888
  10.7574780  29.3065438  47.9943658  17.2653224  20.1725549  39.1964542
  16.4553953  19.8272634  39.5719788  17.9537641  19.8633093  39.7852154
  19.1943773  19.2503596  40.8188839  19.7474811  19.6699049  41.4778862
  19.4313859  18.3239344  40.8611795  15.2176872  25.2390669  56.5991603
  15.1173599  26.1885026  56.5303694  14.9998414  24.9108908  55.7267673
  14.4189943  22.4875594  33.1832280  15.2809107  22.8130493  33.4428097
  14.6040287  21.7007090  32.6705346   6.4357359  30.5697934  45.4612469
   5.7420831  30.1551887  44.9482423   7.1830350  30.6118471  44.8645888
  22.5722580  21.3604121  40.3267503  21.9921249  22.0188925  39.9445555
  22.3058513  20.5381466  39.9154921  21.0226146  20.7609179  42.5288823
  21.5225925  20.8725713  41.7203142  21.6661754  20.4570232  43.1689632
  15.0808142  28.6687808  55.4156664  14.5975224  29.4688168  55.6220553
  15.1669081  28.6795753  54.4624108   8.3494102  30.5016188  43.3378484
   8.3264790  30.6003875  42.3860367   8.6594738  31.3481339  43.6595650
  11.0081480  32.5592343  47.4525098  11.9624733  32.5276285  47.3855030
  10.8094003  32.0982967  48.2675324  11.5980862  31.1293459  50.0195896
  12.4173751  31.6237538  50.0430733  11.8717669  30.2125427  49.9913463
  21.3547458  23.5204211  39.3823851  20.4673313  23.8053862  39.1644046
  21.7701447  23.3597975  38.5351128   9.3631708  38.1011962  44.4695296
   9.2286176  37.3412363  43.9033294   8.9463771  38.8252862  44.0024085
  20.4990671  33.2848886  33.4771871  21.2026521  33.4898889  34.0929527
  19.7753320  33.8525648  33.7420955  12.5200834  38.9981279  44.6813739
  12.4033218  39.9426712  44.5792429  11.6993280  38.6954841  45.0699538
   6.8515776  25.4631593  50.7188093   7.4974639  24.9530547  51.2075318
   6.6432927  26.2000275  51.2931518  19.3769168  32.5312440  56.2180233
  20.2460328  32.7053093  55.8566868  18.8975920  33.3506857  56.0955963
  15.3719386  19.7271638  36.4711989  15.3598056  20.6713477  36.6280260
  16.2642808  19.5441783  36.1771450  13.5455348  39.6509541  47.8969667
  14.4482595  39.6833152  48.2136162  13.3192718  38.7209992  47.9116003
  15.3008950  38.4040528  44.5579746  14.3504581  38.4042390  44.4444118
  15.6041436  37.6573263  44.0415780  19.1871506  16.3214414  40.7257926
  18.4203902  15.7672901  40.8714608  19.5982211  16.3936283  41.5872077
  11.1913267  22.6099210  54.8163107  12.0544728  22.2536015  55.0266432
  10.6178678  22.2713105  55.5038511  23.7038166  46.0463971  41.5483924
  23.1403031  45.9553908  40.7800211  23.5890561  45.2263875  42.0286416
  21.2502598  47.5415162  44.3868144  22.0423890  47.2005987  43.9714444
  21.4899248  47.6510137  45.3070298  29.2837725  49.7134939  36.8598389
  28.6325704  50.2989019  36.4732402  30.0782087  50.2441133  36.9193426
  23.2093352  46.8024076  37.2585523  23.9824228  46.2553063  37.1198399
  23.5618751  47.6668325  37.4699984  25.0478394  48.1300458  50.4652422
  24.7568260  49.0346089  50.3499089  25.6835379  48.1716986  51.1796492
  25.5459629  42.9616742  34.8903973  25.7985150  42.4398263  34.1287436
  24.6084189  42.7982887  34.9930657  30.7612990  47.4025370  37.3967373
  30.1258823  47.4759997  38.1088278  30.4310396  47.9918969  36.7186452
  25.2655918  44.8644848  37.0928348  25.1492176  44.1889751  37.7609432
  25.3758178  44.3777222  36.2760501  20.8189572  43.9108944  44.3282709
  20.9481953  44.1643423  45.2422121  20.1387023  44.5036652  44.0087365
  24.9889059  54.5806194  40.4273184  24.9113089  55.5314019  40.5061664
  24.3850703  54.2352066  41.0848110  25.7352661  44.5619513  52.6452518
  26.4767346  45.1004557  52.3687341  25.0289647  45.1885801  52.8024069
  31.5336815  47.2649844  44.9976968  30.9045678  47.4295558  44.2953036
  31.1462478  47.6791453  45.7687932  27.0864777  47.0024252  42.2627053
  27.5503123  47.2811955  41.4731676  26.8221575  46.1007696  42.0800144
  23.9788858  46.5495733  45.2006816  24.5490215  46.9783002  44.5624301
  24.5696970  46.2678318  45.8991002  24.4714025  41.7159161  53.4467828
  23.8412685  42.3975442  53.6803224  24.3650113  41.6042242  52.5020966
  19.7658997  41.3830957  44.3733752  18.9758051  41.6388485  43.8973862
  20.2570245  42.1979295  44.4785792  27.5479410  48.2720239  49.2799743
  27.6123843  48.7340647  50.1157915  26.8390334  47.6417604  49.4082053
  18.0496700  41.6361447  46.8048743  18.3004739  42.5208457  47.0706318
  18.5856249  41.4566049  46.0323834  27.2627428  49.9388347  39.1478723
  27.1273103  50.7839883  39.5763571  27.8037241  50.1407624  38.3844657
  23.7494768  36.0179927  55.8093079  23.3561713  35.4646125  56.4840723
  24.5660908  36.3290505  56.1999596  20.7156825  47.4563785  39.7206648
  21.2281346  48.2507035  39.8712213  21.3679538  46.7590075  39.6540250
  22.5251710  50.5729541  41.8029402  22.7018338  51.4947506  41.6150386
  23.3208544  50.2587960  42.2323781  21.8104067  42.6194173  51.6791565
  21.6957582  41.7179430  51.9798664  20.9548584  42.8657870  51.3276381
  23.6483026  52.0907715  47.8039744  24.1990451  51.9624778  47.0316738
  22.8094501  52.3902604  47.4534637  27.4450197  48.3558843  52.1483975
  27.9778533  47.5947131  51.9183283  26.9164278  48.0632495  52.8908130
  18.6805742  45.7852439  40.4966219  19.5180964  46.1949447  40.2799927
  18.8584010  44.8451881  40.4666413  28.8102909  47.4844835  39.6602787
  28.2824271  46.7497595  39.3476025  28.3090412  48.2619512  39.4142755
  23.8691224  40.1768962  36.0405284  23.0328536  40.5143649  36.3614559
  23.7295994  40.0417942  35.1032421  26.9555509  45.3025045  32.6637760
  26.0482571  45.0714299  32.8628909  27.4526541  44.5062665  32.8511742
  29.8623588  54.0122553  35.5834446  29.1885287  54.3154249  36.1919404
  30.2489410  54.8151633  35.2339903  28.1343743  45.4037640  37.1861750
  27.2254962  45.1196673  37.2834220  28.1638827  45.8236719  36.3265057
  18.7031913  43.1243154  41.1676952  18.5056313  42.5312515  40.4428019
  18.1478577  42.8195365  41.8852891  27.8319831  46.9446384  34.5249829
  27.3939261  46.2282243  34.0655466  28.5730272  47.1722499  33.9634920
  26.7729575  51.6301078  42.9796189  26.7305754  51.8561924  42.0504721
  27.6892274  51.3964452  43.1281990  24.8895376  48.5064107  42.7758152
  25.6835974  48.0114427  42.5740727  24.1787068  47.9781970  42.4125857
  21.1978139  42.6507188  38.8517905  20.2675727  42.5891644  39.0687867
  21.2935611  42.1283141  38.0554546  22.5888613  40.5899758  48.6094971
  23.2611667  40.3817120  47.9607620  21.7618400  40.3921844  48.1700203
  28.6678320  45.0542464  48.6857451  29.5970380  45.2053624  48.5126419
  28.2469350  45.1426485  47.8306098  27.4666652  49.0793129  46.4555989
  27.3277737  48.7111913  47.3281927  26.6781248  49.5940768  46.2839947
  28.0614804  54.1802225  37.7981526  28.2366559  53.7090268  38.6127148
  27.3747592  54.8067991  38.0262786  29.0171867  48.4574731  43.8444827
  28.6821699  48.4175501  44.7402477  28.5175812  47.7919447  43.3715237
  22.9916111  43.8642361  49.3697408  22.8535909  43.1322600  49.9708947
  23.9021034  43.7751261  49.0881596  31.9531058  45.8030766  34.1181886
  31.3360229  45.0777594  34.0214939  31.4847547  46.5640126  33.7748961
  24.3327345  40.5627539  50.6776727  23.7964702  40.1118277  51.3298323
  23.7444054  40.6973447  49.9347191  22.6275889  57.3291588  44.5721386
  22.8672487  57.9610112  45.2500404  21.7845085  56.9779628  44.8586745
  23.7429604  40.0216190  33.2403191  22.8659071  39.9004991  32.8765437
  24.2187357  39.2302268  32.9882079  15.2631744  44.8093350  43.3344698
  15.9502784  44.4955080  42.7465713  15.1079873  45.7134714  43.0611949
  20.0666467  39.6983546  47.7629722  19.9824655  39.0909216  47.0280131
  19.2449173  40.1892565  47.7639218  27.1403751  53.1370710  46.9762890
  27.0673922  53.9425682  47.4882194  26.6981144  53.3362676  46.1510911
  26.9293530  52.3742480  40.4865711  26.1461052  52.9164160  40.5803936
  27.6286275  52.8916460  40.8859952  24.6514348  50.7851988  49.9526619
  25.3523807  51.4188471  50.1056013  24.1809463  51.1266719  49.1922258
  29.4122808  53.3756288  41.8807340  29.5945202  52.5577944  42.3435092
  30.2355794  53.5923981  41.4432230  29.7464973  52.3024474  39.1422388
  30.2752739  51.7916928  38.5292550  30.0093193  51.9867004  40.0067921
  20.2482066  50.3188343  46.8857722  20.8335503  49.5732031  47.0185626
  20.0506904  50.6292300  47.7694386  23.1020721  53.3539590  41.9020164
  22.4331096  53.8385718  41.4184204  22.9633591  53.6008811  42.8163543
  14.8399721  42.8893943  45.6062165  14.8783820  42.3557534  46.3999283
  14.3340013  42.3629149  44.9873142  27.2425990  55.3883334  48.5002823
  27.7944298  55.5514955  49.2651908  27.5832183  55.9787772  47.8282847
  21.6942755  39.8081616  52.7497742  22.3214794  39.4258693  53.3635266
  20.8370674  39.5895818  53.1153434  18.4708298  41.6158045  38.6816096
  18.7661739  40.7068724  38.6283150  17.5696334  41.5945785  38.3597099
  20.1996140  39.2972143  38.8055422  19.8708846  38.4169522  38.6230527
  20.5535510  39.2419812  39.6931811  18.6582116  44.2855941  47.8240930
  18.1135584  45.0615749  47.9561204  19.5361466  44.6326745  47.6660052
  33.8280329  51.5908036  36.8574270  34.5231234  52.2114729  37.0761584
  34.1703479  50.7403387  37.1326647  19.4448138  43.4125837  50.7171087
  18.7029874  43.5608472  51.3035717  19.1240883  43.6734103  49.8537836
  27.4112413  55.1079725  42.7456853  26.9717403  54.6156104  43.4389710
  28.1620530  54.5652693  42.5048929  19.8904752  51.2991266  42.7481482
  20.7162772  50.9995038  42.3680125  19.5398804  50.5298888  43.1971270
  24.8586285  50.6517734  44.8179155  24.2366294  49.9888439  44.5181383
  25.5291152  50.6778866  44.1352803  18.0913357  49.2177592  43.7070415
  17.2545265  48.7899767  43.5254416  18.0637002  49.4110036  44.6441206
  24.4199792  49.2021657  38.2937616  24.5687912  49.8857122  37.6404288
  25.2266235  49.1826747  38.8087071  22.1752425  45.2286835  39.2998685
  21.9298467  44.3249165  39.4978895  22.3448340  45.2303985  38.3578163
  21.4448073  40.9615193  36.7984846  20.7517317  41.0359548  36.1424882
  21.1999824  40.1975536  37.3206363  27.9195198  51.6969788  35.7649363
  27.3469165  52.3159975  35.3119835  28.4927991  52.2469150  36.2989285
  31.1392457  51.9806938  36.8957945  32.0723130  51.9152500  37.0990821
  31.0515670  52.8163205  36.4372478  33.7680474  51.2972808  33.8561893
  33.6894106  50.9632672  34.7497651  34.5890141  51.7894576  33.8553365
  17.4062854  42.2786940  43.4919347  17.0865638  41.4252249  43.1993721
  16.8596282  42.4935519  44.2477315  21.1842761  44.9949381  47.2088854
  21.4028771  45.9266489  47.2276888  21.5968535  44.6357356  47.9943658
  26.0570626  40.5682587  56.5991603  25.9567353  41.5176944  56.5303694
  25.8392168  40.2400826  55.7267673  17.2751114  45.8989852  45.4612469
  16.5814585  45.4843805  44.9482423  18.0224105  45.9410388  44.8645888
  25.9201897  43.9979726  55.4156664  25.4368978  44.7980086  55.6220553
  26.0062836  44.0087671  54.4624108  19.1887856  45.8308106  43.3378484
  19.1658544  45.9295793  42.3860367  19.4988493  46.6773256  43.6595650
  21.8475234  47.8884261  47.4525098  22.8018488  47.8568203  47.3855030
  21.6487758  47.4274884  48.2675324  22.4374616  46.4585377  50.0195896
  23.2567505  46.9529455  50.0430733  22.7111424  45.5417345  49.9913463
  20.2025463  53.4303880  44.4695296  20.0679931  52.6704281  43.9033294
  19.7857525  54.1544780  44.0024085  31.3384426  48.6140804  33.4771871
  32.0420276  48.8190806  34.0929527  30.6147075  49.1817566  33.7420955
  23.3594589  54.3273197  44.6813739  23.2426973  55.2718630  44.5792429
  22.5387035  54.0246759  45.0699538  33.2471123  49.0523333  35.5270331
  34.0816727  48.6204531  35.3447806  33.0855466  48.8805347  36.4547226
  17.6909530  40.7923511  50.7188093  18.3368394  40.2822465  51.2075318
  17.4826681  41.5292192  51.2931518  24.3849103  54.9801459  47.8969667
  25.2876349  55.0125069  48.2136162  24.1586473  54.0501910  47.9116003
  26.1402705  53.7332446  44.5579746  25.1898336  53.7334307  44.4444118
  26.4435191  52.9865180  44.0415780  22.0307021  37.9391128  54.8163107
  22.8938483  37.5827932  55.0266432  21.4572432  37.6005022  55.5038511
  34.0487106  62.1315993  37.2585523  34.8217982  61.5844980  37.1198399
  34.4012505  62.9960243  37.4699984  29.5199497  61.1144357  40.4966219
  30.3574719  61.5241365  40.2799927  29.6977764  60.1743799  40.4666413
  38.9008558  69.5094143  37.7981526  39.0760314  69.0382186  38.6127148
  38.2141346  70.1359909  38.0262786  33.4669643  72.6583505  44.5721386
  33.7066242  73.2902030  45.2500404  32.6238840  72.3071546  44.8586745
  34.5823359  55.3508108  33.2403191  33.7052825  55.2296908  32.8765437
  35.0581112  54.5594186  32.9882079  26.1025499  60.1385267  43.3344698
  26.7896539  59.8246997  42.7465713  25.9473628  61.0426632  43.0611949
  25.6793475  58.2185861  45.6062165  25.7177575  57.6849451  46.3999283
  25.1733768  57.6921066  44.9873142  38.0819744  70.7175251  48.5002823
  38.6338052  70.8806873  49.2651908  38.4225938  71.3079689  47.8282847
  29.3102053  56.9449963  38.6816096  29.6055494  56.0360641  38.6283150
  28.4090088  56.9237702  38.3597099  31.0389894  54.6264061  38.8055422
  30.7102600  53.7461439  38.6230527  31.3929265  54.5711729  39.6931811
  28.9307111  64.5469510  43.7070415  28.0939020  64.1191684  43.5254416
  28.9030757  64.7401953  44.6441206  36.0977452  53.1459430  33.1832280
  36.9596616  53.4714328  33.4428097  36.2827796  52.3590926  32.6705346
  35.2242857  70.3093377  47.8969667  36.1270104  70.3416987  48.2136162
  34.9980227  69.3793828  47.9116003  45.3825675  76.7047806  41.5483924
  44.8190540  76.6137743  40.7800211  45.2678070  75.8847711  42.0286416
  50.0058642  76.0047182  51.5173238  49.9947283  75.6099980  50.6453742
  50.1679282  75.2713254  52.1107010  42.9290107  78.1998998  44.3868144
  43.7211399  77.8589822  43.9714444  43.1686757  78.3093973  45.3070298
  50.9625233  80.3718774  36.8598389  50.3113213  80.9572854  36.4732402
  51.7569596  80.9024969  36.9193426  44.8880861  77.4607911  37.2585523
  45.6611737  76.9136898  37.1198399  45.2406259  78.3252160  37.4699984
  46.7265903  78.7884293  50.4652422  46.4355769  79.6929924  50.3499089
  47.3622888  78.8300821  51.1796492  47.6522110  76.1661142  47.0553782
  48.2485682  75.9417164  46.3410745  47.7097082  75.4245887  47.6579230
  47.2247138  73.6200577  34.8903973  47.4772659  73.0982098  34.1287436
  46.2871698  73.4566723  34.9930657  52.4400499  78.0609206  37.3967373
  51.8046332  78.1343832  38.1088278  52.1097905  78.6502805  36.7186452
  57.6698848  72.5611589  43.6011695  58.4024020  71.9910806  43.8349524
  56.9138204  72.1733189  44.0418200  46.9443427  75.5228683  37.0928348
  46.8279685  74.8473586  37.7609432  47.0545687  75.0361057  36.2760501
  48.9280455  70.0128730  35.7936386  49.0954857  70.8808966  36.1606857
  48.7377624  70.1756012  34.8697675  51.6855788  78.4745709  47.4602216
  51.3856511  79.3770748  47.3518023  51.3406848  78.2077892  48.3123369
  48.9069676  72.4686387  36.7783052  48.7869301  72.9143438  37.6168533
  48.2122264  72.8171705  36.2196591  42.4977081  74.5692779  44.3282709
  42.6269462  74.8227258  45.2422121  41.8174532  75.1620487  44.0087365
  46.6676568  85.2390029  40.4273184  46.5900598  86.1897854  40.5061664
  46.0638212  84.8935902  41.0848110  47.4140170  75.2203348  52.6452518
  48.1554855  75.7588392  52.3687341  46.7077156  75.8469637  52.8024069
  52.8895510  77.3632488  51.2424679  53.2978866  76.9214899  50.4979311
  52.1672771  76.7885116  51.4958872  53.2124324  77.9233679  44.9976968
  52.5833187  78.0879393  44.2953036  52.8249987  78.3375289  45.7687932
  57.0913556  78.8588117  42.3521332  56.4064594  79.2387018  41.8018365
  57.1757406  79.4683444  43.0853279  54.3464488  76.5048076  48.9516675
  54.5581383  77.1479836  48.2751056  54.2994236  75.6710392  48.4838605
  45.6576367  77.2079569  45.2006816  46.2277724  77.6366837  44.5624301
  46.2484479  76.9262153  45.8991002  41.4446506  72.0414792  44.3733752
  40.6545560  72.2972321  43.8973862  41.9357754  72.8563130  44.4785792
  55.4610316  79.3820031  47.1239033  56.2827760  78.9800219  46.8421714
  55.4572719  79.2788266  48.0755148  43.3961252  72.4059371  41.3317228
  42.5992415  72.5178066  41.8500724  43.1686844  72.7446024  40.4658119
  49.2266919  78.9304075  49.2799743  49.2911352  79.3924482  50.1157915
  48.5177843  78.3001440  49.4082053  39.7284209  72.2945283  46.8048743
  39.9792248  73.1792293  47.0706318  40.2643758  72.1149884  46.0323834
  63.5516309  75.7258780  43.4724004  62.7980017  75.1566178  43.3168008
  63.6863850  75.6921444  44.4194639  48.9414937  80.5972182  39.1478723
  48.8060612  81.4423718  39.5763571  49.4824749  80.7991460  38.3844657
  42.3944334  78.1147620  39.7206648  42.9068855  78.9090870  39.8712213
  43.0467047  77.4173911  39.6540250  44.2039219  81.2313376  41.8029402
  44.3805847  82.1531341  41.6150386  44.9996053  80.9171796  42.2323781
  43.4891576  73.2778008  51.6791565  43.3745091  72.3763266  51.9798664
  42.6336093  73.5241705  51.3276381  50.5683413  81.2195749  53.2779065
  50.1247268  80.4332127  52.9599970  51.2300627  81.4074899  52.6122956
  45.3270535  82.7491550  47.8039744  45.8777960  82.6208614  47.0316738
  44.4882010  83.0486439  47.4534637  52.6664651  81.4998549  51.3060467
  52.6483127  82.3207430  50.8140736  53.5884571  81.3752624  51.5310608
  49.1237706  79.0142678  52.1483975  49.6566042  78.2530966  51.9183283
  48.5951787  78.7216330  52.8908130  40.3593251  76.4436274  40.4966219
  41.1968473  76.8533283  40.2799927  40.5371519  75.5035717  40.4666413
  52.2557683  74.1111355  36.1850052  51.7404307  74.8815960  36.4238439
  51.9834992  73.4376491  36.8083113  57.2291957  76.8643710  38.1203225
  56.4521400  76.5254869  37.6758388  57.9083438  76.8696333  37.4458191
  50.4890418  78.1428671  39.6602787  49.9611780  77.4081430  39.3476025
  49.9877921  78.9203347  39.4142755  55.4683264  76.3377691  44.7769833
  54.8106939  77.0276952  44.8649962  56.2723664  76.7274123  45.1203820
  45.5478733  70.8352798  36.0405284  44.7116045  71.1727484  36.3614559
  45.4083503  70.7001778  35.1032421  48.6343018  75.9608881  32.6637760
  47.7270080  75.7298134  32.8628909  49.1314050  75.1646500  32.8511742
  51.5411097  84.6706388  35.5834446  50.8672796  84.9738085  36.1919404
  51.9276919  85.4735468  35.2339903  49.8131252  76.0621476  37.1861750
  48.9042471  75.7780508  37.2834220  49.8426336  76.4820554  36.3265057
  55.0450519  79.6728065  40.9552918  54.5912846  78.8318975  41.0118108
  54.4144486  80.3089464  41.2927698  53.4883459  81.5104562  41.8902736
  53.7806433  82.0709619  41.1715102  53.9982079  81.8033123  42.6455895
  49.5107340  77.6030219  34.5249829  49.0726770  76.8866078  34.0655466
  50.2517781  77.8306334  33.9634920  48.4517084  82.2884913  42.9796189
  48.4093263  82.5145759  42.0504721  49.3679783  82.0548288  43.1281990
  51.8982718  72.7568980  49.8776818  52.2532105  72.9840454  50.7371284
  52.5454849  73.0887357  49.2554074  57.6280454  75.8787416  40.5826147
  57.4898353  76.0689012  39.6547337  57.2716673  76.6406799  41.0394199
  57.6549834  77.9463943  45.5937419  58.0886341  77.8539232  46.4420473
  58.3681415  77.9221444  44.9557435  46.5682885  79.1647942  42.7758152
  47.3623483  78.6698262  42.5740727  45.8574577  78.6365805  42.4125857
  51.3877729  81.5466037  47.1270520  51.4414751  82.1156974  47.8948235
  50.5192510  81.7167923  46.7624557  42.8765648  73.3091024  38.8517905
  41.9463236  73.2475479  39.0687867  42.9723120  72.7866976  38.0554546
  44.2676122  71.2483594  48.6094971  44.9399176  71.0400956  47.9607620
  43.4405909  71.0505680  48.1700203  58.5165384  77.9887644  48.1270304
  58.7101274  78.8933455  48.3729579  58.4166002  77.5295063  48.9608889
  53.5780492  78.1394387  53.7011185  53.4265999  77.9104938  52.7841269
  53.5685172  79.0964988  53.7142530  50.3465829  75.7126300  48.6857451
  51.2757889  75.8637459  48.5126419  49.9256859  75.8010320  47.8306098
  49.1454161  79.7376964  46.4555989  49.0065246  79.3695748  47.3281927
  48.3568757  80.2524603  46.2839947  49.7402313  84.8386060  37.7981526
  49.9154068  84.3674104  38.6127148  49.0535101  85.4651827  38.0262786
  50.6959376  79.1158567  43.8444827  50.3609208  79.0759337  44.7402477
  50.1963321  78.4503283  43.3715237  44.6703620  74.5226197  49.3697408
  44.5323418  73.7906435  49.9708947  45.5808543  74.4335097  49.0881596
  53.6318567  76.4614601  34.1181886  53.0147738  75.7361429  34.0214939
  53.1635056  77.2223961  33.7748961  47.2985920  74.2346156  48.8581088
  48.0085539  73.5939348  48.8167706  47.2555228  74.4859051  49.7807268
  55.2872699  81.1713509  51.7787667  55.2285245  80.4872729  51.1118250
  55.6892217  81.9132499  51.3268293  46.0114854  71.2211374  50.6776727
  45.4752211  70.7702112  51.3298323  45.4231563  71.3557283  49.9347191
  44.3063398  87.9875423  44.5721386  44.5459996  88.6193947  45.2500404
  43.4632594  87.6363463  44.8586745  45.4217113  70.6800025  33.2403191
  44.5446580  70.5588826  32.8765437  45.8974866  69.8886104  32.9882079
  55.2890106  79.1353093  50.0101646  54.4016885  78.7979015  50.1328045
  55.8588657  78.4036124  50.2470412  41.7453976  70.3567382  47.7629722
  41.6612164  69.7493051  47.0280131  40.9236682  70.8476400  47.7639218
  48.8191260  83.7954546  46.9762890  48.7461431  84.6009517  47.4882194
  48.3768653  83.9946511  46.1510911  48.6081039  83.0326316  40.4865711
  47.8248561  83.5747996  40.5803936  49.3073784  83.5500295  40.8859952
  59.7707447  74.5461311  44.7718208  59.7597323  75.4286026  44.4012141
  58.9024826  74.1932861  44.5772745  51.2789943  83.6941380  49.1321048
  51.9917915  84.3288844  49.0596950  50.7879972  83.7905246  48.3161050
  53.0007470  77.5992632  40.7038340  52.0663749  77.7194095  40.5343044
  53.1784139  76.6965099  40.4398350  56.3880021  73.4409952  41.2388374
  56.8540474  74.2737943  41.1648677  56.8387522  72.9754933  41.9433633
  46.3301857  81.4435823  49.9526619  47.0311316  82.0772306  50.1056013
  45.8596972  81.7850555  49.1922258  54.4556253  79.7853773  38.2374526
  54.7316096  79.6710367  39.1468400  53.5860751  79.3871258  38.1986699
  54.1303143  73.9980431  47.7779170  53.4774593  74.2456338  47.1231622
  54.5083523  73.1844569  47.4441647  51.0910317  84.0340124  41.8807340
  51.2732711  83.2161780  42.3435092  51.9143303  84.2507816  41.4432230
  51.4252482  82.9608309  39.1422388  51.9540248  82.4500763  38.5292550
  51.6880702  82.6450839  40.0067921  50.1790716  74.7400242  54.2645207
  49.5031353  74.6394371  54.9347582  51.0018350  74.5839455  54.7281204
  41.9269575  80.9772178  46.8857722  42.5123012  80.2315866  47.0185626
  41.7294413  81.2876135  47.7694386  44.7808230  84.0123426  41.9020164
  44.1118605  84.4969553  41.4184204  44.6421100  84.2592646  42.8163543
  48.9213499  86.0467169  48.5002823  49.4731807  86.2098791  49.2651908
  49.2619692  86.6371607  47.8282847  43.8977992  68.3942319  49.1024707
  43.9619318  69.2557150  48.6902105  43.8345112  67.7816321  48.3697066
  43.3730264  70.4665451  52.7497742  44.0002303  70.0842529  53.3635266
  42.5158183  70.2479653  53.1153434  53.7724373  80.8728427  54.3551477
  54.3164277  81.4858385  53.8606432  53.1911218  81.4308005  54.8718490
  40.1495807  72.2741881  38.6816096  40.4449248  71.3652559  38.6283150
  39.2483843  72.2529620  38.3597099  52.0581886  83.9949145  45.4866505
  51.9333025  83.1938884  44.9777450  52.7160977  84.4895338  44.9980475
  43.6790054  70.3497877  44.6643645  42.9576640  70.9633845  44.5251118
  44.4683310  70.8855642  44.5860291  54.1216794  81.7958165  47.1146055
  53.1747130  81.6763516  47.0424382  54.4699567  80.9080663  47.1972316
  41.8783649  69.9555978  38.8055422  41.5496355  69.0753357  38.6230527
  42.2323019  69.9003647  39.6931811  51.1263228  81.5910881  43.3150407
  50.9788190  80.6627588  43.4957977  51.9516721  81.6130972  42.8307482
  54.7297349  82.4139440  44.4015280  55.6543897  82.2082301  44.2639731
  54.5612653  82.1655841  45.3104621  54.5192666  82.9325107  39.7577371
  54.6929543  82.3671530  39.0051224  55.0121557  83.7326002  39.5756861
  40.3369625  74.9439776  47.8240930  39.7923093  75.7199584  47.9561204
  41.2148975  75.2910581  47.6660052  60.3732057  75.6961530  41.3767671
  60.8163203  74.9468855  40.9786794  59.4958567  75.6871666  40.9941403
  55.5067838  82.2491871  36.8574270  56.2018743  82.8698564  37.0761584
  55.8490988  81.3987223  37.1326647  41.1235647  74.0709672  50.7171087
  40.3817383  74.2192308  51.3035717  40.8028392  74.3317938  49.8537836
  57.4059261  79.6991577  38.3861600  57.9310585  80.0378850  37.6610920
  57.3181614  78.7638592  38.2024735  49.0679310  83.6125651  50.5151477
  49.3766436  83.3674797  51.3874177  49.8654792  83.8172289  50.0270347
  49.0899922  85.7663560  42.7456853  48.6504912  85.2739939  43.4389710
  49.8408039  85.2236528  42.5048929  41.5692261  81.9575101  42.7481482
  42.3950281  81.6578873  42.3680125  41.2186313  81.1882724  43.1971270
  46.5373794  81.3101569  44.8179155  45.9153803  80.6472274  44.5181383
  47.2078661  81.3362701  44.1352803  39.7700866  79.8761428  43.7070415
  38.9332774  79.4483602  43.5254416  39.7424511  80.0693871  44.6441206
  57.0953167  80.3324481  53.6912798  56.3048711  80.3148620  53.1517298
  56.8586522  80.8712774  54.4461835  57.2151042  77.1816947  51.0045527
  57.2649047  77.0166954  51.9461050  57.1064966  76.3144206  50.6143408
  46.0987301  79.8605493  38.2937616  46.2475421  80.5440957  37.6404288
  46.9053744  79.8410583  38.8087071  58.7169239  79.6013889  51.2487548
  58.4254047  79.9643869  52.0851009  58.1041370  78.8880897  51.0700880
  59.9164921  77.1666768  43.7690119  60.7511813  77.6056572  43.9327679
  60.0524050  76.6905422  42.9498364  56.9656427  74.7246503  49.7167606
  57.4410549  74.9174149  48.9086458  56.0421993  74.7805689  49.4710990
  43.8539934  75.8870670  39.2998685  43.6085976  74.9833000  39.4978895
  44.0235849  75.8887821  38.3578163  43.1235582  71.6199028  36.7984846
  42.4304826  71.6943383  36.1424882  42.8787333  70.8559372  37.3206363
  49.5982707  82.3553623  35.7649363  49.0256674  82.9743810  35.3119835
  50.1715500  82.9052985  36.2989285  55.6658096  71.6012263  47.9495912
  56.6175519  71.7010361  47.9708136  55.4961547  70.8090532  48.4593996
  52.8179966  82.6390773  36.8957945  53.7510639  82.5736335  37.0990821
  52.7303179  83.4747040  36.4372478  55.4467983  81.9556644  33.8561893
  55.3681615  81.6216507  34.7497651  56.2677650  82.4478412  33.8553365
  58.1446174  74.8218383  47.0638212  58.1122494  73.8834384  47.2497895
  58.7546798  74.9002420  46.3304036  49.9829505  73.6914436  33.1065416
  50.9288610  73.5620644  33.1753834  49.6043750  72.9529098  33.5834844
  58.2940663  71.6129426  47.1096495  57.7779711  70.8287883  46.9226424
  59.1780611  71.2848143  47.2743014  63.9622724  75.8834390  46.2044248
  64.6926112  75.6219678  46.7651952  63.3529669  75.1463112  46.2446316
  62.0438021  74.0242252  46.8018700  61.3171185  73.8898217  46.1935191
  61.6285308  74.3319081  47.6075418  49.8668198  77.7432182  54.5666073
  50.7871207  77.9210781  54.7606119  49.8317781  76.7988227  54.4145772
  48.1672422  71.6164412  33.0420301  47.2603878  71.3197525  33.1183014
  48.4448403  71.3194230  32.1754587  42.8630270  75.6533217  47.2088854
  43.0816280  76.5850325  47.2276888  43.2756044  75.2941191  47.9943658
  38.9538623  76.5573687  45.4612469  38.2602094  76.1427640  44.9482423
  39.7011614  76.5994224  44.8645888  47.5989405  74.6563561  55.4156664
  47.1156487  75.4563921  55.6220553  47.6850345  74.6671506  54.4624108
  40.8675365  76.4891941  43.3378484  40.8446053  76.5879628  42.3860367
  41.1776002  77.3357092  43.6595650  43.5262743  78.5468096  47.4525098
  44.4805997  78.5152038  47.3855030  43.3275267  78.0858720  48.2675324
  44.1162125  77.1169212  50.0195896  44.9355014  77.6113291  50.0430733
  44.3898933  76.2001180  49.9913463  41.8812972  84.0887716  44.4695296
  41.7467440  83.3288116  43.9033294  41.4645034  84.8128615  44.0024085
  53.0171935  79.2724639  33.4771871  53.7207785  79.4774642  34.0929527
  52.2934584  79.8401401  33.7420955  53.8469745  75.0234500  39.5974141
  53.7904946  75.4803052  38.7581774  54.3998088  74.2625185  39.4196984
  61.9686889  73.5520305  42.9295552  61.4086447  73.6213495  43.7027114
  61.3630392  73.3761290  42.2095049  45.0382098  84.9857033  44.6813739
  44.9214482  85.9302465  44.5792429  44.2174544  84.6830594  45.0699538
  54.9258632  79.7107168  35.5270331  55.7604236  79.2788367  35.3447806
  54.7642975  79.5389182  36.4547226  54.5804524  76.2139282  36.8926671
  54.5253328  76.0483553  35.9515115  53.9550580  76.9215314  37.0488860
  39.3697039  71.4507346  50.7188093  40.0155903  70.9406300  51.2075318
  39.1614190  72.1876028  51.2931518  51.8950432  78.5188193  56.2180233
  52.7641591  78.6928846  55.8566868  51.4157183  79.3382610  56.0955963
  46.0636612  85.6385294  47.8969667  46.9663858  85.6708905  48.2136162
  45.8373982  84.7085745  47.9116003  47.8190214  84.3916281  44.5579746
  46.8685845  84.3918143  44.4444118  48.1222700  83.6449016  44.0415780
  63.5542907  90.2276819  45.6225508  64.1921317  90.1083567  44.9188848
  63.4363750  91.1757663  45.6813460  60.3632614  90.1804247  45.5587033
  60.0251125  90.0645312  44.6707568  61.2322382  89.7795413  45.5388039
  56.2219429  92.0339724  41.5483924  55.6584294  91.9429661  40.7800211
  56.1071824  91.2139628  42.0286416  60.8452397  91.3339099  51.5173238
  60.8341037  90.9391897  50.6453742  61.0073036  90.6005172  52.1107010
  53.7683861  93.5290915  44.3868144  54.5605153  93.1881740  43.9714444
  54.0080511  93.6385891  45.3070298  55.7274615  92.7899829  37.2585523
  56.5005491  92.2428816  37.1198399  56.0800014  93.6544078  37.4699984
  57.5659658  94.1176211  50.4652422  57.2749524  95.0221842  50.3499089
  58.2016642  94.1592739  51.1796492  58.4915865  91.4953060  47.0553782
  59.0879437  91.2709082  46.3410745  58.5490836  90.7537805  47.6579230
  58.0640893  88.9492495  34.8903973  58.3166414  88.4274016  34.1287436
  57.1265452  88.7858640  34.9930657  63.1084176  87.9528273  42.6978716
  63.8947265  87.5347696  42.3469133  63.3722880  88.8574365  42.8660365
  68.5092603  87.8903506  43.6011695  69.2417775  87.3202723  43.8349524
  67.7531959  87.5025107  44.0418200  57.7837182  90.8520601  37.0928348
  57.6673440  90.1765504  37.7609432  57.8939442  90.3652975  36.2760501
  60.1268723  90.3130748  40.7975037  59.7626930  89.7861369  41.5087959
  60.9835839  89.9229217  40.6241523  66.0318023  81.6025081  48.0606303
  65.7001348  82.4720491  47.8367518  65.4363637  81.2861365  48.7400334
  59.7674210  85.3420648  35.7936386  59.9348612  86.2100884  36.1606857
  59.5771379  85.5047929  34.8697675  55.9762024  90.2551423  43.4938920
  55.0512521  90.1227637  43.7016612  56.2246437  91.0345643  43.9908863
  65.9246687  86.3220167  45.1399653  65.0163564  86.2535575  44.8458414
  65.8734282  86.7992112  45.9681479  59.7463430  87.7978305  36.7783052
  59.6263056  88.2435356  37.6168533  59.0516019  88.1463623  36.2196591
  53.3370835  89.8984697  44.3282709  53.4663216  90.1519176  45.2422121
  52.6568287  90.4912405  44.0087365  59.9987552  87.7409812  53.0834551
  59.2220886  88.3003732  53.0737415  60.6378115  88.2266595  53.6049421
  67.7908333  84.5236605  46.9177527  67.1482713  84.8169138  46.2717322
  67.2863261  84.4089525  47.7230724  65.4448497  88.2699778  37.6063386
  66.3566353  88.5027165  37.4311084  64.9358144  88.8536822  37.0438465
  58.2533925  90.5495266  52.6452518  58.9948609  91.0880310  52.3687341
  57.5470910  91.1761554  52.8024069  63.7289264  92.6924406  51.2424679
  64.1372620  92.2506817  50.4979311  63.0066526  92.1177034  51.4958872
  60.0820334  87.6297013  48.6158236  60.9281530  88.0536426  48.7592885
  60.0218972  86.9730637  49.3096799  63.2319780  85.2901381  50.2739410
  62.9880712  86.0443442  49.7373685  63.5079710  85.6686729  51.1086657
  62.7884471  84.4457814  45.8553247  61.9268950  84.7439068  46.1469985
  62.8146906  84.6628213  44.9234280  59.6046041  92.9900005  42.2627053
  60.0684386  93.2687708  41.4731676  59.3402839  92.0883449  42.0800144
  56.4970122  92.5371486  45.2006816  57.0671479  92.9658755  44.5624301
  57.0878234  92.2554071  45.8991002  58.5414927  89.1123157  39.0716618
  59.2438970  89.5644201  39.5390545  58.2095555  88.4706976  39.6996511
  56.9895288  87.7034914  53.4467828  56.3593949  88.3851195  53.6803224
  56.8831376  87.5917995  52.5020966  52.2840261  87.3706710  44.3733752
  51.4939315  87.6264238  43.8973862  52.7751508  88.1855048  44.4785792
  54.2355006  87.7351289  41.3317228  53.4386169  87.8469983  41.8500724
  54.0080598  88.0737941  40.4658119  60.0660674  94.2595992  49.2799743
  60.1305106  94.7216400  50.1157915  59.3571598  93.6293357  49.4082053
  50.5677964  87.6237200  46.8048743  50.8186002  88.5084210  47.0706318
  51.1037512  87.4441802  46.0323834  56.2676031  82.0055680  55.8093079
  55.8742977  81.4521878  56.4840723  57.0842171  82.3166258  56.1999596
  53.2338089  93.4439538  39.7206648  53.7462609  94.2382788  39.8712213
  53.8860802  92.7465828  39.6540250  59.1843992  83.4213559  53.4013335
  59.9253705  84.0220712  53.3217798  59.4161915  82.6791197  52.8431378
  54.3285330  88.6069926  51.6791565  54.2138845  87.7055183  51.9798664
  53.4729848  88.8533623  51.3276381  59.9631460  94.3434596  52.1483975
  60.4959797  93.5822884  51.9183283  59.4345541  94.0508248  52.8908130
  63.1301155  79.4494662  47.6777617  62.7865424  80.3396303  47.6016727
  63.4980118  79.2596319  46.8147202  51.1987006  91.7728192  40.4966219
  52.0362228  92.1825201  40.2799927  51.3765273  90.8327634  40.4666413
  63.0951438  89.4403273  36.1850052  62.5798061  90.2107877  36.4238439
  62.8228746  88.7668409  36.8083113  60.6798549  84.2852974  41.2435290
  59.8240145  83.8959824  41.0640929  61.0925501  84.3644934  40.3835076
  62.2097695  81.8199317  45.6426850  61.7062491  81.7829452  44.8294655
  62.5028302  82.7292060  45.7023507  58.4540581  81.9038047  44.6493032
  59.3193578  81.7080855  44.2898921  58.5218090  81.6748398  45.5762389
  62.8837741  87.3130365  38.0109833  62.5787877  87.6276514  38.8619976
  63.8368183  87.3911785  38.0537166  61.3284173  93.4720588  39.6602787
  60.8005534  92.7373348  39.3476025  60.8271676  94.2495265  39.4142755
  56.0602900  84.1340254  42.0209399  56.6346652  83.9115436  41.2882592
  56.6473883  84.2028949  42.7738000  65.1182478  90.0213981  42.8273775
  65.6314359  90.6543973  43.3295485  65.7683701  89.4215177  42.4617135
  56.3872488  86.1644716  36.0405284  55.5509800  86.5019402  36.3614559
  56.2477257  86.0293695  35.1032421  58.3625568  81.0081503  40.7484468
  57.7089980  80.6930521  40.1241083  58.3206042  80.3857244  41.4744291
  59.4736773  91.2900798  32.6637760  58.5663835  91.0590052  32.8628909
  59.9707805  90.4938418  32.8511742  61.5963308  87.4963437  45.0732116
  60.6785870  87.7178384  44.9153804  62.0123452  87.5709747  44.2143823
  62.3798356  88.8954853  40.2034796  63.1270175  89.4076250  39.8941918
  62.6489946  88.5738905  41.0639190  60.6525006  91.3913393  37.1861750
  59.7436226  91.1072426  37.2834220  60.6820090  91.8112472  36.3265057
  64.8277193  85.9311969  42.1853585  64.0899950  85.4189355  42.5163828
  65.0803967  85.4912350  41.3736862  64.9288821  78.7088221  42.7795355
  65.2347698  77.8485584  42.4921270  65.6541426  79.3005841  42.5794348
  51.2213177  89.1118907  41.1676952  51.0237577  88.5188268  40.4428019
  50.6659841  88.8071118  41.8852891  59.2009900  89.0042014  43.2871546
  59.2558510  88.0515850  43.2114022  58.3901102  89.1601453  43.7712844
  60.3501094  92.9322137  34.5249829  59.9120524  92.2157996  34.0655466
  61.0911535  93.1598252  33.9634920  57.1402260  87.6219074  41.0461924
  56.3270126  87.9213244  41.4527117  57.6361255  87.2274762  41.7636407
  62.7376472  88.0860898  49.8776818  63.0925860  88.3132371  50.7371284
  63.3848603  88.4179275  49.2554074  56.6316335  85.1937429  46.6623159
  57.2715714  85.0526188  45.9646123  55.7993866  84.9071943  46.2861761
  57.4076639  94.4939860  42.7758152  58.2017238  93.9990180  42.5740727
  56.6968331  93.9657723  42.4125857  53.7159402  88.6382941  38.8517905
  52.7856991  88.5767397  39.0687867  53.8116874  88.1158894  38.0554546
  53.6344952  85.1637754  41.4396146  53.8951769  86.0783087  41.3305307
  54.4562124  84.6962197  41.5892759  55.1069877  86.5775511  48.6094971
  55.7792930  86.3692873  47.9607620  54.2799663  86.3797597  48.1700203
  61.0095449  83.2037452  50.6260632  60.3623364  83.9027402  50.5325108
  61.7796464  83.6373596  50.9936880  61.1859583  91.0418217  48.6857451
  62.1151643  91.1929377  48.5126419  60.7650613  91.1302238  47.8306098
  59.9847915  95.0668882  46.4555989  59.8459001  94.6987666  47.3281927
  59.1962511  95.5816521  46.2839947  55.5097374  89.8518114  49.3697408
  55.3717172  89.1198353  49.9708947  56.4202298  89.7627014  49.0881596
  64.4712322  91.7906519  34.1181886  63.8541492  91.0653347  34.0214939
  64.0028810  92.5515879  33.7748961  58.1379675  89.5638074  48.8581088
  58.8479293  88.9231266  48.8167706  58.0948983  89.8150969  49.7807268
  56.8508609  86.5503292  50.6776727  56.3145966  86.0994030  51.3298323
  56.2625317  86.6849200  49.9347191  56.2610868  86.0091943  33.2403191
  55.3840334  85.8880744  32.8765437  56.7368621  85.2178021  32.9882079
  47.7813008  90.7969103  43.3344698  48.4684048  90.4830833  42.7465713
  47.6261137  91.7010467  43.0611949  52.5847730  85.6859299  47.7629722
  52.5005919  85.0784969  47.0280131  51.7630436  86.1768318  47.7639218
  62.7571444  84.1712863  43.1299917  63.2540143  83.4182825  42.8100987
  61.9858425  84.2077179  42.5643126  59.3406413  86.3130246  42.8571601
  58.9704200  85.7601286  43.5452507  59.8365505  85.7088379  42.3046601
  67.2273776  88.7701869  41.2388374  67.6934228  89.6029861  41.1648677
  67.6781276  88.3046851  41.9433633  65.1990439  81.1382456  45.2779275
  64.2853518  81.3686683  45.4461482  65.6283540  81.2220900  46.1293308
  64.9696897  89.3272348  47.7779170  64.3168347  89.5748256  47.1231622
  65.3477277  88.5136486  47.4441647  61.0184470  90.0692159  54.2645207
  60.3425107  89.9686289  54.9347582  61.8412104  89.9131373  54.7281204
  47.3580984  88.8769696  45.6062165  47.3965084  88.3433287  46.3999283
  46.8521277  88.3504902  44.9873142  54.7371746  83.7234237  49.1024707
  54.8013073  84.5849067  48.6902105  54.6738867  83.1108238  48.3697066
  54.2124019  85.7957369  52.7497742  54.8396058  85.4134446  53.3635266
  53.3551938  85.5771571  53.1153434  50.9889562  87.6033798  38.6816096
  51.2843003  86.6944477  38.6283150  50.0877597  87.5821538  38.3597099
  54.5183809  85.6789795  44.6643645  53.7970394  86.2925762  44.5251118
  55.3077064  86.2147560  44.5860291  57.3210122  83.0144221  50.9384297
  57.8444524  83.2606518  51.7010606  57.1022455  83.8464256  50.5187434
  52.7177403  85.2847896  38.8055422  52.3890109  84.4045275  38.6230527
  53.0716774  85.2295565  39.6931811  55.8319226  85.5720866  39.1730899
  56.1715299  86.1006787  38.4509508  56.2791347  85.9101272  39.9489466
  58.5262667  83.9557916  48.6233967  58.1859488  83.1565729  49.0254647
  57.8201673  84.2559627  48.0510800  59.1779139  81.0407229  47.0761290
  60.0005208  80.5667707  46.9540181  59.4217202  81.8197713  47.5759977
  57.8187373  84.0695487  37.3724192  58.5395736  84.4476740  36.8687909
  57.1952678  84.7884364  37.4759170  61.9618496  84.7740636  38.3082524
  62.1782111  85.6565274  38.0071352  61.4812563  84.3826850  37.5788166
  56.7017718  87.7326349  44.8853269  56.5562298  88.0466653  45.7777550
  56.2242921  88.3511250  44.3324168  58.5614101  84.7228897  44.9334158
  58.5475669  83.8269991  44.5966456  59.2786529  84.7299561  45.5672444
  60.4140231  85.1566238  46.9787286  60.1558009  86.0783308  46.9771616
  59.8825272  84.7596672  47.6687750  51.1763380  90.2731694  47.8240930
  50.6316848  91.0491502  47.9561204  52.0542730  90.6202498  47.6660052
  57.9650997  83.6043278  40.2021729  58.0866908  82.6759924  40.4012616
  57.6753039  83.6181964  39.2900044  60.8342187  81.2898188  43.3388448
  60.8563884  81.3537521  42.3840428  61.2510246  80.4502697  43.5328955
  51.9629402  89.4001590  50.7171087  51.2211138  89.5484225  51.3035717
  51.6422146  89.6609856  49.8537836  57.4492076  85.1175275  54.4111661
  57.4980232  85.9937398  54.0289431  57.9914590  84.5752668  53.8383304
  65.3448559  88.4939793  52.3204834  66.2458422  88.3546258  52.0288831
  65.4196534  88.6594248  53.2603011  59.6791365  85.8706647  51.1658020
  58.8094674  86.1640214  50.8940608  59.9150845  86.4547092  51.8865283
  54.6933688  91.2162588  39.2998685  54.4479730  90.3124918  39.4978895
  54.8629603  91.2179738  38.3578163  62.3830398  82.0886264  48.6823440
  62.9012342  82.8247291  48.3569929  62.0285531  82.3950258  49.5170199
  53.9629336  86.9490946  36.7984846  53.2698581  87.0235301  36.1424882
  53.7181088  86.1851289  37.3206363  62.6342993  78.5086547  44.2024337
  62.9144746  77.8409736  44.8284763  63.4193599  78.7015643  43.6899001
  66.5051851  86.9304181  47.9495912  67.4569274  87.0302279  47.9708136
  66.3355301  86.1382449  48.4593996  64.5266230  84.0159764  48.1355313
  63.9316162  84.2964777  47.4401801  64.2415927  84.5053665  48.9072054
  60.8223260  89.0206354  33.1065416  61.7682364  88.8912562  33.1753834
  60.4437504  88.2821016  33.5834844  69.1334417  86.9421344  47.1096495
  68.6173466  86.1579801  46.9226424  70.0174366  86.6140061  47.2743014
  66.7945144  80.6862360  43.0692307  66.5969965  80.3777448  43.9535639
  67.4044850  81.4123999  43.1990237  60.7061952  93.0724100  54.5666073
  61.6264962  93.2502699  54.7606119  60.6711535  92.1280145  54.4145772
  59.0066177  86.9456330  33.0420301  58.0997632  86.6489443  33.1183014
  59.2842158  86.6486148  32.1754587  49.9244117  88.2662693  43.4919347
  49.6046901  87.4128002  43.1993721  49.3777545  88.4811272  44.2477315
  53.7024025  90.9825134  47.2088854  53.9210034  91.9142242  47.2276888
  54.1149798  90.6233109  47.9943658  60.6228242  81.4893220  39.1964542
  59.8128971  81.1440305  39.5719788  61.3112659  81.1800763  39.7852154
  62.5518791  80.5671267  40.8188839  63.1049829  80.9866720  41.4778862
  62.7888877  79.6407015  40.8611795  58.5751890  86.5558340  56.5991603
  58.4748617  87.5052697  56.5303694  58.3573432  86.2276579  55.7267673
  57.7764961  83.8043265  33.1832280  58.6384125  84.1298164  33.4428097
  57.9615305  83.0174761  32.6705346  49.7932377  91.8865605  45.4612469
  49.0995848  91.4719558  44.9482423  50.5405368  91.9286141  44.8645888
  65.9297598  82.6771792  40.3267503  65.3496267  83.3356596  39.9445555
  65.6633530  81.8549136  39.9154921  64.3801164  82.0776849  42.5288823
  64.8800943  82.1893384  41.7203142  65.0236772  81.7737902  43.1689632
  58.4383160  89.9855479  55.4156664  57.9550242  90.7855839  55.6220553
  58.5244099  89.9963424  54.4624108  51.7069120  91.8183859  43.3378484
  51.6839808  91.9171546  42.3860367  52.0169756  92.6649009  43.6595650
  54.3656497  93.8760014  47.4525098  55.3199751  93.8443956  47.3855030
  54.1669021  93.4150637  48.2675324  54.9555880  92.4461130  50.0195896
  55.7748769  92.9405208  50.0430733  55.2292687  91.5293098  49.9913463
  64.7122476  84.8371882  39.3823851  63.8248331  85.1221533  39.1644046
  65.1276465  84.6765645  38.5351128  68.0637012  84.8618403  43.0978191
  68.8397402  85.3514855  43.3702807  67.3385146  85.2876457  43.5550060
  70.5009571  85.5746022  44.1552131  71.0954061  85.3341758  43.4445439
  70.5736154  84.8553153  44.7825667  64.6863500  90.3526418  39.5974141
  64.6298701  90.8094969  38.7581774  65.2391842  89.5917103  39.4196984
  68.4968305  86.1416150  40.4224261  68.2405240  85.7412786  41.2532469
  67.8721173  86.8559944  40.2974400  50.2090794  86.7799264  50.7188093
  50.8549657  86.2698218  51.2075318  50.0007945  87.5167945  51.2931518
  58.7294404  81.0439308  36.4711989  58.7173074  81.9881148  36.6280260
  59.6217826  80.8609454  36.1771450  62.5446524  77.6382085  40.7257926
  61.7778920  77.0840572  40.8714608  62.9557229  77.7103954  41.5872077
  54.5488285  83.9266881  54.8163107  55.4119746  83.5703686  55.0266432
  53.9753695  83.5880776  55.5038511  20.1967891   5.9171271  32.3470815
  20.8346301   5.7978019  31.6434155  20.0788733   6.8652115  32.4058767
  17.0057597   5.8698699  32.2832339  16.6676108   5.7539764  31.3952874
  17.8747365   5.4689864  32.2633346  12.8644413   7.7234176  28.2729230
  12.3009278   7.6324113  27.5045518  12.7496808   6.9034080  28.7531723
  17.4877380   7.0233551  38.2418545  17.4766021   6.6286349  37.3699049
  17.6498019   6.2899624  38.8352316  10.4108844   9.2185367  31.1113451
  11.2030136   8.8776192  30.6959750  10.6505495   9.3280342  32.0315604
  18.4443971  11.3905143  23.5843695  17.7931951  11.9759224  23.1977709
  19.2388334  11.9211338  23.6438733  14.2084641   9.8070663  37.1897729
  13.9174507  10.7116294  37.0744395  14.8441625   9.8487190  37.9041799
  15.1340848   7.1847511  33.7799089  15.7304420   6.9603534  33.0656052
  15.1915819   6.4432257  34.3824536  19.7509159   3.6422725  29.4224023
  20.5372248   3.2242148  29.0714440  20.0147863   4.5468817  29.5905671
  19.9219236   9.0795575  24.1212680  19.2865069   9.1530202  24.8333584
  19.5916643   9.6689174  23.4431759  25.1517586   3.5797958  30.3257001
  25.8842758   3.0097175  30.5594831  24.3956942   3.1919559  30.7663507
  16.7693706   6.0025200  27.5220344  16.4051913   5.4755821  28.2333265
  17.6260822   5.6123669  27.3486829  19.1674526   9.4932078  34.1847523
  18.8675249  10.3957117  34.0763330  18.8225586   9.2264262  35.0368676
  12.6187008   5.9445875  30.2184227  11.6937504   5.8122089  30.4261919
  12.8671421   6.7240094  30.7154169  22.5671670   2.0114619  31.8644960
  21.6588547   1.9430027  31.5703721  22.5159266   2.4886564  32.6926785
  14.1495306  16.2576399  27.1518490  14.0719336  17.2084224  27.2306971
  13.5456949  15.9122271  27.8093417  16.6412536   3.4304264  39.8079857
  15.8645870   3.9898184  39.7982722  17.2803099   3.9161047  40.3294727
  24.4333316   0.2131057  33.6422834  23.7907696   0.5063590  32.9962628
  23.9288245   0.0983977  34.4476031  22.0873480   3.9594230  24.3308693
  22.9991336   4.1921617  24.1556391  21.5783127   4.5431274  23.7683772
  14.8958908   6.2389718  39.3697824  15.6373592   6.7774761  39.0932648
  14.1895893   6.8656006  39.5269376  20.3714248   8.3818858  37.9669986
  20.7797604   7.9401269  37.2224618  19.6491509   7.8071486  38.2204179
  16.7245318   3.3191465  35.3403543  17.5706513   3.7430878  35.4838192
  16.6643955   2.6625089  36.0342106  20.6943062   8.9420049  31.7222275
  20.0651925   9.1065763  31.0198342  20.3068724   9.3561658  32.4933239
  24.5732294   9.8774486  29.0766638  23.8883332  10.2573388  28.5263672
  24.6576143  10.4869813  29.8098586  19.8744763   0.9795833  36.9984716
  19.6305695   1.7337894  36.4618992  20.1504693   1.3581181  37.8331963
  21.8283226   7.5234445  35.6761982  22.0400121   8.1666205  34.9996363
  21.7812974   6.6896762  35.2083912  19.4309455   0.1352266  32.5798554
  18.5693934   0.4333520  32.8715292  19.4571889   0.3522665  31.6479587
  16.2471024   8.6794457  28.9872360  16.7109370   8.9582160  28.1976982
  15.9827822   7.7777901  28.8045450  13.1395105   8.2265938  31.9252123
  13.7096462   8.6553207  31.2869607  13.7303217   7.9448523  32.6236309
  15.1839910   4.8017609  25.7961925  15.8863953   5.2538653  26.2635851
  14.8520539   4.1601428  26.4241818  22.9429054  10.4006401  33.8484339
  23.7646497   9.9986588  33.5667021  22.9391457  10.2974635  34.8000455
  16.7085657   9.9490444  36.0045050  16.7730090  10.4110851  36.8403222
  15.9996581   9.3187809  36.1327360  31.0335047   6.7445149  30.1969311
  30.2798755   6.1752547  30.0413315  31.1682588   6.7107814  31.1439945
  16.4233675  11.6158552  25.8724030  16.2879350  12.4610087  26.3008878
  16.9643487  11.8177829  25.1089964   9.8763072   9.1333990  26.4451955
  10.3887593   9.9277240  26.5957520  10.5285785   8.4360280  26.3785557
  11.6857957  12.2499746  28.5274708  11.8624585  13.1717711  28.3395692
  12.4814790  11.9358165  28.9569088  18.0502151  12.2382118  40.0024372
  17.6066005  11.4518497  39.6845277  18.7119365  12.4261269  39.3368263
  12.8089272  13.7677920  34.5285051  13.3596697  13.6394983  33.7562045
  11.9700748  14.0672809  34.1779943  20.1483389  12.5184918  38.0305773
  20.1301865  13.3393799  37.5386043  21.0703309  12.3938993  38.2555915
  16.6056443  10.0329048  38.8729282  17.1384780   9.2717336  38.6428590
  16.0770524   9.7402699  39.6153436  24.7110695   7.8830079  24.8448532
  23.9340138   7.5441239  24.4003694  25.3902176   7.8882702  24.1703497
  19.5262724   3.0024817  24.7355140  19.2212860   3.3170966  25.5865283
  20.4793166   3.0806237  24.7782473  17.9709156   9.1615040  26.3848094
  17.4430518   8.4267800  26.0721331  17.4696659   9.9389716  26.1388062
  22.9502002   7.3564061  31.5015140  22.2925677   8.0463322  31.5895269
  23.7542401   7.7460493  31.8449126  21.7607461   5.7108433  29.5519082
  22.2739343   6.3438425  30.0540792  22.4108685   5.1109629  29.1862442
  19.0229835  15.6892758  22.3079753  18.3491534  15.9924454  22.9164711
  19.4095657  16.4921838  21.9585210  18.2388292   3.1857889  31.7977422
  17.3210853   3.4072836  31.6399110  18.6548435   3.2604199  30.9389130
  19.0223340   4.5849305  26.9280103  19.7695158   5.0970702  26.6187225
  19.2914929   4.2633357  27.7884496  17.2949990   7.0807845  23.9107057
  16.3861209   6.7966878  24.0079527  17.3245074   7.5006924  23.0510364
  22.5269257  10.6914435  27.6798224  22.0731584   9.8505345  27.7363415
  21.8963224  11.3275833  28.0173005  21.4702177   1.6206421  28.9098892
  20.7324933   1.1083807  29.2409134  21.7228950   1.1806802  28.0982169
  20.9702196  12.5290931  28.6148043  21.2625171  13.0895989  27.8960408
  21.4800817  12.8219492  29.3701202  15.8434884   4.6936466  30.0116852
  15.8983494   3.7410302  29.9359329  15.0326086   4.8495905  30.4958151
  15.9335822  13.3071283  29.7041496  15.8912000  13.5332129  28.7750028
  16.8498520  13.0734657  29.8527297  19.3801455   3.7755350  36.6022125
  19.7350843   4.0026823  37.4616591  20.0273587   4.1073727  35.9799380
  25.1099192   6.8973786  27.3071454  24.9717091   7.0875382  26.3792643
  24.7535411   7.6593169  27.7639505  25.1368572   8.9650313  32.3182726
  25.5705079   8.8725602  33.1665780  25.8500153   8.9407813  31.6802742
  14.0501622  10.1834312  29.5003459  14.8442221   9.6884632  29.2986034
  13.3393315   9.6552175  29.1371164  18.8696467  12.5652407  33.8515826
  18.9233489  13.1343343  34.6193542  18.0011248  12.7354292  33.4869863
  25.9984121   9.0074014  34.8515611  26.1920012   9.9119824  35.0974886
  25.8984740   8.5481433  35.6854196  21.0599230   9.1580756  40.4256492
  20.9084737   8.9291308  39.5086575  21.0503910  10.1151358  40.4387837
  17.8284567   6.7312669  35.4102758  18.7576627   6.8823829  35.2371725
  17.4075597   6.8196690  34.5551405  16.6272898  10.7563334  33.1801296
  16.4883984  10.3882118  34.0527234  15.8387495  11.2710973  33.0085253
  17.2221050  15.8572430  24.5226832  17.3972806  15.3860473  25.3372455
  16.5353838  16.4838196  24.7508093  18.1778113  10.1344936  30.5690133
  17.8427946  10.0945706  31.4647783  17.6782059   9.4689652  30.0960544
  14.7804658   5.2532526  35.5826394  15.4904277   4.6125718  35.5413013
  14.7373966   5.5045420  36.5052575  22.7691437  12.1899879  38.5032973
  22.7103983  11.5059099  37.8363556  23.1710955  12.9318869  38.0513599
  11.7882136  19.0061793  31.2966692  12.0278734  19.6380317  31.9745711
  10.9451332  18.6549833  31.5832052  22.7708844  10.1539463  36.7346953
  21.8835623   9.8165385  36.8573352  23.3407395   9.4222494  36.9715719
  16.3009997  14.8140915  33.7008196  16.2280169  15.6195887  34.2127501
  15.8587391  15.0132881  32.8756218  16.0899777  14.0512685  27.2111018
  15.3067299  14.5934365  27.3049242  16.7892522  14.5686665  27.6105259
  27.2526185   5.5647680  31.4963515  27.2416061   6.4472396  31.1257448
  26.3843564   5.2119231  31.3018052  18.7608681  14.7127749  35.8566355
  19.4736653  15.3475214  35.7842256  18.2698710  14.8091615  35.0406357
  20.4826208   8.6179002  27.4283647  19.5482487   8.7380464  27.2588351
  20.6602876   7.7151469  27.1643656  23.8698759   4.4596321  27.9633681
  24.3359211   5.2924313  27.8893983  24.3206260   3.9941303  28.6678939
  13.8120594  12.4622193  36.6771926  14.5130054  13.0958676  36.8301320
  13.3415709  12.8036924  35.9167565  21.9374990  10.8040142  24.9619833
  22.2134834  10.6896737  25.8713707  21.0679489  10.4057627  24.9232006
  21.6121880   5.0166800  34.5024476  20.9593331   5.2642708  33.8476929
  21.9902260   4.2030938  34.1686953  18.5729054  15.0526493  28.6052646
  18.7551449  14.2348149  29.0680399  19.3962040  15.2694186  28.1677536
  18.9071220  13.9794678  25.8667695  19.4358986  13.4687133  25.2537857
  19.1699439  13.6637209  26.7313228  17.6609453   5.7586611  40.9890513
  16.9850091   5.6580741  41.6592888  18.4837087   5.6025825  41.4526510
   9.4088313  11.9958548  33.6103028   9.9941749  11.2502236  33.7430933
   9.2113151  12.3062504  34.4939692  12.2626968  15.0309795  28.6265471
  11.5937343  15.5155923  28.1429511  12.1239837  15.2779016  29.5408849
  16.4032236  17.0653539  35.2248129  16.9550544  17.2285160  35.9897214
  16.7438430  17.6557976  34.5528154  21.2543111  11.8914796  41.0796784
  21.7983015  12.5044754  40.5851738  20.6729956  12.4494375  41.5963797
  19.5400624  15.0135514  32.2111811  19.4151763  14.2125254  31.7022757
  20.1979715  15.5081708  31.7225781  21.6035532  12.8144534  33.8391361
  20.6565868  12.6949885  33.7669688  21.9518305  11.9267032  33.9217623
  18.6081965  12.6097250  30.0395714  18.4606928  11.6813958  30.2203284
  19.4335459  12.6317341  29.5552789  22.2116087  13.4325809  31.1260586
  23.1362635  13.2268671  30.9885038  22.0431391  13.1842210  32.0349928
  22.0011403  13.9511477  26.4822678  22.1748281  13.3857899  25.7296530
  22.4940295  14.7512372  26.3002168  27.8550795   6.7147900  28.1012978
  28.2981941   5.9655225  27.7032101  26.9777305   6.7058036  27.7186710
  22.9886576  13.2678241  23.5819576  23.6837480  13.8884934  23.8006891
  23.3309726  12.4173592  23.8571954  24.8877999  10.7177947  25.1106907
  25.4129323  11.0565219  24.3856227  24.8000352   9.7824962  24.9270042
  16.5498048  14.6312020  37.2396784  16.8585174  14.3861167  38.1119483
  17.3473530  14.8358659  36.7515654  16.5718660  16.7849930  29.4702160
  16.1323650  16.2926309  30.1635017  17.3226777  16.2422898  29.2294235
   9.0510999  12.9761471  29.4726788   9.8769019  12.6765243  29.0925432
   8.7005051  12.2069093  29.9216577  14.0192532  12.3287939  31.5424462
  13.3972541  11.6658644  31.2426690  14.6897399  12.3549071  30.8598110
   7.2519604  10.8947797  30.4315722   6.4151512  10.4669972  30.2499723
   7.2243249  11.0880241  31.3686513  24.5771905  11.3510850  40.4158105
  23.7867449  11.3334989  39.8762604  24.3405260  11.8899144  41.1707141
  24.6969780   8.2003317  37.7290833  24.7467785   8.0353324  38.6706356
  24.5883703   7.3330576  37.3388714  13.5806039  10.8791862  25.0182922
  13.7294159  11.5627327  24.3649595  14.3872482  10.8596952  25.5332378
  21.9873543   4.1834245  39.0450140  22.8883405   4.0440709  38.7534138
  22.0621517   4.3488699  39.9848318  26.1987977  10.6200258  37.9732855
  25.9072785  10.9830239  38.8096316  25.5860108   9.9067266  37.7946187
  27.3983659   8.1853138  30.4935425  28.2330551   8.6242942  30.6572986
  27.5342788   7.7091791  29.6743671  24.4475165   5.7432873  36.4412913
  24.9229287   5.9360519  35.6331764  23.5240731   5.7992059  36.1956297
  17.0801444  13.3739993  22.4894670  16.5075411  13.9930180  22.0365142
  17.6534238  13.9239354  23.0234592  23.1476834   2.6198633  34.6741219
  24.0994257   2.7196730  34.6953443  22.9780285   1.8276901  35.1839303
  21.1691214  -0.2945784  34.8600620  20.5741146  -0.0140771  34.1647108
  20.8840910   0.1948117  35.6317361  20.2998704  13.6577143  23.6203252
  21.2329377  13.5922705  23.8236128  20.2121917  14.4933410  23.1617785
  22.9286721  12.9743013  20.5807200  22.8500352  12.6402877  21.4742958
  23.7496388  13.4664781  20.5798672  25.6264912   5.8404753  33.7883518
  25.5941232   4.9020753  33.9743202  26.2365536   5.9188789  33.0549343
  25.7759400   2.6315796  33.8341801  25.2598449   1.8474253  33.6471730
  26.6599349   2.3034513  33.9988321  31.4441462   6.9020759  32.9289555
  32.1744850   6.6406047  33.4897258  30.8348407   6.1649481  32.9691623
  29.5256759   5.0428622  33.5264006  28.7989923   4.9084587  32.9180498
  29.1104046   5.3505451  34.3320724  17.3486935   8.7618552  41.2911379
  18.2689945   8.9397151  41.4851426  17.3136518   7.8174597  41.1391079
  10.3449008   6.6719586  33.9334160  10.5635018   7.6036694  33.9522194
  10.7574782   6.3127561  34.7188964  15.0808143   5.6749931  42.1401971
  14.5975225   6.4750291  42.3465860  15.1669082   5.6857876  41.1869415
  11.0081481   9.5654466  34.1770405  11.9624734   9.5338408  34.1100336
  10.8094004   9.1045089  34.9920631  11.5980863   8.1355582  36.7441202
  12.4173752   8.6299660  36.7676040  11.8717671   7.2187550  36.7158770
  21.3547459   0.5266334  26.1069158  20.4673314   0.8115985  25.8889353
  21.7701448   0.3660097  25.2596435  24.7061995   0.5512855  29.8223497
  25.4822385   1.0409307  30.0948114  23.9810129   0.9770909  30.2795367
  27.1434554   1.2640474  30.8797438  27.7379045   1.0236210  30.1690746
  27.2161138   0.5447605  31.5070974   9.3631710  15.1074085  31.1940603
   9.2286177  14.3474486  30.6278601   8.9463772  15.8314985  30.7269392
  20.4990673  10.2911009  20.2017178  21.2026523  10.4961011  20.8174834
  19.7753321  10.8587771  20.4666261  21.3288483   6.0420870  26.3219448
  21.2723684   6.4989421  25.4827081  21.8816825   5.2811554  26.1442291
  25.1393289   1.8310602  27.1469568  24.8830223   1.4307237  27.9777775
  24.5146157   2.5454396  27.0219707  29.4505627   4.5706675  29.6540859
  28.8905185   4.6399864  30.4272421  28.8449130   4.3947660  28.9340355
  12.5200835  16.0043402  31.4059045  12.4033220  16.9488835  31.3037736
  11.6993282  15.7016964  31.7944844  22.4077370  10.7293538  22.2515638
  23.2422974  10.2974736  22.0693113  22.2461713  10.5575551  23.1792532
  22.0623262   7.2325651  23.6171977  22.0072066   7.0669923  22.6760421
  21.4369317   7.9401684  23.7734167  19.3769169   9.5374563  42.9425540
  20.2460329   9.7115215  42.5812175  18.8975921  10.3568980  42.8201269
  13.5455350  16.6571664  34.6214974  14.4482596  16.6895274  34.9381469
  13.3192720  15.7272115  34.6361310  15.3008952  15.4102651  31.2825052
  14.3504583  15.4104512  31.1689425  15.6041438  14.6635385  30.7661087
  23.7038167  23.0526093  28.2729230  23.1403032  22.9616030  27.5045518
  23.5890562  22.2325998  28.7531723  28.3271134  22.3525469  38.2418545
  28.3159775  21.9578267  37.3699049  28.4891774  21.6191541  38.8352316
  21.2502599  24.5477285  31.1113451  22.0423891  24.2068110  30.6959750
  21.4899249  24.6572260  32.0315604  29.2837726  26.7197061  23.5843695
  28.6325706  27.3051142  23.1977709  30.0782089  27.2503256  23.6438733
  23.2093353  23.8086198  23.9830830  23.9824229  23.2615185  23.8443705
  23.5618752  24.6730448  24.1945291  25.5459631  19.9678864  21.6149280
  25.7985151  19.4460386  20.8532743  24.6084190  19.8045010  21.7175963
  30.5902914  18.9714643  29.4224023  31.3766003  18.5534066  29.0714440
  30.8541618  19.8760735  29.5905671  30.7612991  24.4087493  24.1212680
  30.1258824  24.4822120  24.8333584  30.4310397  24.9981092  23.4431759
  25.2655919  21.8706970  23.8173655  25.1492178  21.1951874  24.4854739
  25.3758179  21.3839344  23.0005808  27.6087460  21.3317117  27.5220344
  27.2445668  20.8047738  28.2333265  28.4654576  20.9415587  27.3486829
  33.5136761  12.6211450  34.7851610  33.1820086  13.4906861  34.5612825
  32.9182374  12.3047734  35.4645640  27.2492947  16.3607017  22.5181692
  27.4167350  17.2287254  22.8852163  27.0590116  16.5234299  21.5942982
  23.4580762  21.2737793  30.2184227  22.5331259  21.1414007  30.4261919
  23.7065175  22.0532012  30.7154169  27.2282168  18.8164675  23.5028359
  27.1081793  19.2621725  24.3413839  26.5334757  19.1649992  22.9441897
  20.8189573  20.9171066  31.0528016  20.9481954  21.1705545  31.9667428
  20.1387024  21.5098774  30.7332671  27.4806290  18.7596182  39.8079857
  26.7039624  19.3190102  39.7982722  28.1196853  19.2452965  40.3294727
  32.9267234  19.2886148  24.3308693  33.8385091  19.5213535  24.1556391
  32.4176881  19.8723192  23.7683772  25.7352662  21.5681635  39.3697824
  26.4767347  22.1066679  39.0932648  25.0289648  22.1947924  39.5269376
  30.7138517  16.3087751  36.9984716  30.4699449  17.0629811  36.4618992
  30.9898448  16.6873098  37.8331963  30.2703209  15.4644184  32.5798554
  29.4087688  15.7625437  32.8715292  30.2965644  15.6814583  31.6479587
  27.0864779  24.0086374  28.9872360  27.5503124  24.2874077  28.1976982
  26.8221577  23.1069819  28.8045450  23.9788860  23.5557856  31.9252123
  24.5490217  23.9845124  31.2869607  24.5696972  23.2740441  32.6236309
  26.0233665  20.1309527  25.7961925  26.7257708  20.5830570  26.2635851
  25.6914293  19.4893346  26.4241818  24.4714026  18.7221283  40.1713134
  23.8412687  19.4037564  40.4048531  24.3650114  18.6104365  39.2266272
  19.7658999  18.3893079  31.0979058  18.9758053  18.6450608  30.6219169
  20.2570246  19.2041417  31.2031099  21.7173744  18.7537659  28.0562535
  20.9204907  18.8656353  28.5746031  21.4899336  19.0924311  27.1903426
  18.0496702  18.6423570  33.5294049  18.3004740  19.5270580  33.7951625
  18.5856250  18.4628171  32.7569141  41.8728801  22.0737067  30.1969311
  41.1192510  21.5044465  30.0413315  42.0076342  22.0399732  31.1439945
  27.2627429  26.9450469  25.8724030  27.1273104  27.7902005  26.3008878
  27.8037242  27.1469747  25.1089964  23.7494769  13.0242049  42.5338385
  23.3561714  12.4708248  43.2086030  24.5660909  13.3352628  42.9244903
  20.7156827  24.4625907  26.4451955  21.2281347  25.2569158  26.5957520
  21.3679539  23.7652198  26.3785557  22.5251711  27.5791664  28.5274708
  22.7018340  28.5009628  28.3395692  23.3208545  27.2650083  28.9569088
  26.6662730  14.4399928  40.1258642  27.4072443  15.0407081  40.0463104
  26.8980653  13.6977566  39.5676684  21.8104068  19.6256296  38.4036872
  21.6957583  18.7241553  38.7043970  20.9548586  19.8719992  38.0521688
  30.6119893  10.4681031  34.4022924  30.2684162  11.3582673  34.3262034
  30.9798855  10.2782689  33.5392509  18.6805743  22.7914562  27.2211526
  19.5180965  23.2011570  27.0045233  18.8584011  21.8514004  27.1911720
  30.5770176  20.4589642  22.9095359  30.0616799  21.2294247  23.1483746
  30.3047484  19.7854779  23.5328420  28.1617287  15.3039343  27.9680597
  27.3058883  14.9146194  27.7886236  28.5744238  15.3831304  27.1080383
  29.6916433  12.8385686  32.3672157  29.1881229  12.8015822  31.5539962
  29.9847040  13.7478429  32.4268813  25.9359319  12.9224416  31.3738339
  26.8012316  12.7267225  31.0144228  26.0036828  12.6934768  32.3007695
  30.3656479  18.3316734  24.7355140  30.0606614  18.6462884  25.5865283
  31.3186921  18.4098154  24.7782473  28.8102911  24.4906958  26.3848094
  28.2824272  23.7559717  26.0721331  28.3090413  25.2681634  26.1388062
  23.5421638  15.1526624  28.7454705  24.1165390  14.9301806  28.0127898
  24.1292621  15.2215319  29.4983307  23.8691225  17.1831085  22.7650591
  23.0328538  17.5205772  23.0859865  23.7295995  17.0480065  21.8277728
  25.8444306  12.0267873  27.4729775  25.1908718  11.7116890  26.8486390
  25.8024780  11.4043613  28.1989598  26.9555511  22.3087168  19.3883067
  26.0482572  22.0776421  19.5874216  27.4526543  21.5124787  19.5757048
  29.8617094  19.9141222  26.9280103  30.6088913  20.4262619  26.6187225
  30.1308684  19.5925275  27.7884496  28.1343744  22.4099763  23.9107057
  27.2254963  22.1258796  24.0079527  28.1638828  22.8298841  23.0510364
  32.3095931  16.9498338  28.9098892  31.5718688  16.4375725  29.2409134
  32.5622705  16.5098720  28.0982169  31.8095951  27.8582849  28.6148043
  32.1018925  28.4187906  27.8960408  32.3194571  28.1511410  29.3701202
  32.4107558   9.7274590  29.5040661  32.7166435   8.8671954  29.2166576
  33.1360163  10.3192211  29.3039655  18.7031915  20.1305277  27.8922259
  18.5056314  19.5374638  27.1673326  18.1478579  19.8257487  28.6098198
  27.8319832  23.9508507  21.2495135  27.3939262  23.2344366  20.7900773
  28.5730273  24.1784621  20.6880227  24.6220998  18.6405443  27.7707231
  23.8088864  18.9399614  28.1772423  25.1179992  18.2461132  28.4881713
  26.7729576  28.6363200  29.7041496  26.7305755  28.8624046  28.7750028
  27.6892275  28.4026575  29.8527297  30.2195210  19.1047268  36.6022125
  30.5744598  19.3318741  37.4616591  30.8667341  19.4365645  35.9799380
  24.1135073  16.2123799  33.3868466  24.7534452  16.0712558  32.6891429
  23.2812603  15.9258312  33.0107068  24.8895377  25.5126229  29.5003459
  25.6835975  25.0176549  29.2986034  24.1787069  24.9844092  29.1371164
  21.1978140  19.6569311  25.5763211  20.2675728  19.5953766  25.7933173
  21.2935612  19.1345264  24.7799852  21.1163689  16.1824124  28.1641453
  21.3770507  17.0969457  28.0550613  21.9380862  15.7148566  28.3138066
  22.5888615  17.5961881  35.3340277  23.2611668  17.3879243  34.6852926
  21.7618401  17.3983967  34.8945510  28.4914187  14.2223822  37.3505938
  27.8442102  14.9213772  37.2570415  29.2615202  14.6559966  37.7182186
  27.4666653  26.0855251  33.1801296  27.3277739  25.7174036  34.0527234
  26.6781249  26.6002891  33.0085253  29.0171868  25.4636854  30.5690133
  28.6821701  25.4237624  31.4647783  28.5175814  24.7981570  30.0960544
  22.9916112  20.8704484  36.0942715  22.8535910  20.1384723  36.6954254
  23.9021035  20.7813384  35.8126902  31.9531060  22.8092888  20.8427193
  31.3360230  22.0839716  20.7460246  31.4847548  23.5702248  20.4994267
  24.3327347  17.5689661  37.4022034  23.7964704  17.1180400  38.0543630
  23.7444055  17.7035570  36.6592498  22.6275890  34.3353710  31.2966692
  22.8672488  34.9672235  31.9745711  21.7845087  33.9841750  31.5832052
  23.7429606  17.0278313  19.9648497  22.8659072  16.9067113  19.6010744
  24.2187359  16.2364391  19.7127386  15.2631746  21.8155472  30.0590004
  15.9502785  21.5017202  29.4711020  15.1079874  22.7196837  29.7857256
  20.0666468  16.7045669  34.4875028  19.9824657  16.0971338  33.7525438
  19.2449174  17.1954687  34.4884525  30.2390182  15.1899232  29.8545223
  30.7358881  14.4369195  29.5346293  29.4677163  15.2263549  29.2888433
  31.3219962  23.9470920  27.4283647  30.3876241  24.0672382  27.2588351
  31.4996631  23.0443386  27.1643656  26.8225150  17.3316615  29.5816908
  26.4522938  16.7787656  30.2697813  27.3184243  16.7274749  29.0291908
  32.7768745  26.1332060  24.9619833  33.0528589  26.0188655  25.8713707
  31.9073244  25.7349545  24.9232006  32.6809176  12.1568826  32.0024582
  31.7672256  12.3873053  32.1706789  33.1102278  12.2407270  32.8538614
  29.7464974  29.3086596  25.8667695  30.2752741  28.7979051  25.2537857
  30.0093194  28.9929126  26.7313228  20.2482067  27.3250465  33.6103028
  20.8335504  26.5794153  33.7430933  20.0506906  27.6354422  34.4939692
  23.1020722  30.3601713  28.6265471  22.4331098  30.8447840  28.1429511
  22.9633592  30.6070933  29.5408849  14.8399722  19.8956066  32.3307472
  14.8783821  19.3619656  33.1244590  14.3340015  19.3691271  31.7118449
  22.2190484  14.7420606  35.8270014  22.2831811  15.6035437  35.4147412
  22.1557604  14.1294608  35.0942372  21.6942757  16.8143739  39.4743048
  22.3214795  16.4320816  40.0880573  20.8370675  16.5957941  39.8398741
  18.4708299  18.6220168  25.4061403  18.7661740  17.7130846  25.3528457
  17.5696335  18.6007907  25.0842405  22.0002546  16.6976164  31.3888952
  21.2789132  17.3112132  31.2496425  22.7895802  17.2333929  31.3105598
  24.8028860  14.0330591  37.6629603  25.3263262  14.2792887  38.4255913
  24.5841193  14.8650626  37.2432741  20.1996141  16.3034265  25.5300728
  19.8708847  15.4231644  25.3475834  20.5535512  16.2481934  26.4177117
  29.4475720  27.9389168  30.0395714  29.3000682  27.0105876  30.2203284
  30.2729213  27.9609259  29.5552789  23.3137964  16.5907235  25.8976206
  23.6534037  17.1193156  25.1754814  23.7610085  16.9287641  26.6734772
  26.0081405  14.9744286  35.3479274  25.6678225  14.1752099  35.7499954
  25.3020411  15.2745997  34.7756107  26.6597877  12.0593598  33.8006597
  27.4823946  11.5854077  33.6785487  26.9035940  12.8384082  34.3005283
  25.3006111  15.0881857  24.0969499  26.0214474  15.4663110  23.5933215
  24.6771415  15.8070734  24.2004477  29.4437234  15.7927006  25.0327831
  29.6600849  16.6751644  24.7316659  28.9631301  15.4013219  24.3033473
  24.1836456  18.7512719  31.6098576  24.0381036  19.0653022  32.5022857
  23.7061659  19.3697619  31.0569474  26.0432838  15.7415267  31.6579465
  26.0294407  14.8456360  31.3211763  26.7605267  15.7485931  32.2917751
  27.8958969  16.1752607  33.7032593  27.6376747  17.0969678  33.7016923
  27.3644009  15.7783042  34.3933057  32.8405158  29.2803394  26.4822678
  33.0142035  28.7149817  25.7296530  33.3334049  30.0804289  26.3002168
  18.6582118  21.2918063  34.5486237  18.1135586  22.0677871  34.6806511
  19.5361468  21.6388868  34.3905358  25.4469734  14.6229647  26.9267035
  25.5685646  13.6946293  27.1257923  25.1571777  14.6368333  26.0145351
  28.3160925  12.3084558  30.0633755  28.3382622  12.3723891  29.1085735
  28.7328984  11.4689066  30.2574261  33.8280330  28.5970159  23.5819576
  34.5231235  29.2176851  23.8006891  34.1703480  27.7465510  23.8571954
  19.4448140  20.4187960  37.4416394  18.7029876  20.5670595  38.0281024
  19.1240884  20.6796225  36.5783143  19.8904753  28.3053388  29.4726788
  20.7162773  28.0057160  29.0925432  19.5398805  27.5361011  29.9216577
  24.8586286  27.6579857  31.5424462  24.2366296  26.9950562  31.2426690
  25.5291153  27.6840989  30.8598110  18.0913358  26.2239715  30.4315722
  17.2545267  25.7961889  30.2499723  18.0637004  26.4172158  31.3686513
  24.9310814  16.1361645  41.1356968  24.9798969  17.0123767  40.7534737
  25.4733328  15.5939038  40.5628611  24.4199793  26.2083780  25.0182922
  24.5687914  26.8919244  24.3649595  25.2266237  26.1888870  25.5332378
  32.8267297  19.5126162  39.0450140  33.7277160  19.3732627  38.7534138
  32.9015271  19.6780617  39.9848318  27.1610102  16.8893017  37.8903326
  26.2913412  17.1826583  37.6185915  27.3969583  17.4733462  38.6110590
  22.1752426  22.2348958  26.0243991  21.9298468  21.3311288  26.2224201
  22.3448341  22.2366108  25.0823469  29.8649136  13.1072634  35.4068747
  30.3831080  13.8433661  35.0815235  29.5104269  13.4136627  36.2415506
  21.4448074  17.9677315  23.5230153  20.7517319  18.0421670  22.8670189
  21.1999826  17.2037659  24.0451670  30.1161730   9.5272917  30.9269643
  30.3963484   8.8596106  31.5530070  30.9012337   9.7202012  30.4144307
  27.9195199  28.7031910  22.4894670  27.3469166  29.3222098  22.0365142
  28.4927992  29.2531272  23.0234592  32.0084968  15.0346134  34.8600620
  31.4134900  15.3151146  34.1647108  31.7234665  15.5240035  35.6317361
  31.1392459  28.9869061  23.6203252  32.0723132  28.9214622  23.8236128
  31.0515671  29.8225327  23.1617785  33.7680475  28.3034931  20.5807200
  33.6894107  27.9694794  21.4742958  34.5890142  28.7956699  20.5798672
  28.3041997  20.0392723  19.8310722  29.2501102  19.9098931  19.8999140
  27.9256242  19.3007385  20.3080150  34.2763882  11.7048729  29.7937614
  34.0788703  11.3963817  30.6780946  34.8863587  12.4310368  29.9235544
  42.2835216  22.2312677  32.9289555  43.0138605  21.9697965  33.4897258
  41.6742162  21.4941399  32.9691623  26.4884914  17.9642700  19.7665607
  25.5816370  17.6675812  19.8428321  26.7660895  17.6672518  18.8999894
  17.4062855  19.2849063  30.2164654  17.0865639  18.4314371  29.9239028
  16.8596283  19.4997641  30.9722621  21.1842762  22.0011504  33.9334160
  21.4028772  22.9328612  33.9522194  21.5968536  21.6419478  34.7188964
  28.1046980  12.5079589  25.9209849  27.2947709  12.1626674  26.2965095
  28.7931397  12.1987133  26.5097460  30.0337528  11.5857636  27.5434145
  30.5868567  12.0053089  28.2024169  30.2707615  10.6593384  27.5857101
  26.0570628  17.5744710  43.3236909  25.9567355  18.5239067  43.2549000
  25.8392170  17.2462949  42.4512979  25.2583699  14.8229635  19.9077587
  26.1202863  15.1484533  20.1673404  25.4434043  14.0361131  19.3950652
  17.2751115  22.9051974  32.1857775  16.5814586  22.4905927  31.6727730
  18.0224106  22.9472511  31.5891194  33.4116336  13.6958161  27.0512810
  32.8315005  14.3542965  26.6690862  33.1452268  12.8735506  26.6400227
  31.8619902  13.0963219  29.2534130  32.3619680  13.2079753  28.4448449
  32.5055510  12.7924272  29.8934938  19.1887857  22.8370228  30.0623790
  19.1658545  22.9357916  29.1105673  19.4988494  23.6835379  30.3840956
  21.8475235  24.8946383  34.1770405  22.8018489  24.8630326  34.1100336
  21.6487759  24.4337007  34.9920631  22.4374617  23.4647499  36.7441202
  23.2567506  23.9591578  36.7676040  22.7111425  22.5479467  36.7158770
  32.1941214  15.8558252  26.1069158  31.3067069  16.1407902  25.8889353
  32.6095203  15.6952015  25.2596435  20.2025464  30.4366003  31.1940603
  20.0679932  29.6766404  30.6278601  19.7857526  31.1606903  30.7269392
  31.3384427  25.6202926  20.2017178  32.0420277  25.8252929  20.8174834
  30.6147076  26.1879688  20.4666261  32.1682237  21.3712788  26.3219448
  32.1117439  21.8281339  25.4827081  32.7210580  20.6103472  26.1442291
  35.9787043  17.1602519  27.1469568  35.7223977  16.7599155  27.9777775
  35.3539911  17.8746313  27.0219707  40.2899381  19.8998593  29.6540859
  39.7298939  19.9691782  30.4272421  39.6842884  19.7239577  28.9340355
  23.3594590  31.3335320  31.4059045  23.2426974  32.2780752  31.3037736
  22.5387036  31.0308881  31.7944844  33.2471124  26.0585455  22.2515638
  34.0816728  25.6266654  22.0693113  33.0855467  25.8867469  23.1792532
  32.9017017  22.5617569  23.6171977  32.8465820  22.3961840  22.6760421
  32.2763072  23.2693602  23.7734167  17.6909532  17.7985633  37.4433399
  18.3368395  17.2884587  37.9320625  17.4826683  18.5354315  38.0176825
  26.2113142  12.0625678  23.1957296  26.1991812  13.0067518  23.3525567
  27.1036564  11.8795823  22.9016757  30.0265262   8.6568454  27.4503232
  29.2597657   8.1026941  27.5959915  30.4375967   8.7290323  28.3117384
  22.0307023  14.9453250  41.5408414  22.8938484  14.5890055  41.7511738
  21.4572433  14.6067145  42.2283818  34.5431922  38.3818011  28.2729230
  33.9796787  38.2907948  27.5045518  34.4284317  37.5617916  28.7531723
  32.0896353  39.8769203  31.1113451  32.8817645  39.5360027  30.6959750
  32.3293004  39.9864178  32.0315604  40.1231480  42.0488979  23.5843695
  39.4719460  42.6343059  23.1977709  40.9175843  42.5795174  23.6438733
  34.0487107  39.1378116  23.9830830  34.8217983  38.5907103  23.8443705
  34.4012506  40.0022365  24.1945291  36.3853385  35.2970782  21.6149280
  36.6378906  34.7752303  20.8532743  35.4477944  35.1336928  21.7175963
  41.6006745  39.7379411  24.1212680  40.9652578  39.8114037  24.8333584
  41.2704152  40.3273010  23.4431759  36.1049674  37.1998888  23.8173655
  35.9885932  36.5243791  24.4854739  36.2151934  36.7131262  23.0005808
  38.4481215  36.6609035  27.5220344  38.0839422  36.1339656  28.2333265
  39.3048331  36.2707504  27.3486829  38.0886702  31.6898935  22.5181692
  38.2561104  32.5579171  22.8852163  37.8983871  31.8526217  21.5942982
  34.2974517  36.6029711  30.2184227  33.3725013  36.4705925  30.4261919
  34.5458930  37.3823930  30.7154169  38.0675923  34.1456592  23.5028359
  37.9475548  34.5913643  24.3413839  37.3728511  34.4941910  22.9441897
  35.8282815  46.9160234  27.1518490  35.7506845  47.8668059  27.2306971
  35.2244458  46.5706107  27.8093417  37.9258533  39.3378292  28.9872360
  38.3896879  39.6165995  28.1976982  37.6615331  38.4361737  28.8045450
  36.8627419  35.4601444  25.7961925  37.5651462  35.9122488  26.2635851
  36.5308048  34.8185263  26.4241818  52.7122556  37.4028985  30.1969311
  51.9586264  36.8336383  30.0413315  52.8470097  37.3691649  31.1439945
  38.1021184  42.2742387  25.8724030  37.9666859  43.1193923  26.3008878
  38.6430996  42.4761665  25.1089964  33.3645466  42.9083581  28.5274708
  33.5412094  43.8301546  28.3395692  34.1602299  42.5942001  28.9569088
  39.6496665  39.8198875  26.3848094  39.1218027  39.0851635  26.0721331
  39.1484168  40.5973552  26.1388062  34.7084980  32.5123003  22.7650591
  33.8722292  32.8497689  23.0859865  34.5689749  32.3771983  21.8277728
  37.7949265  37.6379086  19.3883067  36.8876327  37.4068339  19.5874216
  38.2920297  36.8416705  19.5757048  40.7017344  46.3476593  22.3079753
  40.0279043  46.6508290  22.9164711  41.0883166  47.1505673  21.9585210
  38.9737499  37.7391681  23.9107057  38.0648718  37.4550713  24.0079527
  39.0032582  38.1590759  23.0510364  42.6489705  43.1874767  28.6148043
  42.9412680  43.7479824  27.8960408  43.1588326  43.4803328  29.3701202
  38.6713586  39.2800424  21.2495135  38.2333016  38.5636283  20.7900773
  39.4124027  39.5076539  20.6880227  35.4614753  33.9697361  27.7707231
  34.6482618  34.2691531  28.1772423  35.9573747  33.5753050  28.4881713
  37.6123331  43.9655118  29.7041496  37.5699509  44.1915964  28.7750028
  38.5286029  43.7318492  29.8527297  35.7289131  40.8418147  29.5003459
  36.5229730  40.3468467  29.2986034  35.0180824  40.3136010  29.1371164
  31.9557444  31.5116041  28.1641453  32.2164261  32.4261375  28.0550613
  32.7774616  31.0440484  28.3138066  38.9008559  46.5156265  24.5226832
  39.0760315  46.0444309  25.3372455  38.2141347  47.1422032  24.7508093
  42.7924814  38.1384806  20.8427193  42.1753985  37.4131634  20.7460246
  42.3241303  38.8994166  20.4994267  33.4669645  49.6645628  31.2966692
  33.7066243  50.2964152  31.9745711  32.6238841  49.3133668  31.5832052
  34.5823360  32.3570230  19.9648497  33.7052826  32.2359031  19.6010744
  35.0581113  31.5656308  19.7127386  37.9797506  45.4724751  33.7008196
  37.9067678  46.2779722  34.2127501  37.5374900  45.6716716  32.8756218
  37.7687286  44.7096521  27.2111018  36.9854808  45.2518201  27.3049242
  38.4680031  45.2270500  27.6105259  40.2516563  45.7110329  28.6052646
  40.4338958  44.8931985  29.0680399  41.0749549  45.9278021  28.1677536
  40.5858729  44.6378514  25.8667695  41.1146495  44.1270968  25.2537857
  40.8486948  44.3221044  26.7313228  33.9414477  45.6893630  28.6265471
  33.2724852  46.1739758  28.1429511  33.8027346  45.9362851  29.5408849
  41.2188133  45.6719350  32.2111811  41.0939272  44.8709089  31.7022757
  41.8767224  46.1665543  31.7225781  34.1531719  31.9199153  25.8976206
  34.4927791  32.4485074  25.1754814  34.6003839  32.2579559  26.6734772
  36.1399866  30.4173774  24.0969499  36.8608228  30.7955027  23.5933215
  35.5165170  31.1362651  24.2004477  43.6798912  44.6095312  26.4822678
  43.8535790  44.0441734  25.7296530  44.1727804  45.4096207  26.3002168
  44.6674085  43.9262076  23.5819576  45.3624989  44.5468769  23.8006891
  45.0097235  43.0757428  23.8571954  38.2506169  47.4433765  29.4702160
  37.8111159  46.9510144  30.1635017  39.0014286  46.9006733  29.2294235
  30.7298508  43.6345306  29.4726788  31.5556528  43.3349078  29.0925432
  30.3792560  42.8652929  29.9216577  35.2593548  41.5375698  25.0182922
  35.4081668  42.2211162  24.3649595  36.0659991  41.5180788  25.5332378
  38.7588953  44.0323828  22.4894670  38.1862920  44.6514015  22.0365142
  39.3321747  44.5823190  23.0234592  41.9786213  44.3160978  23.6203252
  42.9116886  44.2506540  23.8236128  41.8909426  45.1517245  23.1617785
  44.6074230  43.6326849  20.5807200  44.5287861  43.2986712  21.4742958
  45.4283897  44.1248616  20.5798672  39.1435752  35.3684641  19.8310722
  40.0894857  35.2390849  19.8999140  38.7649997  34.6299303  20.3080150
  37.3278669  33.2934617  19.7665607  36.4210124  32.9967730  19.8428321
  37.6054650  32.9964435  18.8999894  36.0977454  30.1521552  19.9077587
  36.9596618  30.4776451  20.1673404  36.2827798  29.3653048  19.3950652
  30.0281612  38.1662146  30.0623790  30.0052300  38.2649833  29.1105673
  30.3382248  39.0127297  30.3840956  31.0419219  45.7657920  31.1940603
  30.9073686  45.0058321  30.6278601  30.6251281  46.4898820  30.7269392
  42.1778182  40.9494844  20.2017178  42.8814032  41.1544846  20.8174834
  41.4540830  41.5171606  20.4666261  34.1988344  46.6627237  31.4059045
  34.0820729  47.6072670  31.3037736  33.3780791  46.3600799  31.7944844
  44.0864879  41.3877373  22.2515638  44.9210483  40.9558572  22.0693113
  43.9249222  41.2159387  23.1792532  43.7410771  37.8909486  23.6171977
  43.6859575  37.7253758  22.6760421  43.1156826  38.5985519  23.7734167
  36.9796461  46.0686486  31.2825052  36.0292092  46.0688347  31.1689425
  37.2828947  45.3219220  30.7661087  47.2247140  50.6262700  21.6149280
  47.4772660  50.1044221  20.8532743  46.2871699  50.4628845  21.7175963
  48.9280456  47.0190853  22.5181692  49.0954859  47.8871089  22.8852163
  48.7377625  47.1818134  21.5942982  41.4446508  49.0476915  31.0979058
  40.6545562  49.3034443  30.6219169  41.9357755  49.8625253  31.2031099
  43.3961253  49.4121494  28.0562535  42.5992416  49.5240188  28.5746031
  43.1686845  49.7508146  27.1903426  39.7284211  49.3007405  33.5294049
  39.9792249  50.1854415  33.7951625  40.2643759  49.1212007  32.7569141
  45.2209147  45.8110459  28.7454705  45.7952899  45.5885641  28.0127898
  45.8080130  45.8799154  29.4983307  45.5478734  47.8414920  22.7650591
  44.7116047  48.1789607  23.0859865  45.4083504  47.7063900  21.8277728
  40.3819424  50.7889112  27.8922259  40.1843823  50.1958473  27.1673326
  39.8266088  50.4841323  28.6098198  42.8765649  50.3153146  25.5763211
  41.9463237  50.2537602  25.7933173  42.9723121  49.7929099  24.7799852
  42.7951198  46.8407959  28.1641453  43.0558016  47.7553292  28.0550613
  43.6168371  46.3732402  28.3138066  45.4217115  47.6862148  19.9648497
  44.5446581  47.5650949  19.6010744  45.8974868  46.8948226  19.7127386
  36.9419255  52.4739308  30.0590004  37.6290294  52.1601038  29.4711020
  36.7867383  53.3780672  29.7857256  36.5187231  50.5539901  32.3307472
  36.5571330  50.0203492  33.1244590  36.0127524  50.0275106  31.7118449
  40.1495808  49.2804003  25.4061403  40.4449249  48.3714682  25.3528457
  39.2483844  49.2591743  25.0842405  41.8783650  46.9618101  25.5300728
  41.5496356  46.0815480  25.3475834  42.2323021  46.9065769  26.4177117
  44.9925473  47.2491071  25.8976206  45.3321546  47.7776992  25.1754814
  45.4397594  47.5871477  26.6734772  46.9793620  45.7465692  24.0969499
  47.7001983  46.1246945  23.5933215  46.3558924  46.4654569  24.2004477
  40.3369627  51.9501899  34.5486237  39.7923095  52.7261707  34.6806511
  41.2148977  52.2972703  34.3905358  47.1257243  45.2813483  26.9267035
  47.2473155  44.3530129  27.1257923  46.8359286  45.2952169  26.0145351
  43.1235583  48.6261151  23.5230153  42.4304828  48.7005506  22.8670189
  42.8787335  47.8621494  24.0451670  49.9829506  50.6976559  19.8310722
  50.9288611  50.5682767  19.8999140  49.6043751  49.9591220  20.3080150
  48.1672423  48.6226535  19.7665607  47.2603879  48.3259648  19.8428321
  48.4448404  48.3256353  18.8999894  39.0850364  49.9432898  30.2164654
  38.7653148  49.0898207  29.9239028  38.5383792  50.1581476  30.9722621
  46.9371208  45.4813470  19.9077587  47.7990372  45.8068368  20.1673404
  47.1221552  44.6944966  19.3950652  38.9538624  53.5635810  32.1857775
  38.2602095  53.1489763  31.6727730  39.7011615  53.6056346  31.5891194
  40.8675366  53.4954064  30.0623790  40.8446054  53.5941751  29.1105673
  41.1776003  54.3419214  30.3840956  47.8900651  42.7209513  23.1957296
  47.8779321  43.6651353  23.3525567  48.7824073  42.5379659  22.9016757
  63.5542909  67.2338942  32.3470815  64.1921318  67.1145689  31.6434155
  63.4363751  68.1819786  32.4058767  56.2219430  69.0401846  28.2729230
  55.6584296  68.9491783  27.5045518  56.1071826  68.2201751  28.7531723
  53.7683862  70.5353038  31.1113451  54.5605154  70.1943863  30.6959750
  54.0080513  70.6448013  32.0315604  61.8018989  72.7072814  23.5843695
  61.1506969  73.2926895  23.1977709  62.5963352  73.2379009  23.6438733
  55.7274616  69.7961951  23.9830830  56.5005492  69.2490938  23.8443705
  56.0800015  70.6606201  24.1945291  63.2794254  70.3963246  24.1212680
  62.6440087  70.4697873  24.8333584  62.9491661  70.9856845  23.4431759
  68.5092604  64.8965629  30.3257001  69.2417776  64.3264846  30.5594831
  67.7531960  64.5087229  30.7663507  66.0318024  58.6087203  34.7851610
  65.7001349  59.4782614  34.5612825  65.4363638  58.2923487  35.4645640
  65.9246688  63.3282289  31.8644960  65.0163565  63.2597698  31.5703721
  65.8734284  63.8054234  32.6926785  57.5070324  77.5744069  27.1518490
  57.4294354  78.5251895  27.2306971  56.9031967  77.2289942  27.8093417
  67.7908334  61.5298728  33.6422834  67.1482714  61.8231261  32.9962628
  67.2863263  61.4151648  34.4476031  65.4448498  65.2761901  24.3308693
  66.3566354  65.5089288  24.1556391  64.9358145  65.8598945  23.7683772
  64.0518080  70.2587719  31.7222275  63.4226943  70.4233433  31.0198342
  63.6643742  70.6729329  32.4933239  67.9307312  71.1942157  29.0766638
  67.2458350  71.5741059  28.5263672  68.0151161  71.8037484  29.8098586
  63.2319781  62.2963504  36.9984716  62.9880713  63.0505564  36.4618992
  63.5079711  62.6748851  37.8331963  59.6046042  69.9962127  28.9872360
  60.0684388  70.2749830  28.1976982  59.3402840  69.0945572  28.8045450
  66.3004072  71.7174072  33.8484339  67.1221515  71.3154259  33.5667021
  66.2966475  71.6142306  34.8000455  74.3910065  68.0612820  30.1969311
  73.6373773  67.4920218  30.0413315  74.5257606  68.0275485  31.1439945
  59.7808693  72.9326222  25.8724030  59.6454368  73.7777758  26.3008878
  60.3218505  73.1345500  25.1089964  53.2338090  70.4501660  26.4451955
  53.7462611  71.2444911  26.5957520  53.8860803  69.7527951  26.3785557
  55.0432975  73.5667417  28.5274708  55.2199603  74.4885381  28.3395692
  55.8389808  73.2525836  28.9569088  61.4077169  73.5549789  40.0024372
  60.9641023  72.7686167  39.6845277  62.0694383  73.7428939  39.3368263
  56.1664290  75.0845591  34.5285051  56.7171715  74.9562654  33.7562045
  55.3275766  75.3840480  34.1779943  63.5058407  73.8352589  38.0305773
  63.4876883  74.6561470  37.5386043  64.4278327  73.7106664  38.2555915
  63.1301156  56.4556784  34.4022924  62.7865426  57.3458426  34.3262034
  63.4980119  56.2658442  33.5392509  51.1987007  68.7790315  27.2211526
  52.0362229  69.1887323  27.0045233  51.3765275  67.8389757  27.1911720
  68.0685713  69.1997750  24.8448532  67.2915156  68.8608910  24.4003694
  68.7477194  69.2050373  24.1703497  66.3077020  68.6731731  31.5015140
  65.6500694  69.3630993  31.5895269  67.1117419  69.0628163  31.8449126
  65.1182479  67.0276104  29.5519082  65.6314361  67.6606096  30.0540792
  65.7683703  66.4277299  29.1862442  59.4736774  68.2962921  19.3883067
  58.5663836  68.0652175  19.5874216  59.9707806  67.5000540  19.5757048
  62.3804853  77.0060428  22.3079753  61.7066552  77.3092125  22.9164711
  62.7670675  77.8089509  21.9585210  65.8844275  72.0082105  27.6798224
  65.4306602  71.1673015  27.7363415  65.2538242  72.6443504  28.0173005
  64.8277195  62.9374091  28.9098892  64.0899951  62.4251478  29.2409134
  65.0803968  62.4974473  28.0982169  64.3277214  73.8458602  28.6148043
  64.6200189  74.4063659  27.8960408  64.8375835  74.1387163  29.3701202
  60.3501095  69.9384260  21.2495135  59.9120525  69.2220119  20.7900773
  61.0911536  70.1660374  20.6880227  59.2910840  74.6238953  29.7041496
  59.2487018  74.8499800  28.7750028  60.2073538  74.3902328  29.8527297
  62.7376473  65.0923021  36.6022125  63.0925861  65.3194494  37.4616591
  63.3848605  65.4241398  35.9799380  68.4674210  68.2141457  27.3071454
  68.3292109  68.4043053  26.3792643  68.1110429  68.9760839  27.7639505
  68.4943590  70.2817984  32.3182726  68.9280097  70.1893273  33.1665780
  69.2075171  70.2575484  31.6802742  57.4076640  71.5001982  29.5003459
  58.2017239  71.0052302  29.2986034  56.6968333  70.9719845  29.1371164
  62.2271485  73.8820078  33.8515826  62.2808507  74.4511014  34.6193542
  61.3586266  74.0521963  33.4869863  69.3559139  70.3241684  34.8515611
  69.5495029  71.2287495  35.0974886  69.2559758  69.8649103  35.6854196
  59.9847916  72.0731004  33.1801296  59.8459002  71.7049789  34.0527234
  59.1962513  72.5878644  33.0085253  60.5796068  77.1740101  24.5226832
  60.7547824  76.7028144  25.3372455  59.8928856  77.8005867  24.7508093
  61.5353131  71.4512607  30.5690133  61.2002964  71.4113377  31.4647783
  61.0357077  70.7857323  30.0960544  64.4712323  68.7968641  20.8427193
  63.8541494  68.0715469  20.7460246  64.0028812  69.5578002  20.4994267
  66.1266455  73.5067550  38.5032973  66.0679001  72.8226770  37.8363556
  66.5285973  74.2486540  38.0513599  55.1457154  80.3229463  31.2966692
  55.3853752  80.9547988  31.9745711  54.3026350  79.9717503  31.5832052
  56.2610869  63.0154066  19.9648497  55.3840335  62.8942866  19.6010744
  56.7368622  62.2240144  19.7127386  59.6585015  76.1308586  33.7008196
  59.5855187  76.9363557  34.2127501  59.2162409  76.3300552  32.8756218
  59.4474795  75.3680356  27.2111018  58.6642317  75.9102036  27.3049242
  60.1467540  75.8854336  27.6105259  70.6101203  66.8815351  31.4963515
  70.5991079  67.7640066  31.1257448  69.7418582  66.5286902  31.3018052
  62.1183699  76.0295420  35.8566355  62.8311671  76.6642885  35.7842256
  61.6273728  76.1259286  35.0406357  63.8401226  69.9346673  27.4283647
  62.9057505  70.0548135  27.2588351  64.0177894  69.0319139  27.1643656
  67.2273777  65.7763992  27.9633681  67.6934229  66.6091983  27.8893983
  67.6781278  65.3108973  28.6678939  65.2950008  72.1207813  24.9619833
  65.5709852  72.0064408  25.8713707  64.4254507  71.7225298  24.9232006
  65.1990440  58.1444579  32.0024582  64.2853520  58.3748806  32.1706789
  65.6283541  58.2283023  32.8538614  64.9696898  66.3334471  34.5024476
  64.3168349  66.5810378  33.8476929  65.3477278  65.5198609  34.1686953
  61.9304072  76.3694164  28.6052646  62.1126467  75.5515820  29.0680399
  62.7537058  76.5861856  28.1677536  62.2646238  75.2962349  25.8667695
  62.7934004  74.7854804  25.2537857  62.5274457  74.9804879  26.7313228
  52.7663331  73.3126218  33.6103028  53.3516767  72.5669906  33.7430933
  52.5688169  73.6230175  34.4939692  55.6201986  76.3477466  28.6265471
  54.9512361  76.8323593  28.1429511  55.4814855  76.5946686  29.5408849
  59.7607254  78.3821209  35.2248129  60.3125562  78.5452831  35.9897214
  60.1013448  78.9725647  34.5528154  62.8975642  76.3303185  32.2111811
  62.7726781  75.5292925  31.7022757  63.5554733  76.8249378  31.7225781
  64.9610550  74.1312205  33.8391361  64.0140886  74.0117556  33.7669688
  65.3093323  73.2434703  33.9217623  61.9656983  73.9264921  30.0395714
  61.8181946  72.9981629  30.2203284  62.7910477  73.9485012  29.5552789
  65.5691105  74.7493480  31.1260586  66.4937653  74.5436341  30.9885038
  65.4006409  74.5009881  32.0349928  65.3586421  75.2679147  26.4822678
  65.5323299  74.7025570  25.7296530  65.8515313  76.0680042  26.3002168
  71.2125813  68.0315570  28.1012978  71.6556959  67.2822895  27.7032101
  70.3352323  68.0225707  27.7186710  66.3461594  74.5845912  23.5819576
  67.0412498  75.2052604  23.8006891  66.6884744  73.7341263  23.8571954
  68.2453017  72.0345617  25.1106907  68.7704341  72.3732890  24.3856227
  68.1575370  71.0992633  24.9270042  59.9073066  75.9479691  37.2396784
  60.2160192  75.7028838  38.1119483  60.7048548  76.1526329  36.7515654
  59.9293678  78.1017601  29.4702160  59.4898668  77.6093979  30.1635017
  60.6801795  77.5590568  29.2294235  52.4086017  74.2929141  29.4726788
  53.2344037  73.9932913  29.0925432  52.0580069  73.5236764  29.9216577
  57.3767550  73.6455610  31.5424462  56.7547559  72.9826315  31.2426690
  58.0472417  73.6716742  30.8598110  50.6094622  72.2115468  30.4315722
  49.7726530  71.7837642  30.2499723  50.5818267  72.4047911  31.3686513
  67.9346923  72.6678521  40.4158105  67.1442467  72.6502660  39.8762604
  67.6980278  73.2066815  41.1707141  68.0544798  69.5170987  37.7290833
  68.1042803  69.3520995  38.6706356  67.9458721  68.6498246  37.3388714
  56.9381057  72.1959533  25.0182922  57.0869177  72.8794997  24.3649595
  57.7447500  72.1764623  25.5332378  65.3448560  65.5001915  39.0450140
  66.2458423  65.3608380  38.7534138  65.4196535  65.6656370  39.9848318
  69.5562995  71.9367929  37.9732855  69.2647803  72.2997909  38.8096316
  68.9435126  71.2234937  37.7946187  70.7558677  69.5020809  30.4935425
  71.5905569  69.9410613  30.6572986  70.8917806  69.0259462  29.6743671
  67.8050183  67.0600543  36.4412913  68.2804305  67.2528190  35.6331764
  66.8815749  67.1159729  36.1956297  54.6933690  68.2224711  26.0243991
  54.4479732  67.3187041  26.2224201  54.8629604  68.2241861  25.0823469
  62.3830400  59.0948387  35.4068747  62.9012343  59.8309414  35.0815235
  62.0285532  59.4012380  36.2415506  53.9629337  63.9553068  23.5230153
  53.2698582  64.0297423  22.8670189  53.7181089  63.1913412  24.0451670
  60.4376462  74.6907663  22.4894670  59.8650429  75.3097851  22.0365142
  61.0109256  75.2407025  23.0234592  66.5051852  63.9366304  34.6741219
  67.4569275  64.0364401  34.6953443  66.3355303  63.1444572  35.1839303
  64.5266232  61.0221887  34.8600620  63.9316164  61.3026899  34.1647108
  64.2415928  61.5115788  35.6317361  63.6573722  74.9744814  23.6203252
  64.5904395  74.9090375  23.8236128  63.5696935  75.8101080  23.1617785
  66.2861739  74.2910684  20.5807200  66.2075370  73.9570548  21.4742958
  67.1071406  74.7832452  20.5798672  68.9839930  67.1572423  33.7883518
  68.9516250  66.2188424  33.9743202  69.5940554  67.2356460  33.0549343
  60.8223261  66.0268476  19.8310722  61.7682366  65.8974684  19.8999140
  60.4437506  65.2883138  20.3080150  69.1334418  63.9483467  33.8341801
  68.6173467  63.1641923  33.6471730  70.0174367  63.6202183  33.9988321
  66.7945145  57.6924482  29.7937614  66.5969966  57.3839570  30.6780946
  67.4044851  58.4186121  29.9235544  74.8016480  68.2188430  32.9289555
  75.5319868  67.9573718  33.4897258  74.1923425  67.4817152  32.9691623
  72.8831777  66.3596293  33.5264006  72.1564940  66.2252258  32.9180498
  72.4679064  66.6673121  34.3320724  59.0066178  63.9518453  19.7665607
  58.0997633  63.6551565  19.8428321  59.2842159  63.6548271  18.8999894
  57.7764963  60.8105388  19.9077587  58.6384127  61.1360286  20.1673404
  57.9615307  60.0236884  19.3950652  65.9297599  59.6833914  27.0512810
  65.3496268  60.3418718  26.6690862  65.6633532  58.8611259  26.6400227
  64.3801165  59.0838972  29.2534130  64.8800944  59.1955506  28.4448449
  65.0236773  58.7800025  29.8934938  51.7069121  68.8245981  30.0623790
  51.6839809  68.9233669  29.1105673  52.0169757  69.6711132  30.3840956
  64.7122477  61.8434005  26.1069158  63.8248332  62.1283655  25.8889353
  65.1276466  61.6827768  25.2596435  68.0637013  61.8680526  29.8223497
  68.8397403  62.3576978  30.0948114  67.3385147  62.2938580  30.2795367
  70.5009572  62.5808145  30.8797438  71.0954063  62.3403881  30.1690746
  70.5736156  61.8615275  31.5070974  52.7206728  76.4241756  31.1940603
  52.5861195  75.6642157  30.6278601  52.3038790  77.1482656  30.7269392
  63.8565691  71.6078679  20.2017178  64.5601541  71.8128682  20.8174834
  63.1328339  72.1755441  20.4666261  64.6863501  67.3588541  26.3219448
  64.6298702  67.8157092  25.4827081  65.2391843  66.5979225  26.1442291
  68.4968307  63.1478272  27.1469568  68.2405241  62.7474908  27.9777775
  67.8721175  63.8622066  27.0219707  72.8080645  65.8874346  29.6540859
  72.2480203  65.9567535  30.4272421  72.2024148  65.7115330  28.9340355
  55.8775853  77.3211073  31.4059045  55.7608238  78.2656505  31.3037736
  55.0568300  77.0184634  31.7944844  65.7652388  72.0461209  22.2515638
  66.5997992  71.6142407  22.0693113  65.6036731  71.8743222  23.1792532
  65.4198280  68.5493322  23.6171977  65.3647084  68.3837593  22.6760421
  64.7944335  69.2569355  23.7734167  56.9030368  77.9739335  34.6214974
  57.8057614  78.0062945  34.9381469  56.6767738  77.0439786  34.6361310
  58.6583970  76.7270321  31.2825052  57.7079601  76.7272183  31.1689425
  58.9616456  75.9803056  30.7661087  74.3936663  82.5630860  32.3470815
  75.0315073  82.4437607  31.6434155  74.2757506  83.5111704  32.4058767
  71.2026369  82.5158288  32.2832339  70.8644881  82.3999352  31.3952874
  72.0716137  82.1149453  32.2633346  67.0613185  84.3693764  28.2729230
  66.4978050  84.2783701  27.5045518  66.9465580  83.5493669  28.7531723
  71.6846152  83.6693139  38.2418545  71.6734793  83.2745938  37.3699049
  71.8466792  82.9359212  38.8352316  64.6077617  85.8644956  31.1113451
  65.3998909  85.5235780  30.6959750  64.8474267  85.9739931  32.0315604
  66.5668371  85.1253869  23.9830830  67.3399247  84.5782856  23.8443705
  66.9193770  85.9898118  24.1945291  68.4053413  86.4530251  37.1897729
  68.1143279  87.3575882  37.0744395  69.0410398  86.4946779  37.9041799
  69.3309620  83.8307100  33.7799089  69.9273193  83.6063122  33.0656052
  69.3884592  83.0891845  34.3824536  73.9477931  80.2882313  29.4224023
  74.7341021  79.8701737  29.0714440  74.2116636  81.1928406  29.5905671
  79.3486359  80.2257547  30.3257001  80.0811531  79.6556763  30.5594831
  78.5925714  79.8379147  30.7663507  68.6230937  83.1874641  23.8173655
  68.5067196  82.5119544  24.4854739  68.7333197  82.7007015  23.0005808
  70.9662478  82.6484788  27.5220344  70.6020686  82.1215409  28.2333265
  71.8229594  82.2583257  27.3486829  76.8711779  73.9379121  34.7851610
  76.5395104  74.8074532  34.5612825  76.2757392  73.6215405  35.4645640
  70.6067965  77.6774688  22.5181692  70.7742368  78.5454924  22.8852163
  70.4165134  77.8401970  21.5942982  66.8155780  82.5905464  30.2184227
  65.8906276  82.4581678  30.4261919  67.0640193  83.3699683  30.7154169
  76.7640442  78.6574207  31.8644960  75.8557320  78.5889615  31.5703721
  76.7128038  79.1346152  32.6926785  70.5857186  80.1332345  23.5028359
  70.4656811  80.5789396  24.3413839  69.8909775  80.4817663  22.9441897
  64.1764591  82.2338737  31.0528016  64.3056972  82.4873216  31.9667428
  63.4962042  82.8266445  30.7332671  70.8381308  80.0763853  39.8079857
  70.0614642  80.6357773  39.7982722  71.4771871  80.5620636  40.3294727
  78.6302089  76.8590645  33.6422834  77.9876469  77.1523179  32.9962628
  78.1257017  76.7443566  34.4476031  69.0927680  82.8849306  39.3697824
  69.8342365  83.4234350  39.0932648  68.3864666  83.5115595  39.5269376
  74.5683020  85.0278446  37.9669986  74.9766376  84.5860857  37.2224618
  73.8460282  84.4531074  38.2204179  70.9214090  79.9651053  35.3403543
  71.7675285  80.3890467  35.4838192  70.8612728  79.3084677  36.0342106
  74.0713535  77.6255422  36.9984716  73.8274467  78.3797482  36.4618992
  74.3473466  78.0040769  37.8331963  73.6278227  76.7811855  32.5798554
  72.7662706  77.0793108  32.8715292  73.6540662  76.9982253  31.6479587
  70.4439797  85.3254045  28.9872360  70.9078142  85.6041748  28.1976982
  70.1796595  84.4237490  28.8045450  67.3363878  84.8725527  31.9252123
  67.9065235  85.3012795  31.2869607  67.9271989  84.5908111  32.6236309
  69.3808683  81.4477197  25.7961925  70.0832726  81.8998241  26.2635851
  69.0489311  80.8061016  26.4241818  67.8289044  80.0388954  40.1713134
  67.1987705  80.7205235  40.4048531  67.7225132  79.9272036  39.2266272
  63.1234017  79.7060750  31.0979058  62.3333071  79.9618279  30.6219169
  63.6145264  80.5209088  31.2031099  65.0748762  80.0705329  28.0562535
  64.2779925  80.1824024  28.5746031  64.8474354  80.4091982  27.1903426
  70.9054430  86.5950033  36.0045050  70.9698862  87.0570440  36.8403222
  70.1965353  85.9647398  36.1327360  61.4071720  79.9591241  33.5294049
  61.6579758  80.8438250  33.7951625  61.9431268  79.7795842  32.7569141
  67.1069787  74.3409720  42.5338385  66.7136732  73.7875918  43.2086030
  67.9235927  74.6520298  42.9244903  64.0731845  85.7793578  26.4451955
  64.5856365  86.5736828  26.5957520  64.7254557  85.0819869  26.3785557
  65.8826729  88.8959334  28.5274708  66.0593358  89.8177299  28.3395692
  66.6783563  88.5817754  28.9569088  70.0237748  75.7567599  40.1258642
  70.7647461  76.3574752  40.0463104  70.2555671  75.0145237  39.5676684
  65.1679086  80.9423966  38.4036872  65.0532601  80.0409224  38.7043970
  64.3123604  81.1887663  38.0521688  70.8025216  86.6788636  38.8729282
  71.3353553  85.9176924  38.6428590  70.2739297  86.3862288  39.6153436
  73.9694911  71.7848702  34.4022924  73.6259180  72.6750344  34.3262034
  74.3373873  71.5950360  33.5392509  62.0380761  84.1082232  27.2211526
  62.8755983  84.5179241  27.0045233  62.2159029  83.1681675  27.1911720
  71.5192305  76.6207014  27.9680597  70.6633901  76.2313864  27.7886236
  71.9319256  76.6998975  27.1080383  73.0491451  74.1553357  32.3672157
  72.5456247  74.1183492  31.5539962  73.3422058  75.0646100  32.4268813
  69.2934337  74.2392087  31.3738339  70.1587334  74.0434896  31.0144228
  69.3611846  74.0102439  32.3007695  73.7231497  79.6484405  24.7355140
  73.4181632  79.9630554  25.5865283  74.6761939  79.7265825  24.7782473
  72.1677929  85.8074628  26.3848094  71.6399290  85.0727388  26.0721331
  71.6665431  86.5849305  26.1388062  66.8996656  76.4694295  28.7454705
  67.4740408  76.2469476  28.0127898  67.4867639  76.5382989  29.4983307
  75.9576233  82.3568022  29.5519082  76.4708115  82.9898013  30.0540792
  76.6077457  81.7569217  29.1862442  67.2266243  78.4998756  22.7650591
  66.3903556  78.8373442  23.0859865  67.0871013  78.3647736  21.8277728
  69.2019324  73.3435544  27.4729775  68.5483736  73.0284561  26.8486390
  69.1599798  72.7211284  28.1989598  72.4357064  79.8317477  31.7977422
  71.5179626  80.0532424  31.6399110  72.8517208  79.9063788  30.9389130
  73.2192112  81.2308893  26.9280103  73.9663931  81.7430290  26.6187225
  73.4883702  80.9092946  27.7884496  75.6670949  78.2666009  28.9098892
  74.9293706  77.7543395  29.2409134  75.9197723  77.8266391  28.0982169
  75.7682576  71.0442261  29.5040661  76.0741453  70.1839625  29.2166576
  76.4935181  71.6359881  29.3039655  62.0606933  81.4472948  27.8922259
  61.8631332  80.8542308  27.1673326  61.5053597  81.1425158  28.6098198
  70.0403656  81.3396054  30.0116852  70.0952266  80.3869891  29.9359329
  69.2294858  81.4955493  30.4958151  67.9796016  79.9573114  27.7707231
  67.1663882  80.2567285  28.1772423  68.4755010  79.5628803  28.4881713
  73.5770228  80.4214938  36.6022125  73.9319616  80.6486412  37.4616591
  74.2242359  80.7533315  35.9799380  67.4710091  77.5291469  33.3868466
  68.1109470  77.3880229  32.6891429  66.6387621  77.2425983  33.0107068
  68.2470395  86.8293900  29.5003459  69.0410993  86.3344220  29.2986034
  67.5362087  86.3011763  29.1371164  64.5553158  80.9736982  25.5763211
  63.6250746  80.9121437  25.7933173  64.6510630  80.4512934  24.7799852
  64.4738707  77.4991794  28.1641453  64.7345525  78.4137128  28.0550613
  65.2955880  77.0316237  28.3138066  65.9463633  78.9129552  35.3340277
  66.6186686  78.7046914  34.6852926  65.1193419  78.7151638  34.8945510
  71.8489205  75.5391493  37.3505938  71.2017120  76.2381442  37.2570415
  72.6190220  75.9727636  37.7182186  72.0253339  83.3772257  35.4102758
  72.9545399  83.5283417  35.2371725  71.6044369  83.4656278  34.5551405
  70.8241671  87.4022922  33.1801296  70.6852756  87.0341706  34.0527234
  70.0356267  87.9170561  33.0085253  66.3491130  82.1872155  36.0942715
  66.2110928  81.4552393  36.6954254  67.2596053  82.0981055  35.8126902
  68.9773431  81.8992114  35.5826394  69.6873049  81.2585306  35.5413013
  68.9342739  82.1505009  36.5052575  67.6902365  78.8857332  37.4022034
  67.1539722  78.4348070  38.0543630  67.1019073  79.0203241  36.6592498
  67.1004623  78.3445983  19.9648497  66.2234090  78.2234784  19.6010744
  67.5762377  77.5532062  19.7127386  58.6206764  83.1323143  30.0590004
  59.3077803  82.8184873  29.4711020  58.4654892  84.0364508  29.7857256
  63.4241486  78.0213340  34.4875028  63.3399674  77.4139009  33.7525438
  62.6024192  78.5122358  34.4884525  73.5965200  76.5066903  29.8545223
  74.0933899  75.7536865  29.5346293  72.8252181  76.5431220  29.2888433
  70.1800168  78.6484286  29.5816908  69.8097956  78.0955326  30.2697813
  70.6759261  78.0442420  29.0291908  78.0667532  81.1055910  27.9633681
  78.5327984  81.9383901  27.8893983  78.5175032  80.6400891  28.6678939
  76.0384194  73.4736497  32.0024582  75.1247274  73.7040723  32.1706789
  76.4677296  73.5574941  32.8538614  75.8090653  81.6626389  34.5024476
  75.1562103  81.9102296  33.8476929  76.1871033  80.8490527  34.1686953
  71.8578226  82.4046200  40.9890513  71.1818863  82.3040329  41.6592888
  72.6805860  82.2485413  41.4526510  63.6057085  88.6418136  33.6103028
  64.1910522  87.8961824  33.7430933  63.4081923  88.9522093  34.4939692
  58.1974740  81.2123736  32.3307472  58.2358839  80.6787327  33.1244590
  57.6915033  80.6858942  31.7118449  65.5765502  76.0588277  35.8270014
  65.6406829  76.9203108  35.4147412  65.5132622  75.4462278  35.0942372
  65.0517775  78.1311409  39.4743048  65.6789813  77.7488487  40.0880573
  64.1945693  77.9125611  39.8398741  61.8283317  79.9387838  25.4061403
  62.1236758  79.0298517  25.3528457  60.9271353  79.9175578  25.0842405
  65.3577564  78.0143835  31.3888952  64.6364150  78.6279803  31.2496425
  66.1470820  78.5501600  31.3105598  68.1603878  75.3498262  37.6629603
  68.6838280  75.5960558  38.4255913  67.9416211  76.1818296  37.2432741
  63.5571159  77.6201936  25.5300728  63.2283865  76.7399315  25.3475834
  63.9110530  77.5649605  26.4177117  66.6712982  77.9074906  25.8976206
  67.0109055  78.4360827  25.1754814  67.1185103  78.2455312  26.6734772
  69.3656423  76.2911957  35.3479274  69.0253243  75.4919770  35.7499954
  68.6595429  76.5913667  34.7756107  70.0172895  73.3761269  33.8006597
  70.8398964  72.9021747  33.6785487  70.2610958  74.1551753  34.3005283
  68.6581129  76.4049528  24.0969499  69.3789492  76.7830780  23.5933215
  68.0346433  77.1238404  24.2004477  72.8012252  77.1094676  25.0327831
  73.0175866  77.9919314  24.7316659  72.3206319  76.7180890  24.3033473
  67.5411473  80.0680390  31.6098576  67.3956054  80.3820693  32.5022857
  67.0636677  80.6865290  31.0569474  69.4007856  77.0582938  31.6579465
  69.3869425  76.1624031  31.3211763  70.1180284  77.0653601  32.2917751
  71.2533987  77.4920278  33.7032593  70.9951765  78.4137349  33.7016923
  70.7219027  77.0950712  34.3933057  62.0157136  82.6085734  34.5486237
  61.4710604  83.3845542  34.6806511  62.8936485  82.9556539  34.3905358
  68.8044752  75.9397318  26.9267035  68.9260663  75.0113964  27.1257923
  68.5146795  75.9536004  26.0145351  71.6735943  73.6252228  30.0633755
  71.6957639  73.6891562  29.1085735  72.0904002  72.7856737  30.2574261
  62.8023157  81.7355630  37.4416394  62.0604894  81.8838266  38.0281024
  62.4815902  81.9963896  36.5783143  63.2479771  89.6221059  29.4726788
  64.0737791  89.3224831  29.0925432  62.8973823  88.8528682  29.9216577
  68.2161304  88.9747527  31.5424462  67.5941314  88.3118232  31.2426690
  68.8866171  89.0008659  30.8598110  61.4488376  87.5407386  30.4315722
  60.6120285  87.1129560  30.2499723  61.4212022  87.7339829  31.3686513
  68.2885832  77.4529315  41.1356968  68.3373987  78.3291438  40.7534737
  68.8308346  76.9106708  40.5628611  76.1842315  80.8293833  39.0450140
  77.0852178  80.6900298  38.7534138  76.2590289  80.9948288  39.9848318
  70.5185120  78.2060688  37.8903326  69.6488430  78.4994254  37.6185915
  70.7544601  78.7901133  38.6110590  65.5327444  83.5516628  26.0243991
  65.2873486  82.6478958  26.2224201  65.7023359  83.5533779  25.0823469
  73.2224154  74.4240305  35.4068747  73.7406098  75.1601332  35.0815235
  72.8679287  74.7304298  36.2415506  64.8023092  79.2844986  23.5230153
  64.1092337  79.3589341  22.8670189  64.5574844  78.5205330  24.0451670
  73.4736748  70.8440587  30.9269643  73.7538502  70.1763776  31.5530070
  74.2587355  71.0369683  30.4144307  77.3445607  79.2658221  34.6741219
  78.2963030  79.3656319  34.6953443  77.1749057  78.4736490  35.1839303
  75.3659986  76.3513804  34.8600620  74.7709918  76.6318817  34.1647108
  75.0809683  76.8407705  35.6317361  79.9728173  79.2775384  33.8341801
  79.4567222  78.4933841  33.6471730  80.8568121  78.9494101  33.9988321
  77.6338900  73.0216400  29.7937614  77.4363721  72.7131488  30.6780946
  78.2438605  73.7478039  29.9235544  71.5455708  85.4078140  41.2911379
  72.4658717  85.5856739  41.4851426  71.5105291  84.4634185  41.1391079
  60.7637873  80.6016734  30.2164654  60.4440657  79.7482042  29.9239028
  60.2171301  80.8165312  30.9722621  64.5417780  83.3179175  33.9334160
  64.7603790  84.2496282  33.9522194  64.9543554  82.9587149  34.7188964
  71.4621998  73.8247260  25.9209849  70.6522726  73.4794345  26.2965095
  72.1506415  73.5154804  26.5097460  73.3912546  72.9025307  27.5434145
  73.9443585  73.3220760  28.2024169  73.6282633  71.9761055  27.5857101
  69.4145646  78.8912380  43.3236909  69.3142373  79.8406737  43.2549000
  69.1967188  78.5630619  42.4512979  68.6158717  76.1397305  19.9077587
  69.4777881  76.4652204  20.1673404  68.8009061  75.3528801  19.3950652
  60.6326133  84.2219645  32.1857775  59.9389604  83.8073598  31.6727730
  61.3799124  84.2640182  31.5891194  76.7691354  75.0125832  27.0512810
  76.1890023  75.6710636  26.6690862  76.5027286  74.1903177  26.6400227
  75.2194920  74.4130890  29.2534130  75.7194698  74.5247424  28.4448449
  75.8630528  74.1091942  29.8934938  69.2776916  82.3209519  42.1401971
  68.7943997  83.1209879  42.3465860  69.3637855  82.3317464  41.1869415
  62.5462875  84.1537899  30.0623790  62.5233563  84.2525586  29.1105673
  62.8563512  85.0003050  30.3840956  65.2050253  86.2114054  34.1770405
  66.1593507  86.1797996  34.1100336  65.0062777  85.7504678  34.9920631
  65.7949635  84.7815170  36.7441202  66.6142524  85.2759249  36.7676040
  66.0686443  83.8647138  36.7158770  75.5516232  77.1725922  26.1069158
  74.6642087  77.4575573  25.8889353  75.9670221  77.0119686  25.2596435
  78.9030768  77.1972443  29.8223497  79.6791158  77.6868896  30.0948114
  78.1778902  77.6230497  30.2795367  81.3403326  77.9100063  30.8797438
  81.9347817  77.6695798  30.1690746  81.4129910  77.1907193  31.5070974
  63.5600482  91.7533673  31.1940603  63.4254950  90.9934074  30.6278601
  63.1432544  92.4774573  30.7269392  79.3362061  78.4770190  27.1469568
  79.0798995  78.0766826  27.9777775  78.7114929  79.1913984  27.0219707
  61.0484550  79.1153304  37.4433399  61.6943413  78.6052258  37.9320625
  60.8401701  79.8521986  38.0176825  69.5688160  73.3793349  23.1957296
  69.5566830  74.3235188  23.3525567  70.4611582  73.1963494  22.9016757
  73.3840280  69.9736125  27.4503232  72.6172675  69.4194612  27.5959915
  73.7950984  70.0457994  28.3117384  65.3882041  76.2620921  41.5408414
  66.2513502  75.9057726  41.7511738  64.8147451  75.9234816  42.2283818
  28.3271136  -0.6412409  24.9663852  28.3159776  -1.0359610  24.0944355
  28.4891775  -1.3746336  25.5597623  25.0478397   2.1424703  23.9143036
  24.7568263   3.0470334  23.7989702  25.6835381   2.1841231  24.6287105
  30.0068282   1.8286119  20.9092829  29.7069005   2.7311157  20.8008636
  29.6619341   1.5618302  21.7613982  27.4806291  -4.2341696  26.5325164
  26.7039625  -3.6747775  26.5228028  28.1196854  -3.7484913  27.0540034
  25.7352664  -1.4256242  26.0943131  26.4767348  -0.8871198  25.8177954
  25.0289649  -0.7989953  26.2514683  31.2108003   0.7172898  24.6915292
  31.6191359   0.2755309  23.9469925  30.4885265   0.1425526  24.9449485
  32.6676981  -0.1411514  22.4007289  32.8793877   0.5020246  21.7241670
  32.6206730  -0.9749198  21.9329219  33.7822809   2.7360441  20.5729646
  34.6040253   2.3340628  20.2912327  33.7785212   2.6328675  21.5245762
  27.5479413   2.2844484  22.7290356  27.6123845   2.7464892  23.5648528
  26.8390337   1.6541849  22.8572666  28.8895907   4.5736158  26.7269679
  28.4459761   3.7872537  26.4090583  29.5513120   4.7615309  26.0613570
  30.9877145   4.8538958  24.7551080  30.9695620   5.6747839  24.2631349
  31.9097065   4.7293034  24.9801221  27.4450199   2.3683088  25.5974588
  27.9778536   1.6071376  25.3673896  26.9164280   2.0756740  26.3398743
  35.9762328   1.3004353  19.0428032  36.4098834   1.2079642  19.8911086
  36.6893908   1.2761854  18.4048048  29.7090223   4.9006447  20.5761133
  29.7627245   5.4697384  21.3438849  28.8405004   5.0708332  20.2115170
  36.8377877   1.3428054  21.5760918  37.0313767   2.2473864  21.8220193
  36.7378495   0.8835473  22.4099503  31.8992986   1.4934797  27.1501798
  31.7478492   1.2645348  26.2331882  31.8897665   2.4505398  27.1633143
  33.6085193   4.5253919  25.2278280  33.5497739   3.8413139  24.5608863
  34.0104711   5.2672909  24.7758906  33.6102600   2.4893503  23.4592260
  32.7229379   2.1519425  23.5818659  34.1801151   1.7576534  23.6961025
  27.1403753   7.1494955  20.4253503  27.0673925   7.9549927  20.9372808
  26.6981146   7.3486921  19.6001524  29.6002437   7.0481789  22.5811662
  30.3130409   7.6829254  22.5087563  29.1092465   7.1445655  21.7651663
  24.6514350   4.7976233  23.4017232  25.3523810   5.4312716  23.5546627
  24.1809465   5.1390964  22.6412872  28.5003209  -1.9059349  27.7135820
  27.8243846  -2.0065219  28.3838195  29.3230843  -2.0620135  28.1771817
  27.2425992   9.4007579  21.9493436  27.7944300   9.5639200  22.7142521
  27.5832186   9.9912017  21.2773461  32.0936866   4.2268836  27.8042090
  32.6376770   4.8398795  27.3097045  31.5123711   4.7848415  28.3209103
  30.3794379   7.3489554  18.9357118  30.2545519   6.5479294  18.4268064
  31.0373471   7.8435748  18.4471088  32.4429288   5.1498575  20.5636668
  31.4959623   5.0303926  20.4914995  32.7912061   4.2621073  20.6462930
  33.0509843   5.7679849  17.8505893  33.9756390   5.5622711  17.7130344
  32.8825146   5.5196251  18.7595235  27.3891803   6.9666060  23.9642090
  27.6978930   6.7215207  24.8364790  28.1867285   7.1712699  23.4760960
  35.4165661   3.6864890  27.1403412  34.6261205   3.6689029  26.6007911
  35.1799015   4.2253184  27.8952448  35.5363536   0.5357357  24.4536140
  35.5861541   0.3707364  25.3951663  35.4277459  -0.3315384  24.0634021
  32.8267298  -3.4811715  25.7695447  33.7277161  -3.6205250  25.4779445
  32.9015273  -3.3157260  26.7093624  37.0381733   2.9554298  24.6978162
  36.7466541   3.3184279  25.5341623  36.4253864   2.2421307  24.5191494
  35.2868921  -1.9213087  23.1658220  35.7623043  -1.7285441  22.3577071
  34.3634486  -1.8653901  22.9201603  42.2835218  -0.7625200  19.6534862
  43.0138606  -1.0239912  20.2142565  41.6742163  -1.4996478  19.6936930
  40.3650515  -2.6217338  20.2509313  39.6383678  -2.7561373  19.6425804
  39.9497802  -2.3140509  21.0566031  28.1880691   1.0972592  28.0156686
  29.1083701   1.2751191  28.2096732  28.1530274   0.1528637  27.8636385
  25.9201899  -1.9896029  28.8647278  25.4368981  -1.1895669  29.0711167
  26.0062838  -1.9788084  27.9114722  30.2162925   1.8728603  29.6670847
  31.0854085   2.0469256  29.3057482  29.7369677   2.6923020  29.5446576
  24.3849105   8.9925704  21.3460280  25.2876352   9.0249315  21.6626775
  24.1586475   8.0626155  21.3606616  41.8755401  13.5817229  19.0716121
  42.5133811  13.4623977  18.3679461  41.7576244  14.5298073  19.1304074
  38.6845107  13.5344657  19.0077646  38.3463619  13.4185722  18.1198181
  39.5534875  13.1335822  18.9878652  34.5431923  15.3880134  14.9974537
  33.9796788  15.2970071  14.2290825  34.4284318  14.5680038  15.4777030
  39.1664890  14.6879509  24.9663852  39.1553531  14.2932307  24.0944355
  39.3285530  13.9545582  25.5597623  32.0896355  16.8831325  17.8358757
  32.8817647  16.5422150  17.4205057  32.3293005  16.9926300  18.7560911
  40.1231482  19.0551101  10.3089002  39.4719461  19.6405182   9.9223016
  40.9175844  19.5857296  10.3684039  35.8872151  17.4716621  23.9143036
  35.5962017  18.3762252  23.7989702  36.5229136  17.5133148  24.6287105
  36.8128358  14.8493469  20.5044395  37.4091930  14.6249492  19.7901358
  36.8703330  14.1078215  21.1069843  41.4296669  11.3068683  16.1469329
  42.2159759  10.8888106  15.7959746  41.6935374  12.2114775  16.3150978
  41.6006747  16.7441533  10.8457986  40.9652580  16.8176160  11.5578891
  41.2704153  17.3335132  10.1677065  46.8305096  11.2443916  17.0502308
  47.5630268  10.6743133  17.2840137  46.0744452  10.8565517  17.4908814
  38.4481216  13.6671158  14.2465650  38.0839423  13.1401779  14.9578572
  39.3048332  13.2769627  14.0732136  44.3530517   4.9565490  21.5096917
  44.0213842   5.8260901  21.2858132  43.7576130   4.6401774  22.1890947
  40.8462036  17.1578036  20.9092829  40.5462759  18.0603075  20.8008636
  40.5013096  16.8910220  21.7613982  34.2974518  13.6091833  16.9429534
  33.3725014  13.4768047  17.1507225  34.5458931  14.3886052  17.4399476
  44.2459180   9.6760577  18.5890267  43.3376057   9.6075985  18.2949028
  44.1946776  10.1532521  19.4172092  31.6583329  13.2525107  17.7773323
  31.7875710  13.5059586  18.6912734  30.9780780  13.8452815  17.4577978
  35.8282816  23.9222357  13.8763797  35.7506846  24.8730182  13.9552278
  35.2244460  23.5768229  14.5338723  38.3200046  11.0950222  26.5325164
  37.5433380  11.6544142  26.5228028  38.9590609  11.5807005  27.0540034
  46.1120826   7.8777015  20.3668141  45.4695207   8.1709548  19.7207935
  45.6075755   7.7629935  21.1721337  43.7660990  11.6240188  11.0554000
  44.6778846  11.8567575  10.8801697  43.2570637  12.2077232  10.4929078
  36.5746418  13.9035675  26.0943131  37.3161103  14.4420719  25.8177954
  35.8683404  14.5301964  26.2514683  42.0501758  16.0464816  24.6915292
  42.4585114  15.6047226  23.9469925  41.3279019  15.4717443  24.9449485
  38.4032828  10.9837423  22.0648849  39.2494023  11.4076836  22.2083498
  38.3431466  10.3271047  22.7587412  42.3730572  16.6066007  18.4467581
  41.7439435  16.7711721  17.7443649  41.9856235  17.0207616  19.2178545
  46.2519804  17.5420444  15.8011945  45.5670843  17.9219346  15.2508978
  46.3363654  18.1515771  16.5343893  41.5532273   8.6441791  23.7230023
  41.3093205   9.3983852  23.1864299  41.8292204   9.0227139  24.5577270
  43.5070736  15.1880403  22.4007289  43.7187631  15.8312163  21.7241670
  43.4600484  14.3542720  21.9329219  41.1096965   7.7998224  19.3043861
  40.2481444   8.0979478  19.5960598  41.1359400   8.0168623  18.3724893
  37.9258534  16.3440415  15.7117666  38.3896880  16.6228118  14.9222289
  37.6615332  15.4423859  15.5290757  34.8182615  15.8911896  18.6497430
  35.3883972  16.3199165  18.0114914  35.4090727  15.6094481  19.3481615
  36.8627420  12.4663567  12.5207231  37.5651464  12.9184611  12.9881158
  36.5308049  11.8247386  13.1487125  35.3107782  11.0575324  26.8958441
  34.6806443  11.7391605  27.1293838  35.2043870  10.9458405  25.9511579
  30.6052754  10.7247120  17.8224365  29.8151808  10.9804648  17.3464476
  31.0964002  11.5395458  17.9276406  44.6216564  18.0652359  20.5729646
  45.4434008  17.6632546  20.2912327  44.6178967  17.9620593  21.5245762
  38.3873167  17.6136402  22.7290356  38.4517600  18.0756809  23.5648528
  37.6784091  16.9833767  22.8572666  28.8890457  10.9777610  20.2539356
  29.1398496  11.8624620  20.5196932  29.4250006  10.7982212  19.4814448
  52.7122557  14.4091107  16.9214617  51.9586265  13.8398505  16.7658622
  52.8470098  14.3753772  17.8685252  38.1021185  19.2804510  12.5969337
  37.9666860  20.1256045  13.0254184  38.6430998  19.4823787  11.8335270
  34.5888525   5.3596089  29.2583692  34.1955470   4.8062288  29.9331336
  35.4054665   5.6706668  29.6490209  31.5550582  16.7979948  13.1697262
  32.0675103  17.5923198  13.3202826  32.2073295  16.1006238  13.1030863
  33.3645467  19.9145704  15.2520015  33.5412095  20.8363669  15.0640999
  34.1602301  19.6004123  15.6814395  37.5056486   6.7753969  26.8503948
  38.2466199   7.3761122  26.7708411  37.7374408   6.0331606  26.2921991
  32.6497824  11.9610336  25.1282178  32.5351339  11.0595593  25.4289277
  31.7942341  12.2074033  24.7766995  39.7289661  19.9028076  26.7269679
  39.2853516  19.1164455  26.4090583  40.3906875  20.0907227  26.0613570
  34.4876783  21.4323878  21.2530357  35.0384208  21.3040941  20.4807351
  33.6488258  21.7318767  20.9025250  41.8270899  20.1830876  24.7551080
  41.8089375  21.0039757  24.2631349  42.7490820  20.0584951  24.9801221
  38.2843954  17.6975006  25.5974588  38.8172290  16.9363294  25.3673896
  37.7558035  17.4048657  26.3398743  41.4513649   2.8035072  21.1268230
  41.1077918   3.6936713  21.0507341  41.8192611   2.6136729  20.2637815
  29.5199499  15.1268602  13.9456832  30.3574721  15.5365610  13.7290540
  29.6977767  14.1868044  13.9157026  39.0011042   7.6393383  14.6925904
  38.1452639   7.2500234  14.5131542  39.4137994   7.7185344  13.8325689
  40.5310189   5.1739727  19.0917463  40.0274985   5.1369862  18.2785269
  40.8240796   6.0832469  19.1514120  36.7753075   5.2578456  18.0983645
  37.6406072   5.0621265  17.7389535  36.8430584   5.0288808  19.0253002
  46.3898205  15.5476037  11.5693839  45.6127648  15.2087197  11.1249001
  47.0689686  15.5528660  10.8948804  41.2050234  10.6670775  11.4600446
  40.9000370  10.9816924  12.3110590  42.1580677  10.7452195  11.5027779
  39.6496666  16.8260998  13.1093400  39.1218028  16.0913758  12.7966638
  39.1484169  17.6035674  12.8633369  44.6289512  15.0210019  18.2260447
  43.9713187  15.7109280  18.3140575  45.4329912  15.4106450  18.5694433
  43.4394971  13.3754391  16.2764388  43.9526853  14.0084383  16.7786098
  44.0896195  12.7755587  15.9107748  40.7017345  23.3538716   9.0325060
  40.0279044  23.6570412   9.6410017  41.0883167  24.1567796   8.6830517
  39.9175802  10.8503847  18.5222729  38.9998363  11.0718794  18.3644417
  40.3335946  10.9250157  17.6634436  40.7010850  12.2495262  13.6525409
  41.4482669  12.7616660  13.3432531  40.9702439  11.9279315  14.5129803
  38.9737500  14.7453803  10.6352364  38.0648719  14.4612836  10.7324833
  39.0032584  15.1652882   9.7755670  44.2056767  18.3560393  14.4043531
  43.7519094  17.5151303  14.4608722  43.5750734  18.9921791  14.7418311
  43.1489687   9.2852379  15.6344199  42.4112444   8.7729765  15.9654441
  43.4016460   8.8452760  14.8227475  42.6489707  20.1936889  15.3393349
  42.9412681  20.7541946  14.6205715  43.1588327  20.4865450  16.0946508
  43.2501314   2.0628631  16.2285968  43.5560191   1.2025994  15.9411883
  43.9753919   2.6546251  16.0284962  37.5222394  12.3582424  16.7362159
  37.5771004  11.4056260  16.6604635  36.7113596  12.5141863  17.2203457
  35.4614754  10.9759484  14.4952538  34.6482619  11.2753654  14.9017730
  35.9573748  10.5815172  15.2127020  37.6123332  20.9717240  16.4286802
  37.5699511  21.1978087  15.4995334  38.5286031  20.7380615  16.5772604
  41.0588966  11.4401308  23.3267432  41.4138353  11.6672781  24.1861897
  41.7061097  11.7719685  22.7044687  46.7886703  14.5619744  14.0316761
  46.6504601  14.7521340  13.1037950  46.4322921  15.3239127  14.4884812
  34.9528829   8.5477839  20.1113773  35.5928208   8.4066598  19.4136736
  34.1206359   8.2612352  19.7352375  46.8156082  16.6296271  19.0428032
  47.2492589  16.5371560  19.8911086  47.5287663  16.6053771  18.4048048
  35.7289133  17.8480269  16.2248765  36.5229731  17.3530590  16.0231340
  35.0180825  17.3198133  15.8616471  40.5483977  20.2298365  20.5761133
  40.6020999  20.7989301  21.3438849  39.6798758  20.4000250  20.2115170
  33.4282370   9.9315921  22.0585584  34.1005424   9.7233283  21.4098233
  32.6012157   9.7338007  21.6190816  47.6771632  16.6719972  21.5760918
  47.8707522  17.5765782  21.8220193  47.5772250  16.2127391  22.4099503
  39.3307942   6.5577862  24.0751245  38.6835857   7.2567812  23.9815721
  40.1008958   6.9914006  24.4427493  42.7386740  16.8226714  27.1501798
  42.5872247  16.5937266  26.2331882  42.7291420  17.7797316  27.1633143
  39.5072077  14.3958627  22.1348065  40.4364137  14.5469787  21.9617032
  39.0863107  14.4842648  21.2796711  38.3060409  18.4209291  19.9046602
  38.1671494  18.0528076  20.7772540  37.5175005  18.9356931  19.7330560
  38.9008561  23.5218388  11.2472139  39.0760316  23.0506431  12.0617761
  38.2141349  24.1484154  11.4753400  39.8565624  17.7990894  17.2935440
  39.5215456  17.7591664  18.1893090  39.3569569  17.1335610  16.8205850
  33.8309868  13.2058524  22.8188021  33.6929666  12.4738763  23.4199560
  34.7414791  13.1167424  22.5372209  36.4592168  12.9178484  22.3071701
  37.1691787  12.2771676  22.2658319  36.4161476  13.1691378  23.2297882
  44.4478947  19.8545837  25.2278280  44.3891493  19.1705057  24.5608863
  44.8498465  20.5964827  24.7758906  35.1721102   9.9043701  24.1267340
  34.6358459   9.4534440  24.7788937  34.5837811  10.0389610  23.3837805
  33.4669646  26.6707751  18.0211999  33.7066244  27.3026275  18.6991018
  32.6238842  26.3195791  18.3077358  44.4496354  17.8185421  23.4592260
  43.5623133  17.4811343  23.5818659  45.0194905  17.0868452  23.6961025
  26.1025501  14.1509513  16.7835311  26.7896541  13.8371243  16.1956326
  25.9473630  15.0550877  16.5102563  30.9060224   9.0399709  21.2120335
  30.8218412   8.4325379  20.4770745  30.0842930   9.5308727  21.2129831
  37.9797508  22.4786873  20.4253503  37.9067679  23.2841845  20.9372808
  37.5374901  22.6778839  19.6001524  37.7687287  21.7158643  13.9356324
  36.9854809  22.2580323  14.0294549  38.4680032  22.2332623  14.3350566
  41.0783937   7.5253273  16.5790530  41.5752637   6.7723235  16.2591600
  40.3070919   7.5617589  16.0133739  48.9313695  13.2293638  18.2208821
  48.9203571  14.1118354  17.8502754  48.0631074  12.8765189  18.0263358
  40.4396191  22.3773707  22.5811662  41.1524163  23.0121172  22.5087563
  39.9486220  22.4737573  21.7651663  42.1613718  16.2824960  14.1528953
  41.2269997  16.4026422  13.9833658  42.3390387  15.3797427  13.8888963
  37.6618906   9.6670656  16.3062214  37.2916694   9.1141696  16.9943120
  38.1577999   9.0628789  15.7537215  45.5486269  12.1242279  14.6878987
  46.0146722  12.9570271  14.6139290  45.9993770  11.6587261  15.3924246
  35.4908105  20.1268151  23.4017232  36.1917564  20.7604634  23.5546627
  35.0203220  20.4682882  22.6412872  43.6162501  18.4686100  11.6865139
  43.8922344  18.3542695  12.5959014  42.7466999  18.0703585  11.6477313
  43.5202932   4.4922866  18.7269889  42.6066012   4.7227093  18.8952096
  43.9496034   4.5761310  19.5783921  43.2909391  12.6812758  21.2269783
  42.6380841  12.9288666  20.5722236  43.6689771  11.8676896  20.8932260
  40.2516565  22.7172451  15.3297953  40.4338959  21.8994107  15.7925705
  41.0749551  22.9340144  14.8922843  40.5858730  21.6440636  12.5913002
  41.1146497  21.1333091  11.9783164  40.8486950  21.3283167  13.4558535
  39.3396964  13.4232569  27.7135820  38.6637601  13.3226698  28.3838195
  40.1624598  13.2671783  28.1771817  31.0875823  19.6604506  20.3348335
  31.6729260  18.9148194  20.4676239  30.8900661  19.9708462  21.2184999
  33.9414478  22.6955753  15.3510777  33.2724853  23.1801881  14.8674818
  33.8027348  22.9424974  16.2654156  25.6793478  12.2310106  19.0552778
  25.7177577  11.6973697  19.8489896  25.1733770  11.7045311  18.4363755
  38.0819747  24.7299497  21.9493436  38.6338055  24.8931118  22.7142521
  38.4225940  25.3203934  21.2773461  33.0584240   7.0774646  22.5515321
  33.1225566   7.9389477  22.1392718  32.9951360   6.4648648  21.8187679
  32.5336512   9.1497779  26.1988355  33.1608551   8.7674856  26.8125879
  31.6764431   8.9311981  26.5644047  42.9330621  19.5560754  27.8042090
  43.4770525  20.1690712  27.3097045  42.3517466  20.1140333  28.3209103
  41.2188134  22.6781472  18.9357118  41.0939273  21.8771212  18.4268064
  41.8767225  23.1727665  18.4471088  32.8396302   9.0330205  18.1134258
  32.1182888   9.6466172  17.9741732  33.6289558   9.5687969  18.0350904
  43.2823042  20.4790492  20.5636668  42.3353378  20.3595843  20.4914995
  43.6305815  19.5912990  20.6462930  35.6422616   6.3684631  24.3874910
  36.1657017   6.6146928  25.1501219  35.4234949   7.2004666  23.9678047
  40.2869476  20.2743208  16.7641020  40.1394438  19.3459916  16.9448590
  41.1122969  20.2963299  16.2798096  43.8903597  21.0971767  17.8505893
  44.8150145  20.8914628  17.7130344  43.7218901  20.8488168  18.7595235
  36.8475161   7.3098326  22.0724581  36.5071981   6.5106139  22.4745260
  36.1414167   7.6100037  21.5001414  37.4991632   4.3947639  20.5251904
  38.3217702   3.9208117  20.4030794  37.7429696   5.1738122  21.0250590
  35.0230211  11.0866759  18.3343882  34.8774792  11.4007062  19.2268164
  34.5455415  11.7051660  17.7814781  36.8826594   8.0769307  18.3824772
  36.8688163   7.1810401  18.0457070  37.5999022   8.0839971  19.0163058
  38.7352725   8.5106647  20.4277899  38.4770503   9.4323718  20.4262230
  38.2037765   8.1137082  21.1178363  43.6798914  21.6157435  13.2067985
  43.8535791  21.0503857  12.4541837  44.1727805  22.4158329  13.0247474
  29.4975873  13.6272104  21.2731543  28.9529341  14.4031912  21.4051818
  30.3755223  13.9742908  21.1150665  39.1554680   4.6438598  16.7879062
  39.1776377   4.7077931  15.8331041  39.5722739   3.8043107  16.9819568
  49.5338305  14.3793858  14.8258284  49.9769451  13.6301183  14.4277408
  48.6564815  14.3703994  14.4432016  44.6674086  20.9324199  10.3064883
  45.3624991  21.5530892  10.5252197  45.0097236  20.0819550  10.5817261
  30.2841895  12.7542000  24.1661700  29.5423631  12.9024635  24.7526331
  29.9634640  13.0150266  23.3028450  46.5665509  18.3823905  11.8352214
  47.0916833  18.7211177  11.1101534  46.4787862  17.4470920  11.6515348
  38.2285558  22.2957978  23.9642090  38.5372684  22.0507125  24.8364790
  39.0261040  22.5004617  23.4760960  38.2506170  24.4495888  16.1947467
  37.8111160  23.9572267  16.8880323  39.0014287  23.9068855  15.9539542
  30.7298509  20.6407429  16.1972095  31.5556529  20.3411201  15.8170738
  30.3792561  19.8715051  16.6461884  35.6980042  19.9933897  18.2669768
  35.0760051  19.3304602  17.9671996  36.3684909  20.0195029  17.5843416
  28.9307114  18.5593755  17.1561028  28.0939022  18.1315929  16.9745030
  28.9030759  18.7526198  18.0931820  35.7704570   8.4715685  27.8602274
  35.8192725   9.3477808  27.4780044  36.3127084   7.9293078  27.2873918
  46.2559415  19.0156808  27.1403412  45.4654959  18.9980947  26.6007911
  46.0192770  19.5545102  27.8952448  46.3757290  15.8649275  24.4536140
  46.4255295  15.6999282  25.3951663  46.2671214  14.9976534  24.0634021
  35.2593549  18.5437820  11.7428229  35.4081669  19.2273285  11.0894902
  36.0659992  18.5242910  12.2577685  43.6661053  11.8480203  25.7695447
  44.5670915  11.7086667  25.4779445  43.7409027  12.0134657  26.7093624
  38.0003858   9.2247057  24.6148633  37.1307167   9.5180623  24.3431222
  38.2363338   9.8087502  25.3355897  47.8775487  18.2846216  24.6978162
  47.5860295  18.6476197  25.5341623  47.2647618  17.5713224  24.5191494
  49.0771169  15.8499096  17.2180732  49.9118061  16.2888900  17.3818292
  49.2130298  15.3737749  16.3988978  46.1262675  13.4078831  23.1658220
  46.6016797  13.6006477  22.3577071  45.2028241  13.4638017  22.9201603
  40.7042892   5.4426674  22.1314054  41.2224836   6.1787701  21.8060542
  40.3498025   5.7490668  22.9660813  40.9555486   1.8626957  17.6514950
  41.2357240   1.1950146  18.2775377  41.7406093   2.0556052  17.1389614
  38.7588955  21.0385951   9.2139976  38.1862922  21.6576138   8.7610448
  39.3321748  21.5885312   9.7479898  44.8264344  10.2844591  21.3986525
  45.7781767  10.3842688  21.4198749  44.6567795   9.4922859  21.9084610
  42.8478724   7.3700174  21.5845926  42.2528656   7.6505187  20.8892415
  42.5628421   7.8594075  22.3562667  41.9786214  21.3223101  10.3448559
  42.9116887  21.2568662  10.5481434  41.8909427  22.1579368   9.8863091
  44.6074231  20.6388971   7.3052506  44.5287863  20.3048835   8.1988264
  45.4283898  21.1310739   7.3043979  47.3052422  13.5050710  20.5128825
  47.2728742  12.5666711  20.6988509  47.9153046  13.5834747  19.7794650
  47.4546911  10.2961754  20.5587108  46.9385959   9.5120211  20.3717037
  48.3386859   9.9680471  20.7233628  45.1157638   4.0402769  16.5182921
  44.9182459   3.7317858  17.4026253  45.7257343   4.7664408  16.6480851
  53.1228972  14.5666717  19.6534862  53.8532361  14.3052005  20.2142565
  52.5135918  13.8295439  19.6936930  51.2044269  12.7074580  20.2509313
  50.4777433  12.5730545  19.6425804  50.7891556  13.0151409  21.0566031
  39.0274446  16.4264510  28.0156686  39.9477455  16.6043109  28.2096732
  38.9924029  15.4820555  27.8636385  28.2456611  11.6203103  16.9409961
  27.9259395  10.7668411  16.6484335  27.6990039  11.8351681  17.6967928
  32.0236518  14.3365544  20.6579467  32.2422528  15.2682652  20.6767501
  32.4362292  13.9773519  21.4434271  36.8964383   9.9098750  30.0482216
  36.7961110  10.8593107  29.9794307  36.6785926   9.5816989  29.1758286
  28.1144871  15.2406015  18.9103082  27.4208342  14.8259968  18.3973037
  28.8617862  15.2826551  18.3136501  44.2510091   6.0312202  13.7758116
  43.6708760   6.6897006  13.3936169  43.9846024   5.2089546  13.3645534
  42.7013658   5.4317259  15.9779437  43.2013436   5.5433794  15.1693756
  43.3449266   5.1278312  16.6180245  36.7595654  13.3395889  28.8647278
  36.2762735  14.1396249  29.0711167  36.8456593  13.3503834  27.9114722
  30.0281613  15.1724269  16.7869097  30.0052301  15.2711956  15.8350980
  30.3382250  16.0189419  17.1086263  32.6868991  17.2300424  20.9015711
  33.6412245  17.1984366  20.8345643  32.4881515  16.7691047  21.7165937
  33.2768373  15.8001540  23.4686509  34.0961262  16.2945618  23.4921346
  33.5505181  14.8833508  23.4404077  43.0334969   8.1912292  12.8314465
  42.1460824   8.4761943  12.6134659  43.4488958   8.0306055  11.9841741
  46.3849505   8.2158813  16.5468804  47.1609896   8.7055265  16.8193421
  45.6597640   8.6416867  17.0040673  48.8222064   8.9286432  17.6042744
  49.4166555   8.6882168  16.8936053  48.8948648   8.2093563  18.2316281
  31.0419220  22.7720043  17.9185909  30.9073688  22.0120444  17.3523907
  30.6251282  23.4960943  17.4514698  42.1778183  17.9556967   6.9262485
  42.8814033  18.1606969   7.5420140  41.4540832  18.5233728   7.1911568
  43.0075993  13.7066828  13.0464755  42.9511194  14.1635379  12.2072387
  43.5604336  12.9457512  12.8687598  46.8180799   9.4956560  13.8714874
  46.5617733   9.0953195  14.7023082  46.1933667  10.2100354  13.7465013
  51.1293137  12.2352633  16.3786166  50.5692695  12.3045822  17.1517728
  50.5236640  12.0593618  15.6585662  34.1988346  23.6689360  18.1304352
  34.0820730  24.6134793  18.0283042  33.3780792  23.3662922  18.5190151
  44.0864880  18.3939496   8.9760945  44.9210484  17.9620694   8.7938419
  43.9249223  18.2221509   9.9037839  43.7410772  14.8971609  10.3417284
  43.6859576  14.7315880   9.4005728  43.1156828  15.6047642  10.4979474
  28.5303287  10.1339673  24.1678706  29.1762151   9.6238627  24.6565931
  28.3220438  10.8708355  24.7422131  41.0556680  17.2020521  29.6670847
  41.9247839  17.3761173  29.3057482  40.5763431  18.0214938  29.5446576
  35.2242860  24.3217622  21.3460280  36.1270106  24.3541232  21.6626775
  34.9980230  23.3918073  21.3606616  36.9796462  23.0748608  18.0070359
  36.0292093  23.0750470  17.8934731  37.2828948  22.3281343  17.4906394
  32.8700778   7.2807291  28.2653720  33.7332240   6.9244095  28.4757045
  32.2966189   6.9421185  28.9529125  52.7149155  28.9109147  19.0716121
  53.3527565  28.7915894  18.3679461  52.5969998  29.8589991  19.1304074
  49.5238862  28.8636575  19.0077646  49.1857373  28.7477640  18.1198181
  50.3928630  28.4627740  18.9878652  45.3825677  30.7172051  14.9974537
  44.8190542  30.6261988  14.2290825  45.2678072  29.8971956  15.4777030
  50.0058645  30.0171427  24.9663852  49.9947285  29.6224225  24.0944355
  50.1679284  29.2837499  25.5597623  42.9290109  32.2123243  17.8358757
  43.7211401  31.8714068  17.4205057  43.1686759  32.3218218  18.7560911
  50.9625236  34.3843019  10.3089002  50.3113216  34.9697100   9.9223016
  51.7569599  34.9149214  10.3684039  44.8880863  31.4732156  10.7076136
  45.6611739  30.9261143  10.5689012  45.2406262  32.3376406  10.9190598
  47.6522113  30.1785387  20.5044395  48.2485685  29.9541409  19.7901358
  47.7097084  29.4370133  21.1069843  47.2247141  27.6324822   8.3394586
  47.4772662  27.1106344   7.5778049  46.2871700  27.4690968   8.4421270
  52.2690424  26.6360601  16.1469329  53.0553513  26.2180024  15.7959746
  52.5329128  27.5406693  16.3150978  52.4400501  32.0733451  10.8457986
  51.8046334  32.1468078  11.5578891  52.1097908  32.6627050  10.1677065
  57.6698851  26.5735834  17.0502308  58.4024023  26.0035051  17.2840137
  56.9138207  26.1857434  17.4908814  46.9443430  29.5352928  10.5418961
  46.8279688  28.8597832  11.2100045  47.0545690  29.0485302   9.7251114
  49.2874971  28.9963075  14.2465650  48.9233178  28.4693696  14.9578572
  50.1442087  28.6061544  14.0732136  55.1924271  20.2857408  21.5096917
  54.8607596  21.1552819  21.2858132  54.5969885  19.9693692  22.1890947
  48.9280458  24.0252975   9.2426999  49.0954860  24.8933212   9.6097470
  48.7377627  24.1880257   8.3188288  51.6855791  32.4869954  20.9092829
  51.3856514  33.3894993  20.8008636  51.3406850  32.2202137  21.7613982
  45.1368272  28.9383751  16.9429534  44.2118769  28.8059965  17.1507225
  45.3852685  29.7177970  17.4399476  55.0852935  25.0052494  18.5890267
  54.1769812  24.9367903  18.2949028  55.0340530  25.4824439  19.4172092
  48.9069678  26.4810633  10.2273666  48.7869304  26.9267683  11.0659146
  48.2122267  26.8295950   9.6687204  42.4977083  28.5817024  17.7773323
  42.6269464  28.8351503  18.6912734  41.8174535  29.1744732  17.4577978
  46.6676571  39.2514274  13.8763797  46.5900600  40.2022099  13.9552278
  46.0638214  38.9060147  14.5338723  49.1593800  26.4242140  26.5325164
  48.3827134  26.9836060  26.5228028  49.7984363  26.9098923  27.0540034
  56.9514581  23.2068933  20.3668141  56.3088961  23.5001466  19.7207935
  56.4469510  23.0921853  21.1721337  54.6054745  26.9532106  11.0554000
  55.5172601  27.1859493  10.8801697  54.0964392  27.5369150  10.4929078
  52.8895512  31.3756734  24.6915292  53.2978868  30.9339144  23.9469925
  52.1672774  30.8009361  24.9449485  49.2426582  26.3129340  22.0648849
  50.0887778  26.7368754  22.2083498  49.1825220  25.6562965  22.7587412
  53.2124327  31.9357924  18.4467581  52.5833189  32.1003638  17.7443649
  52.8249989  32.3499534  19.2178545  57.0913559  32.8712362  15.8011945
  56.4064597  33.2511263  15.2508978  57.1757408  33.4807689  16.5343893
  52.3926028  23.9733709  23.7230023  52.1486960  24.7275769  23.1864299
  52.6685958  24.3519056  24.5577270  54.3464490  30.5172321  22.4007289
  54.5581386  31.1604081  21.7241670  54.2994239  29.6834638  21.9329219
  51.9490719  23.1290142  19.3043861  51.0875198  23.4271395  19.5960598
  51.9753154  23.3460541  18.3724893  48.7652289  31.6732332  15.7117666
  49.2290634  31.9520035  14.9222289  48.5009087  30.7715777  15.5290757
  45.6576370  31.2203814  18.6497430  46.2277727  31.6491082  18.0114914
  46.2484482  30.9386399  19.3481615  47.7021175  27.7955485  12.5207231
  48.4045218  28.2476528  12.9881158  47.3701803  27.1539304  13.1487125
  46.1501536  26.3867241  26.8958441  45.5200197  27.0683522  27.1293838
  46.0437624  26.2750323  25.9511579  41.4446509  26.0539037  17.8224365
  40.6545563  26.3096566  17.3464476  41.9357756  26.8687375  17.9276406
  55.4610318  33.3944277  20.5729646  56.2827762  32.9924464  20.2912327
  55.4572721  33.2912511  21.5245762  43.3961254  26.4183617  14.7807842
  42.5992418  26.5302311  15.2991337  43.1686846  26.7570269  13.9148732
  49.2266922  32.9428320  22.7290356  49.2911354  33.4048727  23.5648528
  48.5177846  32.3125685  22.8572666  39.7284212  26.3069528  20.2539356
  39.9792250  27.1916538  20.5196932  40.2643760  26.1274129  19.4814448
  63.5516311  29.7383025  16.9214617  62.7980020  29.1690423  16.7658622
  63.6863853  29.7045690  17.8685252  48.9414939  34.6096427  12.5969337
  48.8060614  35.4547963  13.0254184  49.4824752  34.8115705  11.8335270
  45.4282279  20.6888007  29.2583692  45.0349225  20.1354206  29.9331336
  46.2448419  20.9998586  29.6490209  42.3944337  32.1271865  13.1697262
  42.9068857  32.9215116  13.3202826  43.0467050  31.4298156  13.1030863
  44.2039222  35.2437622  15.2520015  44.3805850  36.1655586  15.0640999
  44.9996055  34.9296041  15.6814395  48.3450240  22.1045886  26.8503948
  49.0859954  22.7053039  26.7708411  48.5768163  21.3623524  26.2921991
  43.4891578  27.2902254  25.1282178  43.3745093  26.3887511  25.4289277
  42.6336096  27.5365950  24.7766995  50.5683416  35.2319994  26.7269679
  50.1247270  34.4456372  26.4090583  51.2300629  35.4199144  26.0613570
  45.3270537  36.7615795  21.2530357  45.8777962  36.6332859  20.4807351
  44.4882013  37.0610684  20.9025250  52.6664654  35.5122794  24.7551080
  52.6483129  36.3331675  24.2631349  53.5884574  35.3876869  24.9801221
  49.1237708  33.0266923  25.5974588  49.6566045  32.2655211  25.3673896
  48.5951789  32.7340575  26.3398743  52.2907403  18.1326989  21.1268230
  51.9471672  19.0228631  21.0507341  52.6586366  17.9428647  20.2637815
  40.3593254  30.4560520  13.9456832  41.1968476  30.8657528  13.7290540
  40.5371521  29.5159962  13.9157026  52.2557686  28.1235600   9.6340665
  51.7404309  28.8940205   9.8729053  51.9834994  27.4500736  10.2573727
  49.8404797  22.9685301  14.6925904  48.9846393  22.5792151  14.5131542
  50.2531749  23.0477262  13.8325689  51.3703943  20.5031644  19.0917463
  50.8668739  20.4661780  18.2785269  51.6634550  21.4124387  19.1514120
  47.6146829  20.5870374  18.0983645  48.4799826  20.3913183  17.7389535
  47.6824338  20.3580726  19.0253002  57.2291960  30.8767955  11.5693839
  56.4521403  30.5379114  11.1249001  57.9083441  30.8820578  10.8948804
  52.0443989  25.9962692  11.4600446  51.7394125  26.3108842  12.3110590
  52.9974431  26.0744112  11.5027779  50.4890421  32.1552916  13.1093400
  49.9611782  31.4205675  12.7966638  49.9877924  32.9327592  12.8633369
  55.4683267  30.3501936  18.2260447  54.8106941  31.0401198  18.3140575
  56.2723666  30.7398368  18.5694433  45.2209148  22.8172582  15.4700012
  45.7952900  22.5947763  14.7373205  45.8080131  22.8861277  16.2228613
  54.2788726  28.7046309  16.2764388  54.7920607  29.3376301  16.7786098
  54.9289950  28.1047504  15.9107748  45.5478736  24.8477043   9.4895897
  44.7116048  25.1851730   9.8105172  45.4083505  24.7126023   8.5523034
  47.5231816  19.6913831  14.1975081  46.8696228  19.3762848  13.5731696
  47.4812290  19.0689571  14.9234904  48.6343021  29.9733126   6.1128373
  47.7270083  29.7422379   6.3119522  49.1314053  29.1770745   6.3002355
  51.5411100  38.6830633   9.0325060  50.8672799  38.9862330   9.6410017
  51.9276922  39.4859714   8.6830517  50.7569556  26.1795764  18.5222729
  49.8392118  26.4010711  18.3644417  51.1729700  26.2542075  17.6634436
  51.5404604  27.5787180  13.6525409  52.2876423  28.0908577  13.3432531
  51.8096194  27.2571233  14.5129803  49.8131254  30.0745721  10.6352364
  48.9042474  29.7904754  10.7324833  49.8426338  30.4944799   9.7755670
  55.0450522  33.6852310  14.4043531  54.5912849  32.8443220  14.4608722
  54.4144489  34.3213709  14.7418311  53.9883441  24.6144296  15.6344199
  53.2506198  24.1021683  15.9654441  54.2410215  24.1744678  14.8227475
  53.4883461  35.5228807  15.3393349  53.7806435  36.0833864  14.6205715
  53.9982082  35.8157368  16.0946508  54.0895069  17.3920548  16.2285968
  54.3953946  16.5317912  15.9411883  54.8147674  17.9838169  16.0284962
  40.3819425  27.7951235  14.6167566  40.1843825  27.2020596  13.8918632
  39.8266089  27.4903445  15.3343505  48.3616148  27.6874341  16.7362159
  48.4164758  26.7348178  16.6604635  47.5507350  27.8433781  17.2203457
  49.5107342  31.6154465   7.9740442  49.0726772  30.8990323   7.5146079
  50.2517783  31.8430579   7.4125534  46.3008508  26.3051401  14.4952538
  45.4876374  26.6045572  14.9017730  46.7967503  25.9107090  15.2127020
  48.4517086  36.3009158  16.4286802  48.4093265  36.5270004  15.4995334
  49.3679785  36.0672533  16.5772604  51.8982720  26.7693226  23.3267432
  52.2532108  26.9964699  24.1861897  52.5454851  27.1011602  22.7044687
  57.6280457  29.8911662  14.0316761  57.4898356  30.0813258  13.1037950
  57.2716676  30.6531044  14.4884812  45.7922583  23.8769757  20.1113773
  46.4321962  23.7358516  19.4136736  44.9600114  23.5904270  19.7352375
  57.6549837  31.9588189  19.0428032  58.0886343  31.8663478  19.8911086
  58.3681417  31.9345689  18.4048048  46.5682887  33.1772187  16.2248765
  47.3623486  32.6822507  16.0231340  45.8574579  32.6490050  15.8616471
  51.3877732  35.5590283  20.5761133  51.4414754  36.1281219  21.3438849
  50.5192513  35.7292168  20.2115170  42.8765651  27.3215269  12.3008518
  41.9463239  27.2599724  12.5178480  42.9723123  26.7991222  11.5045159
  42.7951200  23.8470082  14.8886760  43.0558017  24.7615415  14.7795920
  43.6168372  23.3794524  15.0383372  44.2676125  25.2607839  22.0585584
  44.9399178  25.0525201  21.4098233  43.4405911  25.0629925  21.6190816
  58.5165386  32.0011889  21.5760918  58.7101276  32.9057700  21.8220193
  58.4166004  31.5419308  22.4099503  50.1701697  21.8869780  24.0751245
  49.5229612  22.5859729  23.9815721  50.9402712  22.3205924  24.4427493
  53.5780495  32.1518632  27.1501798  53.4266001  31.9229184  26.2331882
  53.5685174  33.1089233  27.1633143  50.3465831  29.7250545  22.1348065
  51.2757891  29.8761704  21.9617032  49.9256861  29.8134566  21.2796711
  49.1454163  33.7501209  19.9046602  49.0065249  33.3819994  20.7772540
  48.3568759  34.2648849  19.7330560  49.7402315  38.8510306  11.2472139
  49.9154071  38.3798349  12.0617761  49.0535103  39.4776072  11.4753400
  50.6959378  33.1282812  17.2935440  50.3609211  33.0883582  18.1893090
  50.1963324  32.4627528  16.8205850  44.6703622  28.5350442  22.8188021
  44.5323420  27.8030681  23.4199560  45.5808546  28.4459342  22.5372209
  53.6318570  30.4738846   7.5672500  53.0147740  29.7485674   7.4705552
  53.1635058  31.2348206   7.2239574  47.2985923  28.2470401  22.3071701
  48.0085541  27.6063593  22.2658319  47.2555231  28.4983296  23.2297882
  55.2872702  35.1837755  25.2278280  55.2285248  34.4996975  24.5608863
  55.6892220  35.9256745  24.7758906  46.0114857  25.2335619  24.1267340
  45.4752214  24.7826358  24.7788937  45.4231565  25.3681528  23.3837805
  44.3063400  41.9999668  18.0211999  44.5459999  42.6318193  18.6991018
  43.4632597  41.6487708  18.3077358  45.4217116  24.6924270   6.6893804
  44.5446582  24.5713071   6.3256051  45.8974869  23.9010349   6.4372693
  55.2890109  33.1477338  23.4592260  54.4016888  32.8103260  23.5818659
  55.8588660  32.4160370  23.6961025  36.9419256  29.4801430  16.7835311
  37.6290296  29.1663160  16.1956326  36.7867385  30.3842795  16.5102563
  41.7453978  24.3691627  21.2120335  41.6612167  23.7617296  20.4770745
  40.9236684  24.8600645  21.2129831  48.8191262  37.8078791  20.4253503
  48.7461434  38.6133762  20.9372808  48.3768655  38.0070757  19.6001524
  48.6081042  37.0450561  13.9356324  47.8248564  37.5872241  14.0294549
  49.3073787  37.5624540  14.3350566  51.9177692  22.8545190  16.5790530
  52.4146391  22.1015153  16.2591600  51.1464673  22.8909507  16.0133739
  59.7707449  28.5585556  18.2208821  59.7597326  29.4410271  17.8502754
  58.9024829  28.2057107  18.0263358  51.2789946  37.7065625  22.5811662
  51.9917918  38.3413090  22.5087563  50.7879974  37.8029491  21.7651663
  53.0007473  31.6116878  14.1528953  52.0663751  31.7318340  13.9833658
  53.1784141  30.7089344  13.8888963  48.5012661  24.9962573  16.3062214
  48.1310448  24.4433614  16.9943120  48.9971753  24.3920707  15.7537215
  56.3880024  27.4534197  14.6878987  56.8540476  28.2862188  14.6139290
  56.8387524  26.9879178  15.3924246  46.3301859  35.4560068  23.4017232
  47.0311319  36.0896551  23.5546627  45.8596974  35.7974800  22.6412872
  54.4556255  33.7978018  11.6865139  54.7316099  33.6834613  12.5959014
  53.5860754  33.3995503  11.6477313  54.3596687  19.8214784  18.7269889
  53.4459766  20.0519011  18.8952096  54.7889788  19.9053228  19.5783921
  54.1303145  28.0104676  21.2269783  53.4774595  28.2580583  20.5722236
  54.5083525  27.1968814  20.8932260  51.0910319  38.0464369  15.3297953
  51.2732714  37.2286025  15.7925705  51.9143305  38.2632061  14.8922843
  51.4252485  36.9732554  12.5913002  51.9540251  36.4625009  11.9783164
  51.6880704  36.6575084  13.4558535  50.1790718  28.7524487  27.7135820
  49.5031355  28.6518616  28.3838195  51.0018352  28.5963701  28.1771817
  41.9269577  34.9896423  20.3348335  42.5123014  34.2440111  20.4676239
  41.7294416  35.3000380  21.2184999  44.7808233  38.0247671  15.3510777
  44.1118608  38.5093798  14.8674818  44.6421102  38.2716891  16.2654156
  36.5187232  27.5602024  19.0552778  36.5571332  27.0265614  19.8489896
  36.0127525  27.0337229  18.4363755  48.9213501  40.0591414  21.9493436
  49.4731809  40.2223036  22.7142521  49.2619695  40.6495852  21.2773461
  43.8977994  22.4066564  22.5515321  43.9619321  23.2681395  22.1392718
  43.8345115  21.7940566  21.8187679  43.3730267  24.4789697  26.1988355
  44.0002306  24.0966774  26.8125879  42.5158186  24.2603899  26.5644047
  53.7724375  34.8852672  27.8042090  54.3164279  35.4982630  27.3097045
  53.1911220  35.4432250  28.3209103  40.1495810  26.2866126  12.1306710
  40.4449251  25.3776804  12.0773763  39.2483845  26.2653865  11.8087712
  52.0581888  38.0073390  18.9357118  51.9333028  37.2063130  18.4268064
  52.7160979  38.5019583  18.4471088  43.6790057  24.3622122  18.1134258
  42.9576642  24.9758090  17.9741732  44.4683312  24.8979887  18.0350904
  54.1216797  35.8082410  20.5636668  53.1747132  35.6887761  20.4914995
  54.4699570  34.9204908  20.6462930  46.4816370  21.6976549  24.3874910
  47.0050772  21.9438845  25.1501219  46.2628703  22.5296584  23.9678047
  41.8783651  23.9680223  12.2546035  41.5496357  23.0877602  12.0721141
  42.2323022  23.9127892  13.1422424  51.1263230  35.6035126  16.7641020
  50.9788192  34.6751834  16.9448590  51.9516724  35.6255217  16.2798096
  44.9925474  24.2553193  12.6221512  45.3321547  24.7839114  11.9000121
  45.4397595  24.5933599  13.3980079  54.7297352  36.4263685  17.8505893
  55.6543899  36.2206546  17.7130344  54.5612655  36.1780086  18.7595235
  47.6868915  22.6390244  22.0724581  47.3465736  21.8398057  22.4745260
  46.9807921  22.9391955  21.5001414  48.3385387  19.7239556  20.5251904
  49.1611456  19.2500035  20.4030794  48.5823451  20.5030040  21.0250590
  46.9793621  22.7527815  10.8214805  47.7001984  23.1309068  10.3178522
  46.3558926  23.4716692  10.9249783  51.1224744  23.4572964  11.7573138
  51.3388359  24.3397602  11.4561966  50.6418812  23.0659177  11.0278780
  45.8623966  26.4158677  18.3343882  45.7168546  26.7298980  19.2268164
  45.3849169  27.0343577  17.7814781  47.7220349  23.4061225  18.3824772
  47.7081917  22.5102318  18.0457070  48.4392777  23.4131889  19.0163058
  49.5746479  23.8398565  20.4277899  49.3164257  24.7615636  20.4262230
  49.0431520  23.4429000  21.1178363  54.5192668  36.9449352  13.2067985
  54.6929546  36.3795775  12.4541837  55.0121559  37.7450247  13.0247474
  40.3369628  28.9564021  21.2731543  39.7923096  29.7323829  21.4051818
  41.2148978  29.3034826  21.1150665  47.1257245  22.2875605  13.6512342
  47.2473156  21.3592251  13.8503229  46.8359287  22.3014291  12.7390657
  49.9948435  19.9730516  16.7879062  50.0170132  20.0369849  15.8331041
  50.4116494  19.1335024  16.9819568  60.3732059  29.7085775  14.8258284
  60.8163205  28.9593100  14.4277408  59.4958570  29.6995912  14.4432016
  55.5067841  36.2616117  10.3064883  56.2018745  36.8822809  10.5252197
  55.8490991  35.4111468  10.5817261  57.4059264  33.7115822  11.8352214
  57.9310588  34.0503095  11.1101534  57.3181616  32.7762838  11.6515348
  49.0679312  37.6249896  23.9642090  49.3766439  37.3799043  24.8364790
  49.8654794  37.8296534  23.4760960  49.0899924  39.7787805  16.1947467
  48.6504915  39.2864184  16.8880323  49.8408041  39.2360773  15.9539542
  41.5692263  35.9699346  16.1972095  42.3950283  35.6703118  15.8170738
  41.2186315  35.2006969  16.6461884  46.5373797  35.3225815  18.2669768
  45.9153806  34.6596520  17.9671996  47.2078664  35.3486946  17.5843416
  39.7700868  33.8885673  17.1561028  38.9332777  33.4607847  16.9745030
  39.7424514  34.0818116  18.0931820  46.6098324  23.8007603  27.8602274
  46.6586480  24.6769725  27.4780044  47.1520838  23.2584996  27.2873918
  57.0953170  34.3448726  27.1403412  56.3048713  34.3272865  26.6007911
  56.8586524  34.8837020  27.8952448  57.2151045  31.1941192  24.4536140
  57.2649050  31.0291200  25.3951663  57.1064968  30.3268451  24.0634021
  46.0987304  33.8729738  11.7428229  46.2475424  34.5565202  11.0894902
  46.9053747  33.8534828  12.2577685  54.5054807  27.1772120  25.7695447
  55.4064670  27.0378585  25.4779445  54.5802782  27.3426575  26.7093624
  48.8397613  24.5538975  24.6148633  47.9700922  24.8472541  24.3431222
  49.0757093  25.1379420  25.3355897  58.7169242  33.6138134  24.6978162
  58.4254050  33.9768114  25.5341623  58.1041373  32.9005142  24.5191494
  59.9164924  31.1791014  17.2180732  60.7511815  31.6180818  17.3818292
  60.0524053  30.7029667  16.3988978  56.9656430  28.7370748  23.1658220
  57.4410551  28.9298395  22.3577071  56.0421995  28.7929934  22.9201603
  43.8539937  29.8994916  12.7489298  43.6085978  28.9957246  12.9469508
  44.0235851  29.9012066  11.8068776  51.5436646  20.7718592  22.1314054
  52.0618590  21.5079619  21.8060542  51.1891779  21.0782585  22.9660813
  43.1235584  25.6323273  10.2475459  42.4304829  25.7067628   9.5915495
  42.8787336  24.8683617  10.7696976  51.7949241  17.1918874  17.6514950
  52.0750994  16.5242064  18.2775377  52.5799847  17.3847970  17.1389614
  49.5982709  36.3677868   9.2139976  49.0256676  36.9868055   8.7610448
  50.1715503  36.9177230   9.7479898  55.6658099  25.6136508  21.3986525
  56.6175522  25.7134606  21.4198749  55.4961549  24.8214777  21.9084610
  53.6872478  22.6992092  21.5845926  53.0922410  22.9797104  20.8892415
  53.4022175  23.1885993  22.3562667  52.8179969  36.6515018  10.3448559
  53.7510642  36.5860580  10.5481434  52.7303182  37.4871285   9.8863091
  55.4467986  35.9680889   7.3052506  55.3681617  35.6340752   8.1988264
  56.2677652  36.4602657   7.3043979  58.1446177  28.8342628  20.5128825
  58.1122497  27.8958629  20.6988509  58.7546800  28.9126665  19.7794650
  49.9829508  27.7038681   6.5556029  50.9288612  27.5744889   6.6244447
  49.6043752  26.9653343   7.0325457  58.2940665  25.6253672  20.5587108
  57.7779714  24.8412128  20.3717037  59.1780614  25.2972388  20.7233628
  55.9551392  19.3694687  16.5182921  55.7576213  19.0609775  17.4026253
  56.5651098  20.0956326  16.6480851  63.9622727  29.8958635  19.6534862
  64.6926115  29.6343923  20.2142565  63.3529672  29.1587357  19.6936930
  62.0438024  28.0366498  20.2509313  61.3171187  27.9022463  19.6425804
  61.6285311  28.3443326  21.0566031  49.8668200  31.7556427  28.0156686
  50.7871210  31.9335026  28.2096732  49.8317783  30.8112473  27.8636385
  48.1672425  25.6288658   6.4910914  47.2603880  25.3321770   6.5673628
  48.4448406  25.3318476   5.6245200  39.0850365  26.9495021  16.9409961
  38.7653149  26.0960329  16.6484335  38.5383793  27.1643599  17.6967928
  42.8630273  29.6657462  20.6579467  43.0816282  30.5974570  20.6767501
  43.2756046  29.3065436  21.4434271  49.7834490  20.1725547  12.6455155
  48.9735219  19.8272632  13.0210402  50.4718907  19.8633091  13.2342767
  51.7125039  19.2503594  14.2679452  52.2656077  19.6699047  14.9269475
  51.9495125  18.3239342  14.3102408  47.7358138  25.2390668  30.0482216
  47.6354865  26.1885025  29.9794307  47.5179680  24.9108907  29.1758286
  46.9371209  22.4875593   6.6322893  47.7990373  22.8130491   6.8918711
  47.1221553  21.7007089   6.1195959  38.9538625  30.5697932  18.9103082
  38.2602097  30.1551885  18.3973037  39.7011616  30.6118469  18.3136501
  55.0903846  21.3604119  13.7758116  54.5102515  22.0188923  13.3936169
  54.8239778  20.5381464  13.3645534  53.5407412  20.7609177  15.9779437
  54.0407191  20.8725711  15.1693756  54.1843020  20.4570230  16.6180245
  47.5989408  28.6687807  28.8647278  47.1156490  29.4688167  29.0711167
  47.6850347  28.6795751  27.9114722  40.8675368  30.5016186  16.7869097
  40.8446056  30.6003873  15.8350980  41.1776004  31.3481337  17.1086263
  43.5262745  32.5592341  20.9015711  44.4805999  32.5276284  20.8345643
  43.3275269  32.0982965  21.7165937  53.8728724  23.5204210  12.8314465
  52.9854579  23.8053860  12.6134659  54.2882713  23.3597973  11.9841741
  57.2243260  23.5450731  16.5468804  58.0003650  24.0347183  16.8193421
  56.4991394  23.9708785  17.0040673  59.6615819  24.2578350  17.6042744
  60.2560309  24.0174086  16.8936053  59.7342402  23.5385480  18.2316281
  41.8812974  38.1011961  17.9185909  41.7467442  37.3412362  17.3523907
  41.4645037  38.8252861  17.4514698  53.0171937  33.2848884   6.9262485
  53.7207787  33.4898887   7.5420140  52.2934586  33.8525646   7.1911568
  53.8469748  29.0358745  13.0464755  53.7904949  29.4927297  12.2072387
  54.3998090  28.2749430  12.8687598  57.6574553  24.8248477  13.8714874
  57.4011488  24.4245113  14.7023082  57.0327422  25.5392271  13.7465013
  61.9686891  27.5644551  16.3786166  61.4086449  27.6337740  17.1517728
  61.3630395  27.3885535  15.6585662  45.0382100  38.9981278  18.1304352
  44.9214484  39.9426710  18.0283042  44.2174546  38.6954839  18.5190151
  54.9258635  33.7231413   8.9760945  55.7604239  33.2912612   8.7938419
  54.7642978  33.5513427   9.9037839  54.5804527  30.2263527  10.3417284
  54.5253331  30.0607798   9.4005728  53.9550582  30.9339560  10.4979474
  51.8950434  32.5312439  29.6670847  52.7641594  32.7053091  29.3057482
  51.4157186  33.3506855  29.5446576  47.8900652  19.7271636   9.9202602
  47.8779322  20.6713476  10.0770873  48.7824074  19.5441781   9.6262064
  46.0636614  39.6509540  21.3460280  46.9663861  39.6833150  21.6626775
  45.8373984  38.7209991  21.3606616  47.8190216  38.4040526  18.0070359
  46.8685847  38.4042388  17.8934731  48.1222702  37.6573261  17.4906394
  51.7052772  16.3214412  14.1748539  50.9385168  15.7672899  14.3205221
  52.1163477  16.3936281  15.0362691  43.7094533  22.6099208  28.2653720
  44.5725994  22.2536013  28.4757045  43.1359944  22.2713103  28.9529125
  63.5542910  44.2401065  19.0716121  64.1921320  44.1207812  18.3679461
  63.4363753  45.1881908  19.1304074  60.3632616  44.1928493  19.0077646
  60.0251128  44.0769557  18.1198181  61.2322384  43.7919658  18.9878652
  56.2219432  46.0463969  14.9974537  55.6584297  45.9553906  14.2290825
  56.1071827  45.2263874  15.4777030  53.7683864  47.5415161  17.8358757
  54.5605156  47.2005985  17.4205057  54.0080514  47.6510136  18.7560911
  61.8018990  49.7134937  10.3089002  61.1506970  50.2989017   9.9223016
  62.5963353  50.2441132  10.3684039  55.7274618  46.8024074  10.7076136
  56.5005494  46.2553061  10.5689012  56.0800017  47.6668323  10.9190598
  58.4915867  45.5077305  20.5044395  59.0879439  45.2833327  19.7901358
  58.5490839  44.7662050  21.1069843  58.0640895  42.9616740   8.3394586
  58.3166416  42.4398261   7.5778049  57.1265455  42.7982885   8.4421270
  63.1084178  41.9652518  16.1469329  63.8947268  41.5471942  15.7959746
  63.3722883  42.8698611  16.3150978  63.2794256  47.4025369  10.8457986
  62.6440089  47.4759995  11.5578891  62.9491662  47.9918968  10.1677065
  68.5092605  41.9027752  17.0502308  69.2417777  41.3326968  17.2840137
  67.7531961  41.5149352  17.4908814  57.7837184  44.8644846  10.5418961
  57.6673442  44.1889749  11.2100045  57.8939444  44.3777220   9.7251114
  60.1268725  44.3254993  14.2465650  59.7626932  43.7985614  14.9578572
  60.9835841  43.9353462  14.0732136  66.0318026  35.6149326  21.5096917
  65.7001351  36.4844737  21.2858132  65.4363639  35.2985610  22.1890947
  59.7674212  39.3544893   9.2426999  59.9348614  40.2225129   9.6097470
  59.5771381  39.5172174   8.3188288  62.5249545  47.8161872  20.9092829
  62.2250268  48.7186911  20.8008636  62.1800605  47.5494055  21.7613982
  55.9762027  44.2675669  16.9429534  55.0512523  44.1351883  17.1507225
  56.2246440  45.0469888  17.4399476  65.9246689  40.3344412  18.5890267
  65.0163566  40.2659820  18.2949028  65.8734285  40.8116357  19.4172092
  59.7463433  41.8102550  10.2273666  59.6263058  42.2559601  11.0659146
  59.0516021  42.1587868   9.6687204  53.3370838  43.9108942  17.7773323
  53.4663219  44.1643421  18.6912734  52.6568289  44.5036650  17.4577978
  57.5070325  54.5806192  13.8763797  57.4294355  55.5314017  13.9552278
  56.9031969  54.2352065  14.5338723  67.7908335  38.5360850  20.3668141
  67.1482716  38.8293383  19.7207935  67.2863264  38.4213771  21.1721337
  65.4448499  42.2824023  11.0554000  66.3566355  42.5151410  10.8801697
  64.9358146  42.8661068  10.4929078  63.7289267  46.7048651  24.6915292
  64.1372623  46.2631062  23.9469925  63.0066528  46.1301279  24.9449485
  64.0518081  47.2649842  18.4467581  63.4226944  47.4295556  17.7443649
  63.6643744  47.6791451  19.2178545  67.9307313  48.2004280  15.8011945
  67.2458351  48.5803181  15.2508978  68.0151163  48.8099606  16.5343893
  65.1858245  45.8464239  22.4007289  65.3975140  46.4895999  21.7241670
  65.1387993  45.0126555  21.9329219  62.7884474  38.4582059  19.3043861
  61.9268953  38.7563313  19.5960598  62.8146909  38.6752458  18.3724893
  59.6046043  47.0024250  15.7117666  60.0684389  47.2811953  14.9222289
  59.3402841  46.1007695  15.5290757  56.4970124  46.5495732  18.6497430
  57.0671481  46.9783000  18.0114914  57.0878236  46.2678316  19.3481615
  58.5414929  43.1247402  12.5207231  59.2438973  43.5768446  12.9881158
  58.2095558  42.4831221  13.1487125  52.2840263  41.3830955  17.8224365
  51.4939317  41.6388484  17.3464476  52.7751511  42.1979293  17.9276406
  66.3004073  48.7236194  20.5729646  67.1221517  48.3216381  20.2912327
  66.2966476  48.6204428  21.5245762  54.2355009  41.7475534  14.7807842
  53.4386172  41.8594229  15.2991337  54.0080601  42.0862187  13.9148732
  60.0660676  48.2720238  22.7290356  60.1305109  48.7340645  23.5648528
  59.3571600  47.6417602  22.8572666  50.5677966  41.6361445  20.2539356
  50.8186005  42.5208455  20.5196932  51.1037515  41.4566047  19.4814448
  74.3910066  45.0674943  16.9214617  73.6373774  44.4982341  16.7658622
  74.5257607  45.0337607  17.8685252  59.7808694  49.9388345  12.5969337
  59.6454369  50.7839881  13.0254184  60.3218506  50.1407623  11.8335270
  53.2338091  47.4563783  13.1697262  53.7462612  48.2507033  13.3202826
  53.8860804  46.7590073  13.1030863  55.0432976  50.5729539  15.2520015
  55.2199604  51.4947504  15.0640999  55.8389810  50.2587959  15.6814395
  63.5058408  50.8414711  24.7551080  63.4876884  51.6623592  24.2631349
  64.4278328  50.7168787  24.9801221  63.1301158  33.4618907  21.1268230
  62.7865427  34.3520549  21.0507341  63.4980120  33.2720565  20.2637815
  51.1987008  45.7852437  13.9456832  52.0362230  46.1949446  13.7290540
  51.3765276  44.8451879  13.9157026  63.0951440  43.4527518   9.6340665
  62.5798064  44.2232123   9.8729053  62.8228749  42.7792654  10.2573727
  60.6798551  38.2977219  14.6925904  59.8240148  37.9084069  14.5131542
  61.0925503  38.3769180  13.8325689  62.2097698  35.8323562  19.0917463
  61.7062494  35.7953697  18.2785269  62.5028305  36.7416305  19.1514120
  58.4540584  35.9162292  18.0983645  59.3193581  35.7205100  17.7389535
  58.5218093  35.6872644  19.0253002  68.0685714  46.2059873  11.5693839
  67.2915157  45.8671032  11.1249001  68.7477195  46.2112496  10.8948804
  62.8837743  41.3254610  11.4600446  62.5787879  41.6400759  12.3110590
  63.8368186  41.4036030  11.5027779  61.3284175  47.4844833  13.1093400
  60.8005537  46.7497593  12.7966638  60.8271678  48.2619510  12.8633369
  66.3077021  45.6793854  18.2260447  65.6500696  46.3693115  18.3140575
  67.1117421  46.0690286  18.5694433  56.0602903  38.1464500  15.4700012
  56.6346655  37.9239681  14.7373205  56.6473885  38.2153194  16.2228613
  65.1182480  44.0338227  16.2764388  65.6314362  44.6668218  16.7786098
  65.7683704  43.4339422  15.9107748  56.3872490  40.1768961   9.4895897
  55.5509802  40.5143647   9.8105172  56.2477260  40.0417941   8.5523034
  58.3625571  35.0205749  14.1975081  57.7089983  34.7054766  13.5731696
  58.3206045  34.3981489  14.9234904  59.4736775  45.3025044   6.1128373
  58.5663837  45.0714297   6.3119522  59.9707807  44.5062663   6.3002355
  62.3804854  54.0122551   9.0325060  61.7066553  54.3154248   9.6410017
  62.7670676  54.8151631   8.6830517  61.5963311  41.5087682  18.5222729
  60.6785872  41.7302629  18.3644417  62.0123455  41.5833993  17.6634436
  62.3798359  42.9079098  13.6525409  63.1270178  43.4200495  13.3432531
  62.6489948  42.5863151  14.5129803  60.6525009  45.4037639  10.6352364
  59.7436228  45.1196671  10.7324833  60.6820093  45.8236717   9.7755670
  65.8844276  49.0144228  14.4043531  65.4306603  48.1735138  14.4608722
  65.2538243  49.6505626  14.7418311  64.8277196  39.9436214  15.6344199
  64.0899953  39.4313600  15.9654441  65.0803969  39.5036596  14.8227475
  64.3277216  50.8520725  15.3393349  64.6200190  51.4125782  14.6205715
  64.8375836  51.1449286  16.0946508  64.9288823  32.7212466  16.2285968
  65.2347700  31.8609829  15.9411883  65.6541428  33.3130086  16.0284962
  51.2213179  43.1243153  14.6167566  51.0237579  42.5312513  13.8918632
  50.6659843  42.8195363  15.3343505  59.2009903  43.0166259  16.7362159
  59.2558513  42.0640096  16.6604635  58.3901105  43.1725698  17.2203457
  60.3501097  46.9446382   7.9740442  59.9120527  46.2282241   7.5146079
  61.0911538  47.1722497   7.4125534  57.1402263  41.6343319  14.4952538
  56.3270128  41.9337489  14.9017730  57.6361257  41.2399008  15.2127020
  59.2910841  51.6301076  16.4286802  59.2487020  51.8561922  15.4995334
  60.2073540  51.3964450  16.5772604  68.4674212  45.2203579  14.0316761
  68.3292110  45.4105175  13.1037950  68.1110430  45.9822962  14.4884812
  56.6316338  39.2061674  20.1113773  57.2715717  39.0650433  19.4136736
  55.7993868  38.9196188  19.7352375  68.4943591  47.2880106  19.0428032
  68.9280098  47.1955395  19.8911086  69.2075172  47.2637607  18.4048048
  57.4076642  48.5064105  16.2248765  58.2017240  48.0114425  16.0231340
  56.6968334  47.9781968  15.8616471  62.2271486  50.8882200  20.5761133
  62.2808508  51.4573137  21.3438849  61.3586267  51.0584085  20.2115170
  53.7159405  42.6507187  12.3008518  52.7856993  42.5891642  12.5178480
  53.8116877  42.1283139  11.5045159  53.6344954  39.1761999  14.8886760
  53.8951771  40.0907333  14.7795920  54.4562126  38.7086442  15.0383372
  55.1069879  40.5899757  22.0585584  55.7792933  40.3817119  21.4098233
  54.2799666  40.3921843  21.6190816  69.3559141  47.3303807  21.5760918
  69.5495031  48.2349617  21.8220193  69.2559759  46.8711226  22.4099503
  61.0095451  37.2161697  24.0751245  60.3623366  37.9151647  23.9815721
  61.7796467  37.6497841  24.4427493  59.9847918  49.0793127  19.9046602
  59.8459003  48.7111911  20.7772540  59.1962514  49.5940766  19.7330560
  60.5796070  54.1802223  11.2472139  60.7547825  53.7090266  12.0617761
  59.8928858  54.8067989  11.4753400  61.5353133  48.4574729  17.2935440
  61.2002965  48.4175499  18.1893090  61.0357078  47.7919445  16.8205850
  64.4712324  45.8030764   7.5672500  63.8541495  45.0777592   7.4705552
  64.0028813  46.5640124   7.2239574  66.1266456  50.5129672  25.2278280
  66.0679002  49.8288892  24.5608863  66.5285974  51.2548662  24.7758906
  56.2610870  40.0216188   6.6893804  55.3840337  39.9004989   6.3256051
  56.7368623  39.2302266   6.4372693  66.1283863  48.4769256  23.4592260
  65.2410642  48.1395178  23.5818659  66.6982414  47.7452287  23.6961025
  47.7813010  44.8093348  16.7835311  48.4684050  44.4955078  16.1956326
  47.6261139  45.7134713  16.5102563  52.5847733  39.6983544  21.2120335
  52.5005921  39.0909214  20.4770745  51.7630439  40.1892563  21.2129831
  59.6585017  53.1370708  20.4253503  59.5855188  53.9425680  20.9372808
  59.2162410  53.3362674  19.6001524  59.4474796  52.3742479  13.9356324
  58.6642318  52.9164159  14.0294549  60.1467541  52.8916458  14.3350566
  62.7571446  38.1837108  16.5790530  63.2540146  37.4307070  16.2591600
  61.9858428  38.2201425  16.0133739  70.6101204  43.8877473  18.2208821
  70.5991080  44.7702189  17.8502754  69.7418583  43.5349024  18.0263358
  62.1183700  53.0357543  22.5811662  62.8311672  53.6705007  22.5087563
  61.6273729  53.1321409  21.7651663  63.8401227  46.9408795  14.1528953
  62.9057506  47.0610258  13.9833658  64.0177896  46.0381262  13.8888963
  59.3406415  40.3254491  16.3062214  58.9704203  39.7725531  16.9943120
  59.8365508  39.7212624  15.7537215  67.2273778  42.7826114  14.6878987
  67.6934231  43.6154106  14.6139290  67.6781279  42.3171096  15.3924246
  65.2950010  49.1269936  11.6865139  65.5709853  49.0126530  12.5959014
  64.4254508  48.7287421  11.6477313  65.1990441  35.1506701  18.7269889
  64.2853521  35.3810928  18.8952096  65.6283543  35.2345146  19.5783921
  64.9696900  43.3396593  21.2269783  64.3168350  43.5872501  20.5722236
  65.3477280  42.5260732  20.8932260  61.9304074  53.3756287  15.3297953
  62.1126468  52.5577943  15.7925705  62.7537060  53.5923979  14.8922843
  62.2646239  52.3024472  12.5913002  62.7934005  51.7916926  11.9783164
  62.5274459  51.9867002  13.4558535  55.6201987  53.3539588  15.3510777
  54.9512362  53.8385716  14.8674818  55.4814857  53.6008809  16.2654156
  47.3580987  42.8893941  19.0552778  47.3965086  42.3557532  19.8489896
  46.8521279  42.3629147  18.4363755  59.7607256  55.3883332  21.9493436
  60.3125564  55.5514953  22.7142521  60.1013449  55.9787770  21.2773461
  54.7371749  37.7358482  22.5515321  54.8013075  38.5973313  22.1392718
  54.6738869  37.1232483  21.8187679  50.9889564  41.6158043  12.1306710
  51.2843005  40.7068722  12.0773763  50.0877600  41.5945783  11.8087712
  62.8975643  53.3365307  18.9357118  62.7726782  52.5355047  18.4268064
  63.5554734  53.8311501  18.4471088  54.5183811  39.6914040  18.1134258
  53.7970397  40.3050008  17.9741732  55.3077067  40.2271805  18.0350904
  64.9610551  51.1374328  20.5636668  64.0140887  51.0179679  20.4914995
  65.3093324  50.2496826  20.6462930  57.3210125  37.0268466  24.3874910
  57.8444526  37.2730763  25.1501219  57.1022458  37.8588501  23.9678047
  52.7177406  39.2972141  12.2546035  52.3890112  38.4169520  12.0721141
  53.0716776  39.2419810  13.1422424  61.9656985  50.9327044  16.7641020
  61.8181947  50.0043751  16.9448590  62.7910478  50.9547134  16.2798096
  55.8319229  39.5845111  12.6221512  56.1715301  40.1131032  11.9000121
  56.2791349  39.9225517  13.3980079  65.5691106  51.7555602  17.8505893
  66.4937654  51.5498464  17.7130344  65.4006410  51.5072004  18.7595235
  58.5262670  37.9682162  22.0724581  58.1859490  37.1689975  22.4745260
  57.8201676  38.2683872  21.5001414  59.1779141  35.0531474  20.5251904
  60.0005211  34.5791952  20.4030794  59.4217205  35.8321958  21.0250590
  57.8187376  38.0819732  10.8214805  58.5395738  38.4600985  10.3178522
  57.1952680  38.8008609  10.9249783  61.9618499  38.7864881  11.7573138
  62.1782113  39.6689519  11.4561966  61.4812566  38.3951095  11.0278780
  56.7017720  41.7450595  18.3343882  56.5562301  42.0590898  19.2268164
  56.2242924  42.3635495  17.7814781  58.5614103  38.7353143  18.3824772
  58.5475672  37.8394236  18.0457070  59.2786531  38.7423806  19.0163058
  60.4140234  39.1690483  20.4277899  60.1558012  40.0907553  20.4262230
  59.8825274  38.7720917  21.1178363  65.3586423  52.2741270  13.2067985
  65.5323300  51.7087692  12.4541837  65.8515314  53.0742165  13.0247474
  51.1763382  44.2855939  21.2731543  50.6316850  45.0615747  21.4051818
  52.0542732  44.6326744  21.1150665  57.9650999  37.6167523  13.6512342
  58.0866910  36.6884169  13.8503229  57.6753041  37.6306209  12.7390657
  60.8342189  35.3022433  16.7879062  60.8563886  35.3661766  15.8331041
  61.2510248  34.4626942  16.9819568  71.2125814  45.0377693  14.8258284
  71.6556960  44.2885018  14.4277408  70.3352324  45.0287829  14.4432016
  66.3461595  51.5908034  10.3064883  67.0412500  52.2114727  10.5252197
  66.6884745  50.7403386  10.5817261  51.9629404  43.4125835  24.1661700
  51.2211140  43.5608471  24.7526331  51.6422149  43.6734101  23.3028450
  68.2453018  49.0407740  11.8352214  68.7704342  49.3795013  11.1101534
  68.1575371  48.1054755  11.6515348  59.9293679  55.1079723  16.1947467
  59.4898669  54.6156102  16.8880323  60.6801796  54.5652691  15.9539542
  52.4086018  51.2991264  16.1972095  53.2344038  50.9995036  15.8170738
  52.0580070  50.5298886  16.6461884  57.3767551  50.6517732  18.2669768
  56.7547560  49.9888437  17.9671996  58.0472418  50.6778864  17.5843416
  50.6094623  49.2177590  17.1561028  49.7726531  48.7899765  16.9745030
  50.5818268  49.4110034  18.0931820  68.0544799  46.5233110  24.4536140
  68.1042804  46.3583117  25.3951663  67.9458723  45.6560369  24.0634021
  56.9381058  49.2021656  11.7428229  57.0869178  49.8857120  11.0894902
  57.7447501  49.1826746  12.2577685  69.5562996  48.9430051  24.6978162
  69.2647804  49.3060032  25.5341623  68.9435127  48.2297060  24.5191494
  70.7558678  46.5082931  17.2180732  71.5905570  46.9472735  17.3818292
  70.8917807  46.0321584  16.3988978  67.8050184  44.0662666  23.1658220
  68.2804306  44.2590312  22.3577071  66.8815750  44.1221852  22.9201603
  54.6933691  45.2286833  12.7489298  54.4479733  44.3249163  12.9469508
  54.8629606  45.2303984  11.8068776  62.3830401  36.1010510  22.1314054
  62.9012345  36.8371537  21.8060542  62.0285534  36.4074503  22.9660813
  53.9629339  40.9615191  10.2475459  53.2698583  41.0359546   9.5915495
  53.7181090  40.1975534  10.7696976  62.6342995  32.5210792  17.6514950
  62.9144749  31.8533981  18.2775377  63.4193602  32.7139888  17.1389614
  60.4376464  51.6969786   9.2139976  59.8650431  52.3159973   8.7610448
  61.0109257  52.2469148   9.7479898  66.5051853  40.9428426  21.3986525
  67.4569276  41.0426524  21.4198749  66.3355304  40.1506695  21.9084610
  64.5266233  38.0284009  21.5845926  63.9316165  38.3089022  20.8892415
  64.2415930  38.5177910  22.3562667  63.6573723  51.9806936  10.3448559
  64.5904396  51.9152498  10.5481434  63.5696936  52.8163203   9.8863091
  66.2861740  51.2972807   7.3052506  66.2075372  50.9632670   8.1988264
  67.1071407  51.7894574   7.3043979  68.9839931  44.1634546  20.5128825
  68.9516251  43.2250547  20.6988509  69.5940555  44.2418583  19.7794650
  60.8223262  43.0330599   6.5556029  61.7682367  42.9036807   6.6244447
  60.4437507  42.2945261   7.0325457  69.1334420  40.9545589  20.5587108
  68.6173468  40.1704046  20.3717037  70.0174368  40.6264306  20.7233628
  66.7945147  34.6986605  16.5182921  66.5969968  34.3901693  17.4026253
  67.4044852  35.4248244  16.6480851  74.8016481  45.2250553  19.6534862
  75.5319870  44.9635841  20.2142565  74.1923427  44.4879275  19.6936930
  72.8831778  43.3658415  20.2509313  72.1564942  43.2314380  19.6425804
  72.4679065  43.6735244  21.0566031  59.0066179  40.9580575   6.4910914
  58.0997635  40.6613688   6.5673628  59.2842160  40.6610393   5.6245200
  49.9244120  42.2786939  16.9409961  49.6046904  41.4252247  16.6484335
  49.3777548  42.4935517  17.6967928  53.7024027  44.9949380  20.6579467
  53.9210037  45.9266487  20.6767501  54.1149801  44.6357354  21.4434271
  60.6228245  35.5017465  12.6455155  59.8128973  35.1564550  13.0210402
  61.3112662  35.1925009  13.2342767  62.5518793  34.5795512  14.2679452
  63.1049832  34.9990965  14.9269475  62.7888880  33.6531260  14.3102408
  57.7764964  37.8167510   6.6322893  58.6384128  38.1422409   6.8918711
  57.9615308  37.0299006   6.1195959  49.7932380  45.8989850  18.9103082
  49.0995851  45.4843803  18.3973037  50.5405371  45.9410387  18.3136501
  65.9297600  36.6896037  13.7758116  65.3496269  37.3480841  13.3936169
  65.6633533  35.8673381  13.3645534  64.3801167  36.0901095  15.9779437
  64.8800945  36.2017629  15.1693756  65.0236775  35.7862147  16.6180245
  51.7069122  45.8308104  16.7869097  51.6839810  45.9295791  15.8350980
  52.0169759  46.6773255  17.1086263  54.3656500  47.8884259  20.9015711
  55.3199754  47.8568201  20.8345643  54.1669024  47.4274883  21.7165937
  64.7122478  38.8496127  12.8314465  63.8248333  39.1345778  12.6134659
  65.1276467  38.6889891  11.9841741  68.0637014  38.8742648  16.5468804
  68.8397405  39.3639101  16.8193421  67.3385149  39.3000702  17.0040673
  70.5009573  39.5870267  17.6042744  71.0954064  39.3466003  16.8936053
  70.5736157  38.8677398  18.2316281  63.8565692  48.6140802   6.9262485
  64.5601542  48.8190804   7.5420140  63.1328341  49.1817564   7.1911568
  64.6863502  44.3650663  13.0464755  64.6298703  44.8219215  12.2072387
  65.2391845  43.6041348  12.8687598  68.4968308  40.1540395  13.8714874
  68.2405242  39.7537031  14.7023082  67.8721176  40.8684189  13.7465013
  72.8080646  42.8936468  16.3786166  72.2480204  42.9629658  17.1517728
  72.2024149  42.7177453  15.6585662  65.7652389  49.0523331   8.9760945
  66.5997993  48.6204530   8.7938419  65.6036732  48.8805345   9.9037839
  65.4198281  45.5555444  10.3417284  65.3647085  45.3899716   9.4005728
  64.7944337  46.2631477  10.4979474  50.2090796  40.7923509  24.1678706
  50.8549660  40.2822463  24.6565931  50.0007947  41.5292190  24.7422131
  58.7294407  35.0563553   9.9202602  58.7173077  36.0005393  10.0770873
  59.6217829  34.8733699   9.6262064  58.6583971  53.7332444  18.0070359
  57.7079602  53.7334305  17.8934731  58.9616457  52.9865178  17.4906394
  62.5446526  31.6506330  14.1748539  61.7778922  31.0964817  14.3205221
  62.9557231  31.7228199  15.0362691  54.5488287  37.9391126  28.2653720
  55.4119749  37.5827931  28.4757045  53.9753698  37.6005021  28.9529125
  74.3936664  59.5692982  19.0716121  75.0315074  59.4499730  18.3679461
  74.2757507  60.5173826  19.1304074  71.2026371  59.5220410  19.0077646
  70.8644882  59.4061475  18.1198181  72.0716139  59.1211575  18.9878652
  67.0613186  61.3755887  14.9974537  66.4978051  61.2845824  14.2290825
  66.9465581  60.5555791  15.4777030  71.6846154  60.6755262  24.9663852
  71.6734794  60.2808060  24.0944355  71.8466793  59.9421335  25.5597623
  64.6077618  62.8707078  17.8358757  65.3998910  62.5297903  17.4205057
  64.8474268  62.9802053  18.7560911  66.5668372  62.1315992  10.7076136
  67.3399248  61.5844979  10.5689012  66.9193771  62.9960241  10.9190598
  68.4053415  63.4592374  23.9143036  68.1143281  64.3638005  23.7989702
  69.0410399  63.5008901  24.6287105  69.3309622  60.8369222  20.5044395
  69.9273194  60.6125245  19.7901358  69.3884593  60.0953968  21.1069843
  73.9477933  57.2944436  16.1469329  74.7341022  56.8763859  15.7959746
  74.2116637  58.1990528  16.3150978  79.3486360  57.2319669  17.0502308
  80.0811532  56.6618886  17.2840137  78.5925716  56.8441270  17.4908814
  68.6230939  60.1936764  10.5418961  68.5067197  59.5181667  11.2100045
  68.7333199  59.7069138   9.7251114  70.9662480  59.6546911  14.2465650
  70.6020687  59.1277532  14.9578572  71.8229596  59.2645380  14.0732136
  76.8711780  50.9441243  21.5096917  76.5395105  51.8136654  21.2858132
  76.2757394  50.6277527  22.1890947  70.6067967  54.6836810   9.2426999
  70.7742369  55.5517047   9.6097470  70.4165136  54.8464092   8.3188288
  73.3643300  63.1453789  20.9092829  73.0644023  64.0478828  20.8008636
  73.0194359  62.8785973  21.7613982  66.8155781  59.5967586  16.9429534
  65.8906278  59.4643800  17.1507225  67.0640194  60.3761805  17.4399476
  76.7640444  55.6636330  18.5890267  75.8557321  55.5951738  18.2949028
  76.7128039  56.1408274  19.4172092  70.5857187  57.1394468  10.2273666
  70.4656813  57.5851519  11.0659146  69.8909776  57.4879786   9.6687204
  64.1764592  59.2400860  17.7773323  64.3056973  59.4935339  18.6912734
  63.4962044  59.8328568  17.4577978  70.8381309  57.0825975  26.5325164
  70.0614643  57.6419895  26.5228028  71.4771872  57.5682758  27.0540034
  78.6302090  53.8652768  20.3668141  77.9876470  54.1585301  19.7207935
  78.1257018  53.7505688  21.1721337  69.0927682  59.8911429  26.0943131
  69.8342366  60.4296472  25.8177954  68.3864667  60.5177717  26.2514683
  74.5683021  62.0340569  24.6915292  74.9766377  61.5922979  23.9469925
  73.8460283  61.4593196  24.9449485  70.9214091  56.9713176  22.0648849
  71.7675287  57.3952589  22.2083498  70.8612729  56.3146800  22.7587412
  74.8911836  62.5941760  18.4467581  74.2620698  62.7587474  17.7443649
  74.5037498  63.0083369  19.2178545  74.0713537  54.6317544  23.7230023
  73.8274469  55.3859605  23.1864299  74.3473467  55.0102892  24.5577270
  76.0251999  61.1756156  22.4007289  76.2368895  61.8187916  21.7241670
  75.9781748  60.3418473  21.9329219  73.6278228  53.7873977  19.3043861
  72.7662707  54.0855231  19.5960598  73.6540663  54.0044376  18.3724893
  70.4439798  62.3316168  15.7117666  70.9078143  62.6103871  14.9222289
  70.1796596  61.4299612  15.5290757  67.3363879  61.8787649  18.6497430
  67.9065236  62.3074918  18.0114914  67.9271991  61.5970234  19.3481615
  69.3808684  58.4539320  12.5207231  70.0832727  58.9060364  12.9881158
  69.0489312  57.8123139  13.1487125  67.8289045  57.0451077  26.8958441
  67.1987706  57.7267358  27.1293838  67.7225133  56.9334158  25.9511579
  63.1234018  56.7122873  17.8224365  62.3333072  56.9680401  17.3464476
  63.6145265  57.5271211  17.9276406  77.1397827  64.0528112  20.5729646
  77.9615271  63.6508299  20.2912327  77.1360230  63.9496346  21.5245762
  65.0748763  57.0767452  14.7807842  64.2779926  57.1886146  15.2991337
  64.8474355  57.4154104  13.9148732  70.9054431  63.6012155  22.7290356
  70.9698863  64.0632562  23.5648528  70.1965355  62.9709520  22.8572666
  61.4071721  56.9653363  20.2539356  61.6579759  57.8500373  20.5196932
  61.9431269  56.7857965  19.4814448  85.2303820  60.3966860  16.9214617
  84.4767529  59.8274258  16.7658622  85.3651362  60.3629525  17.8685252
  64.0731846  62.7855701  13.1697262  64.5856366  63.5798951  13.3202826
  64.7254559  62.0881991  13.1030863  65.8826731  65.9021457  15.2520015
  66.0593359  66.8239422  15.0640999  66.6783564  65.5879876  15.6814395
  70.0237749  52.7629722  26.8503948  70.7647462  53.3636875  26.7708411
  70.2555672  52.0207359  26.2921991  65.1679087  57.9486089  25.1282178
  65.0532602  57.0471346  25.4289277  64.3123605  58.1949786  24.7766995
  72.2470925  65.8903829  26.7269679  71.8034779  65.1040208  26.4090583
  72.9088138  66.0782980  26.0613570  67.0058046  67.4199631  21.2530357
  67.5565471  67.2916694  20.4807351  66.1669522  67.7194520  20.9025250
  74.3452163  66.1706629  24.7551080  74.3270638  66.9915510  24.2631349
  75.2672083  66.0460704  24.9801221  70.8025217  63.6850759  25.5974588
  71.3353554  62.9239047  25.3673896  70.2739298  63.3924410  26.3398743
  73.9694912  48.7910825  21.1268230  73.6259181  49.6812466  21.0507341
  74.3373875  48.6012482  20.2637815  62.0380763  61.1144355  13.9456832
  62.8755985  61.5241363  13.7290540  62.2159030  60.1743797  13.9157026
  71.5192306  53.6269136  14.6925904  70.6633902  53.2375987  14.5131542
  71.9319258  53.7061097  13.8325689  73.0491452  51.1615480  19.0917463
  72.5456248  51.1245615  18.2785269  73.3422059  52.0708222  19.1514120
  69.2934338  51.2454209  18.0983645  70.1587335  51.0497018  17.7389535
  69.3611847  51.0164561  19.0253002  73.7231498  56.6546528  11.4600446
  73.4181634  56.9692677  12.3110590  74.6761940  56.7327948  11.5027779
  72.1677930  62.8136751  13.1093400  71.6399291  62.0789511  12.7966638
  71.6665433  63.5911427  12.8633369  77.1470776  61.0085772  18.2260447
  76.4894450  61.6985033  18.3140575  77.9511175  61.3982204  18.5694433
  66.8996657  53.4756417  15.4700012  67.4740409  53.2531599  14.7373205
  67.4867640  53.5445112  16.2228613  75.9576235  59.3630144  16.2764388
  76.4708116  59.9960136  16.7786098  76.6077458  58.7631340  15.9107748
  67.2266245  55.5060878   9.4895897  66.3903557  55.8435565   9.8105172
  67.0871014  55.3709858   8.5523034  69.2019325  50.3497666  14.1975081
  68.5483737  50.0346683  13.5731696  69.1599799  49.7273407  14.9234904
  72.4357065  56.8379600  18.5222729  71.5179627  57.0594547  18.3644417
  72.8517209  56.9125910  17.6634436  73.2192113  58.2371015  13.6525409
  73.9663932  58.7492413  13.3432531  73.4883703  57.9155068  14.5129803
  75.6670950  55.2728132  15.6344199  74.9293707  54.7605518  15.9654441
  75.9197724  54.8328513  14.8227475  75.7682578  48.0504384  16.2285968
  76.0741455  47.1901747  15.9411883  76.4935183  48.6422004  16.0284962
  62.0606934  58.4535070  14.6167566  61.8631334  57.8604431  13.8918632
  61.5053598  58.1487281  15.3343505  70.0403657  58.3458177  16.7362159
  70.0952267  57.3932013  16.6604635  69.2294859  58.5017616  17.2203457
  67.9796017  56.9635237  14.4952538  67.1663883  57.2629407  14.9017730
  68.4755012  56.5690925  15.2127020  70.1304595  66.9592993  16.4286802
  70.0880774  67.1853840  15.4995334  71.0467294  66.7256368  16.5772604
  73.5770229  57.4277061  23.3267432  73.9319617  57.6548534  24.1861897
  74.2242360  57.7595438  22.7044687  67.4710092  54.5353592  20.1113773
  68.1109471  54.3942351  19.4136736  66.6387623  54.2488105  19.7352375
  79.3337346  62.6172024  19.0428032  79.7673852  62.5247313  19.8911086
  80.0468926  62.5929524  18.4048048  68.2470396  63.8356022  16.2248765
  69.0410995  63.3406343  16.0231340  67.5362088  63.3073886  15.8616471
  73.0665241  66.2174118  20.5761133  73.1202263  66.7865054  21.3438849
  72.1980022  66.3876003  20.2115170  64.5553160  57.9799104  12.3008518
  63.6250748  57.9183560  12.5178480  64.6510631  57.4575057  11.5045159
  64.4738709  54.5053917  14.8886760  64.7345526  55.4199250  14.7795920
  65.2955881  54.0378360  15.0383372  65.9463634  55.9191674  22.0585584
  66.6186687  55.7109036  21.4098233  65.1193420  55.7213760  21.6190816
  80.1952895  62.6595725  21.5760918  80.3888785  63.5641535  21.8220193
  80.0953513  62.2003144  22.4099503  71.8489206  52.5453615  24.0751245
  71.2017121  53.2443565  23.9815721  72.6190221  52.9789759  24.4427493
  75.2568004  62.8102467  27.1501798  75.1053510  62.5813019  26.2331882
  75.2472683  63.7673069  27.1633143  72.0253340  60.3834380  22.1348065
  72.9545400  60.5345540  21.9617032  71.6044370  60.4718401  21.2796711
  70.8241672  64.4085044  19.9046602  70.6852758  64.0403829  20.7772540
  70.0356268  64.9232684  19.7330560  72.3746887  63.7866647  17.2935440
  72.0396720  63.7467417  18.1893090  71.8750833  63.1211363  16.8205850
  66.3491131  59.1934277  22.8188021  66.2110929  58.4614516  23.4199560
  67.2596055  59.1043177  22.5372209  68.9773432  58.9054237  22.3071701
  69.6873050  58.2647429  22.2658319  68.9342740  59.1567131  23.2297882
  76.9660210  65.8421590  25.2278280  76.9072757  65.1580810  24.5608863
  77.3679729  66.5840580  24.7758906  67.6902366  55.8919454  24.1267340
  67.1539723  55.4410193  24.7788937  67.1019074  56.0265363  23.3837805
  65.9850909  72.6583504  18.0211999  66.2247508  73.2902028  18.6991018
  65.1420106  72.3071544  18.3077358  67.1004625  55.3508106   6.6893804
  66.2234091  55.2296907   6.3256051  67.5762378  54.5594184   6.4372693
  76.9677618  63.8061174  23.4592260  76.0804397  63.4687096  23.5818659
  77.5376169  63.0744205  23.6961025  58.6206765  60.1385266  16.7835311
  59.3077805  59.8246996  16.1956326  58.4654894  61.0426630  16.5102563
  63.4241487  55.0275462  21.2120335  63.3399676  54.4201132  20.4770745
  62.6024193  55.5184480  21.2129831  70.4978771  68.4662626  20.4253503
  70.4248943  69.2717598  20.9372808  70.0556164  68.6654592  19.6001524
  73.5965201  53.5129026  16.5790530  74.0933900  52.7598988  16.2591600
  72.8252182  53.5493342  16.0133739  81.4494958  59.2169391  18.2208821
  81.4384835  60.0994107  17.8502754  80.5812338  58.8640942  18.0263358
  72.9577455  68.3649460  22.5811662  73.6705427  68.9996925  22.5087563
  72.4667483  68.4613326  21.7651663  74.6794982  62.2700713  14.1528953
  73.7451260  62.3902175  13.9833658  74.8571650  61.3673180  13.8888963
  70.1800170  55.6546409  16.3062214  69.8097957  55.1017449  16.9943120
  70.6759262  55.0504542  15.7537215  78.0667533  58.1118032  14.6878987
  78.5327985  58.9446024  14.6139290  78.5175033  57.6463014  15.3924246
  68.0089368  66.1143904  23.4017232  68.7098828  66.7480387  23.5546627
  67.5384483  66.4558635  22.6412872  76.0384196  50.4798619  18.7269889
  75.1247275  50.7102846  18.8952096  76.4677297  50.5637063  19.5783921
  75.8090654  58.6688511  21.2269783  75.1562104  58.9164419  20.5722236
  76.1871034  57.8552649  20.8932260  71.8578227  59.4108322  27.7135820
  71.1818864  59.3102451  28.3838195  72.6805861  59.2547536  28.1771817
  63.6057086  65.6480259  20.3348335  64.1910523  64.9023947  20.4676239
  63.4081925  65.9584215  21.2184999  66.4595741  68.6831506  15.3510777
  65.7906117  69.1677634  14.8674818  66.3208611  68.9300727  16.2654156
  58.1974741  58.2185859  19.0552778  58.2358841  57.6849450  19.8489896
  57.6915034  57.6921064  18.4363755  70.6001010  70.7175250  21.9493436
  71.1519318  70.8806871  22.7142521  70.9407204  71.3079687  21.2773461
  65.5765503  53.0650399  22.5515321  65.6406830  53.9265230  22.1392718
  65.5132624  52.4524401  21.8187679  65.0517776  55.1373532  26.1988355
  65.6789815  54.7550609  26.8125879  64.1945695  54.9187734  26.5644047
  75.4511884  65.5436507  27.8042090  75.9951788  66.1566465  27.3097045
  74.8698729  66.1016086  28.3209103  61.8283319  56.9449961  12.1306710
  62.1236760  56.0360639  12.0773763  60.9271354  56.9237701  11.8087712
  73.7369397  68.6657225  18.9357118  73.6120537  67.8646965  18.4268064
  74.3948488  69.1603419  18.4471088  65.3577566  55.0205958  18.1134258
  64.6364151  55.6341925  17.9741732  66.1470821  55.5563722  18.0350904
  75.8004306  66.4666245  20.5636668  74.8534641  66.3471596  20.4914995
  76.1487079  65.5788743  20.6462930  68.1603879  52.3560384  24.3874910
  68.6838281  52.6022681  25.1501219  67.9416212  53.1880419  23.9678047
  63.5571160  54.6264059  12.2546035  63.2283866  53.7461438  12.0721141
  63.9110531  54.5711727  13.1422424  72.8050739  66.2618961  16.7641020
  72.6575701  65.3335669  16.9448590  73.6304233  66.2839052  16.2798096
  66.6712983  54.9137029  12.6221512  67.0109056  55.4422950  11.9000121
  67.1185104  55.2517435  13.3980079  76.4084861  67.0847520  17.8505893
  77.3331408  66.8790382  17.7130344  76.2400164  66.8363921  18.7595235
  69.3656424  53.2974079  22.0724581  69.0253245  52.4981892  22.4745260
  68.6595430  53.5975790  21.5001414  70.0172896  50.3823392  20.5251904
  70.8398965  49.9083870  20.4030794  70.2610960  51.1613875  21.0250590
  68.6581130  53.4111650  10.8214805  69.3789493  53.7892903  10.3178522
  68.0346435  54.1300527  10.9249783  72.8012253  54.1156799  11.7573138
  73.0175868  54.9981437  11.4561966  72.3206320  53.7243012  11.0278780
  67.5411475  57.0742512  18.3343882  67.3956055  57.3882815  19.2268164
  67.0636678  57.6927413  17.7814781  69.4007858  54.0645060  18.3824772
  69.3869426  53.1686154  18.0457070  70.1180286  54.0715724  19.0163058
  71.2533988  54.4982401  20.4277899  70.9951766  55.4199471  20.4262230
  70.7219029  54.1012835  21.1178363  62.0157137  59.6147857  21.2731543
  61.4710605  60.3907665  21.4051818  62.8936487  59.9618661  21.1150665
  68.8044754  52.9459441  13.6512342  68.9260665  52.0176087  13.8503229
  68.5146796  52.9598127  12.7390657  71.6735944  50.6314351  16.7879062
  71.6957641  50.6953684  15.8331041  72.0904003  49.7918860  16.9819568
  62.8023159  58.7417753  24.1661700  62.0604895  58.8900388  24.7526331
  62.4815903  59.0026019  23.3028450  70.7466821  68.2833731  23.9642090
  71.0553948  68.0382878  24.8364790  71.5442303  68.4880370  23.4760960
  63.2479772  66.6283182  16.1972095  64.0737792  66.3286954  15.8170738
  62.8973824  65.8590804  16.6461884  68.2161306  65.9809650  18.2669768
  67.5941315  65.3180355  17.9671996  68.8866172  66.0070782  17.5843416
  61.4488377  64.5469508  17.1561028  60.6120286  64.1191683  16.9745030
  61.4212023  64.7401951  18.0931820  68.2885833  54.4591438  27.8602274
  68.3373989  55.3353561  27.4780044  68.8308347  53.9168831  27.2873918
  78.7740679  65.0032561  27.1403412  77.9836222  64.9856700  26.6007911
  78.5374033  65.5420855  27.8952448  78.8938554  61.8525028  24.4536140
  78.9436559  61.6875035  25.3951663  78.7852477  60.9852287  24.0634021
  76.1842316  57.8355956  25.7695447  77.0852179  57.6962420  25.4779445
  76.2590291  58.0010410  26.7093624  70.5185122  55.2122810  24.6148633
  69.6488431  55.5056376  24.3431222  70.7544602  55.7963255  25.3355897
  80.3956751  64.2721969  24.6978162  80.1041559  64.6351950  25.5341623
  79.7828882  63.5588977  24.5191494  81.5952433  61.8374849  17.2180732
  82.4299324  62.2764653  17.3818292  81.7311562  61.3613502  16.3988978
  78.6443939  59.3954584  23.1658220  79.1198060  59.5882230  22.3577071
  77.7209504  59.4513770  22.9201603  65.5327445  60.5578751  12.7489298
  65.2873487  59.6541081  12.9469508  65.7023360  60.5595901  11.8068776
  73.2224155  51.4302427  22.1314054  73.7406099  52.1663454  21.8060542
  72.8679288  51.7366421  22.9660813  64.8023093  56.2907108  10.2475459
  64.1092338  56.3651463   9.5915495  64.5574845  55.5267452  10.7696976
  73.4736750  47.8502710  17.6514950  73.7538503  47.1825899  18.2775377
  74.2587356  48.0431805  17.1389614  77.3445608  56.2720344  21.3986525
  78.2963031  56.3718441  21.4198749  77.1749058  55.4798612  21.9084610
  75.3659987  53.3575927  21.5845926  74.7709919  53.6380940  20.8892415
  75.0809684  53.8469828  22.3562667  79.8233686  59.4926463  20.5128825
  79.7910006  58.5542464  20.6988509  80.4334309  59.5710500  19.7794650
  79.9728174  56.2837507  20.5587108  79.4567223  55.4995964  20.3717037
  80.8568123  55.9556224  20.7233628  77.6338901  50.0278522  16.5182921
  77.4363722  49.7193611  17.4026253  78.2438607  50.7540161  16.6480851
  85.6410236  60.5542470  19.6534862  86.3713624  60.2927758  20.2142565
  85.0317181  59.8171192  19.6936930  83.7225533  58.6950333  20.2509313
  82.9958696  58.5606298  19.6425804  83.3072820  59.0027162  21.0566031
  71.5455709  62.4140263  28.0156686  72.4658719  62.5918862  28.2096732
  71.5105292  61.4696308  27.8636385  60.7637874  57.6078856  16.9409961
  60.4440658  56.7544164  16.6484335  60.2171302  57.8227434  17.6967928
  64.5417782  60.3241297  20.6579467  64.7603791  61.2558405  20.6767501
  64.9543555  59.9649272  21.4434271  71.4621999  50.8309383  12.6455155
  70.6522728  50.4856468  13.0210402  72.1506416  50.5216926  13.2342767
  73.3912548  49.9087429  14.2679452  73.9443586  50.3282883  14.9269475
  73.6282634  48.9823177  14.3102408  69.4145647  55.8974503  30.0482216
  69.3142374  56.8468860  29.9794307  69.1967189  55.5692742  29.1758286
  68.6158718  53.1459428   6.6322893  69.4777882  53.4714326   6.8918711
  68.8009062  52.3590924   6.1195959  60.6326134  61.2281768  18.9103082
  59.9389605  60.8135721  18.3973037  61.3799125  61.2702304  18.3136501
  76.7691355  52.0187955  13.7758116  76.1890024  52.6772759  13.3936169
  76.5027287  51.1965299  13.3645534  75.2194921  51.4193012  15.9779437
  75.7194700  51.5309547  15.1693756  75.8630529  51.1154065  16.6180245
  69.2776917  59.3271642  28.8647278  68.7943999  60.1272002  29.0711167
  69.3637856  59.3379587  27.9114722  62.5462877  61.1600022  16.7869097
  62.5233565  61.2587709  15.8350980  62.8563513  62.0065172  17.1086263
  65.2050254  63.2176177  20.9015711  66.1593508  63.1860119  20.8345643
  65.0062778  62.7566800  21.7165937  65.7949637  61.7877293  23.4686509
  66.6142526  62.2821371  23.4921346  66.0686444  60.8709261  23.4404077
  75.5516233  54.1788045  12.8314465  74.6642088  54.4637696  12.6134659
  75.9670222  54.0181808  11.9841741  78.9030769  54.2034566  16.5468804
  79.6791159  54.6931018  16.8193421  78.1778903  54.6292620  17.0040673
  81.3403328  54.9162185  17.6042744  81.9347818  54.6757921  16.8936053
  81.4129911  54.1969316  18.2316281  63.5600483  68.7595796  17.9185909
  63.4254951  67.9996197  17.3523907  63.1432546  69.4836696  17.4514698
  79.3362062  55.4832313  13.8714874  79.0798997  55.0828948  14.7023082
  78.7114930  56.1976107  13.7465013  83.6474400  58.2228386  16.3786166
  83.0873958  58.2921575  17.1517728  83.0417904  58.0469371  15.6585662
  66.7169609  69.6565113  18.1304352  66.6001993  70.6010546  18.0283042
  65.8962055  69.3538675  18.5190151  73.5737943  63.1896274  29.6670847
  74.4429103  63.3636926  29.3057482  73.0944695  64.0090691  29.5446576
  69.5688161  50.3855471   9.9202602  69.5566831  51.3297311  10.0770873
  70.4611583  50.2025617   9.6262064  67.7424123  70.3093375  21.3460280
  68.6451370  70.3416985  21.6626775  67.5161493  69.3793826  21.3606616
  69.4977725  69.0624362  18.0070359  68.5473356  69.0626223  17.8934731
  69.8010211  68.3157096  17.4906394  73.3840281  46.9798248  14.1748539
  72.6172677  46.4256734  14.3205221  73.7950986  47.0520117  15.0362691
  82.5239908  76.0047180  24.9663852  82.5128549  75.6099978  24.0944355
  82.6860548  75.2713252  25.5597623  87.7105535  66.2733161  21.5096917
  87.3788860  67.1428572  21.2858132  87.1151148  65.9569445  22.1890947
  81.6775064  72.4117893  26.5325164  80.9008398  72.9711813  26.5228028
  82.3165627  72.8974676  27.0540034  79.9321436  75.2203346  26.0943131
  80.6736121  75.7588390  25.8177954  79.2258422  75.8469635  26.2514683
  84.9107291  69.9609462  23.7230023  84.6668223  70.7151522  23.1864299
  85.1867222  70.3394809  24.5577270  78.6682800  72.3742994  26.8958441
  78.0381460  73.0559275  27.1293838  78.5618888  72.2626076  25.9511579
  72.2465475  72.2945281  20.2539356  72.4973514  73.1792291  20.5196932
  72.7825024  72.1149882  19.4814448  77.9463543  66.6763760  29.2583692
  77.5530488  66.1229959  29.9331336  78.7629683  66.9874339  29.6490209
  80.8631504  68.0921639  26.8503948  81.6041217  68.6928792  26.7708411
  81.0949426  67.3499277  26.2921991  76.0072842  73.2778007  25.1282178
  75.8926357  72.3763264  25.4289277  75.1517359  73.5241703  24.7766995
  84.8088667  64.1202742  21.1268230  84.4652936  65.0104384  21.0507341
  85.1767629  63.9304400  20.2637815  78.3103847  69.8645510  20.1113773
  78.9503226  69.7234269  19.4136736  77.4781377  69.5780023  19.7352375
  76.7857388  71.2483592  22.0585584  77.4580442  71.0400954  21.4098233
  75.9587175  71.0505678  21.6190816  82.6882960  67.8745533  24.0751245
  82.0410875  68.5735482  23.9815721  83.4583976  68.3081677  24.4427493
  77.1884886  74.5226195  22.8188021  77.0504684  73.7906434  23.4199560
  78.0989809  74.4335095  22.5372209  79.8167186  74.2346154  22.3071701
  80.5266805  73.5939346  22.2658319  79.7736494  74.4859049  23.2297882
  78.5296120  71.2211372  24.1267340  77.9933477  70.7702111  24.7788937
  77.9412829  71.3557281  23.3837805  74.2635242  70.3567380  21.2120335
  74.1793430  69.7493049  20.4770745  73.4417948  70.8476398  21.2129831
  82.6971982  74.7400240  27.7135820  82.0212619  74.6394369  28.3838195
  83.5199616  74.5839454  28.1771817  69.0368495  73.5477777  19.0552778
  69.0752595  73.0141367  19.8489896  68.5308788  73.0212982  18.4363755
  76.4159258  68.3942317  22.5515321  76.4800584  69.2557148  22.1392718
  76.3526378  67.7816319  21.8187679  75.8911530  70.4665450  26.1988355
  76.5183569  70.0842527  26.8125879  75.0339449  70.2479652  26.5644047
  78.9997634  67.6852302  24.3874910  79.5232035  67.9314598  25.1501219
  78.7809967  68.5172337  23.9678047  80.2050179  68.6265997  22.0724581
  79.8646999  67.8273810  22.4745260  79.4989185  68.9267708  21.5001414
  80.8566650  65.7115309  20.5251904  81.6792720  65.2375788  20.4030794
  81.1004714  66.4905793  21.0250590  72.8550891  74.9439774  21.2731543
  72.3104359  75.7199582  21.4051818  73.7330241  75.2910579  21.1150665
  73.6416913  74.0709671  24.1661700  72.8998649  74.2192306  24.7526331
  73.3209658  74.3317936  23.3028450  79.1279588  69.7883356  27.8602274
  79.1767743  70.6645478  27.4780044  79.6702102  69.2460749  27.2873918
  87.0236071  73.1647873  25.7695447  87.9245933  73.0254338  25.4779445
  87.0984045  73.3302328  26.7093624  81.3578876  70.5414728  24.6148633
  80.4882185  70.8348294  24.3431222  81.5938356  71.1255173  25.3355897
  84.0617910  66.7594345  22.1314054  84.5799854  67.4955372  21.8060542
  83.7073043  67.0658338  22.9660813  82.3849464  77.7432180  28.0156686
  83.3052473  77.9210779  28.2096732  82.3499047  76.7988226  27.8636385
  80.2539401  71.2266421  30.0482216  80.1536128  72.1760778  29.9794307
  80.0360943  70.8984660  29.1758286  80.1170671  74.6563560  28.8647278
  79.6337753  75.4563920  29.0711167  80.2031611  74.6671504  27.9114722
  76.6343391  77.1169210  23.4686509  77.4536280  77.6113289  23.4921346
  76.9080199  76.2001178  23.4404077  71.8878305  71.4507344  24.1678706
  72.5337169  70.9406298  24.6565931  71.6795456  72.1876026  24.7422131
  76.2275796  68.5974961  28.2653720  77.0907258  68.2411766  28.4757045
  75.6541207  68.2588856  28.9529125  50.0058646   7.0233549  11.6909158
  49.9947287   6.6286348  10.8189662  50.1679285   6.2899622  12.2842930
  46.7265907   9.8070661  10.6388342  46.4355773  10.7116292  10.5235009
  47.3622891   9.8487189  11.3532412  51.6855792   9.4932077   7.6338136
  51.3856515  10.3957115   7.5253943  51.3406852   9.2264260   8.4859289
  49.1593802   3.4304262  13.2570471  48.3827136   3.9898183  13.2473335
  49.7984365   3.9161045  13.7785341  47.4140174   6.2389716  12.8188438
  48.1554858   6.7774760  12.5423261  46.7077159   6.8656005  12.9759989
  52.8895514   8.3818856  11.4160599  53.2978870   7.9401267  10.6715231
  52.1672775   7.8071484  11.6694792  54.3464492   7.5234444   9.1252595
  54.5581387   8.1666204   8.4486976  54.2994240   6.6896760   8.6574525
  55.4610320  10.4006399   7.2974952  56.2827763   9.9986586   7.0157634
  55.4572723  10.2974633   8.2491068  49.2266923   9.9490442   9.4535663
  49.2911356  10.4110850  10.2893835  48.5177847   9.3187807   9.5817973
  50.5683417  12.2382116  13.4514985  50.1247271  11.4518495  13.1335890
  51.2300631  12.4261267  12.7858876  52.6664655  12.5184916  11.4796387
  52.6483131  13.3393797  10.9876656  53.5884575  12.3938992  11.7046528
  49.1237709  10.0329046  12.3219895  49.6566046   9.2717334  12.0919203
  48.5951790   9.7402698  13.0644050  57.6549838   8.9650311   5.7673339
  58.0886345   8.8725600   6.6156393  58.3681419   8.9407812   5.1293355
  51.3877733  12.5652405   7.3006439  51.4414755  13.1343342   8.0684155
  50.5192514  12.7354290   6.9360477  58.5165387   9.0074012   8.3006224
  58.7101278   9.9119822   8.5465499  58.4166006   8.5481431   9.1344809
  53.5780496   9.1580755  13.8747105  53.4266003   8.9291306  12.9577189
  53.5685176  10.1151356  13.8878450  55.2872703  12.1899877  11.9523587
  55.2285249  11.5059097  11.2854170  55.6892221  12.9318867  11.5004213
  55.2890110  10.1539461  10.1837566  54.4016889   9.8165383  10.3063965
  55.8588661   9.4222492  10.4206332  48.8191263  14.8140913   7.1498810
  48.7461435  15.6195885   7.6618114  48.3768657  15.0132879   6.3246831
  51.2789947  14.7127747   9.3056968  51.9917919  15.3475212   9.2332870
  50.7879976  14.8091613   8.4896970  46.3301860  12.4622191  10.1262539
  47.0311320  13.0958674  10.2791933  45.8596975  12.8036922   9.3658178
  50.1790719   5.7586609  14.4381127  49.5031356   5.6580739  15.1083502
  51.0018353   5.6025823  14.9017124  48.9213502  17.0653537   8.6738743
  49.4731810  17.2285158   9.4387828  49.2619696  17.6557975   8.0018767
  53.7724377  11.8914794  14.5287397  54.3164281  12.5044753  14.0342352
  53.1911222  12.4494373  15.0454410  52.0581890  15.0135512   5.6602425
  51.9333029  14.2125252   5.1513370  52.7160981  15.5081706   5.1716395
  54.1216798  12.8144532   7.2881975  53.1747134  12.6949884   7.2160301
  54.4699571  11.9267031   7.3708236  54.7297353  13.4325807   4.5751200
  55.6543901  13.2268669   4.4375651  54.5612657  13.1842209   5.4840541
  49.0679314  14.6312018  10.6887397  49.3766440  14.3861165  11.5610096
  49.8654796  14.8358657  10.2006267  57.0953171  11.3510848  13.8648718
  56.3048715  11.3334987  13.3253218  56.8586526  11.8899142  14.6197755
  57.2151046   8.2003315  11.1781447  57.2649051   8.0353322  12.1196970
  57.1064969   7.3330574  10.7879327  54.5054808   4.1834243  12.4940753
  55.4064671   4.0440708  12.2024751  54.5802783   4.3488698  13.4338931
  58.7169243  10.6200256  11.4223468  58.4254051  10.9830237  12.2586929
  58.1041374   9.9067265  11.2436800  56.9656431   5.7432871   9.8903526
  57.4410553   5.9360517   9.0822378  56.0421997   5.7992057   9.6446910
  49.8668201   8.7618550  14.7401993  50.7871211   8.9397149  14.9342039
  49.8317784   7.8174595  14.5881692  47.7358139   2.2452790  16.7727523
  47.6354866   3.1947147  16.7039614  47.5179681   1.9171029  15.9003593
  47.5989409   5.6749929  15.5892584  47.1156491   6.4750289  15.7956473
  47.6850348   5.6857874  14.6360028  51.8950435   9.5374561  16.3916153
  52.7641595   9.7115213  16.0302788  51.4157187  10.3568978  16.2691883
  46.0636616  16.6571662   8.0705587  46.9663862  16.6895272   8.3872082
  45.8373986  15.7272113   8.0851923  63.5542911  21.2463187   5.7961428
  64.1921321  21.1269934   5.0924768  63.4363754  22.1944031   5.8549380
  60.3632617  21.1990615   5.7322953  60.0251129  21.0831680   4.8443488
  61.2322386  20.7981780   5.7123959  56.2219433  23.0526092   1.7219844
  55.6584298  22.9616029   0.9536131  56.1071828  22.2325996   2.2022336
  60.8452400  22.3525467  11.6909158  60.8341041  21.9578265  10.8189662
  61.0073040  21.6191540  12.2842930  53.7683865  24.5477283   4.5604064
  54.5605157  24.2068108   4.1450363  54.0080515  24.6572258   5.4806217
  57.5659661  25.1362579  10.6388342  57.2749527  26.0408210  10.5235009
  58.2016646  25.1779106  11.3532412  58.4915868  22.5139427   7.2289702
  59.0879441  22.2895450   6.5146665  58.5490840  21.7724173   7.8315150
  60.1268726  21.3317116   0.9710957  59.7626934  20.8047737   1.6823878
  60.9835842  20.9415585   0.7977442  62.5249547  24.8223994   7.6338136
  62.2250270  25.7249033   7.5253943  62.1800606  24.5556178   8.4859289
  55.9762028  21.2737791   3.6674840  55.0512524  21.1414005   3.8752532
  56.2246441  22.0532010   4.1644783  53.3370839  20.9171065   4.5018629
  53.4663220  21.1705544   5.4158041  52.6568290  21.5098773   4.1823284
  57.5070326  31.5868315   0.6009104  57.4294356  32.5376140   0.6797584
  56.9031970  31.2414187   1.2584030  59.9987556  18.7596180  13.2570471
  59.2220890  19.3190100  13.2473335  60.6378119  19.2452963  13.7785341
  58.2533928  21.5681633  12.8188438  58.9948613  22.1066677  12.5423261
  57.5470914  22.1947922  12.9759989  63.7289268  23.7110774  11.4160599
  64.1372624  23.2693184  10.6715231  63.0066530  23.1363401  11.6694792
  60.0820338  18.6483381   8.7894156  60.9281533  19.0722794   8.9328805
  60.0218976  17.9917005   9.4832719  64.0518083  24.2711965   5.1712888
  63.4226945  24.4357679   4.4688956  63.6643745  24.6853574   5.9423852
  63.2319783  16.3087749  10.4475330  62.9880715  17.0629810   9.9109605
  63.5079714  16.6873097  11.2822577  65.1858246  22.8526361   9.1252595
  65.3975141  23.4958121   8.4486976  65.1387994  22.0188678   8.6574525
  62.7884475  15.4644182   6.0289167  61.9268954  15.7625436   6.3205905
  62.8146910  15.6814581   5.0970200  59.6046045  24.0086373   2.4362973
  60.0684390  24.2874076   1.6467595  59.3402843  23.1069817   2.2536064
  56.4970126  23.5557854   5.3742736  57.0671483  23.9845123   4.7360221
  57.0878237  23.2740439   6.0726922  58.5414931  20.1309525  -0.7547462
  59.2438974  20.5830569  -0.2873536  58.2095559  19.4893344  -0.1267569
  56.9895292  18.7221282  13.6203747  56.3593953  19.4037562  13.8539144
  56.8831380  18.6104363  12.6756886  52.2840265  18.3893078   4.5469672
  51.4939319  18.6450606   4.0709782  52.7751512  19.2041415   4.6521712
  66.3004074  25.7298317   7.2974952  67.1221518  25.3278504   7.0157634
  66.2966477  25.6266551   8.2491068  60.0660678  25.2782360   9.4535663
  60.1305110  25.7402767  10.2893835  59.3571601  24.6479725   9.5817973
  50.5677968  18.6423568   6.9784662  50.8186006  19.5270578   7.2442238
  51.1037516  18.4628170   6.2059754  59.7808695  26.9450468  -0.6785357
  59.6454370  27.7902003  -0.2500509  60.3218508  27.1469745  -1.4419423
  56.2676035  13.0242047  15.9828999  55.8742980  12.4708246  16.6576643
  57.0842175  13.3352626  16.3735516  53.2338093  24.4625906  -0.1057432
  53.7462613  25.2569156   0.0448133  53.8860805  23.7652196  -0.1723830
  55.0432977  27.5791662   1.9765322  55.2199606  28.5009627   1.7886305
  55.8389811  27.2650081   2.4059701  59.1843996  14.4399927  13.5749255
  59.9253709  15.0407080  13.4953718  59.4161919  13.6977564  13.0167298
  54.3285334  19.6256294  11.8527485  54.2138849  18.7241551  12.1534584
  53.4729852  19.8719991  11.5012301  61.4077172  27.5674034  13.4514985
  60.9641026  26.7810413  13.1335890  62.0694385  27.7553185  12.7858876
  56.1664293  29.0969836   7.9775664  56.7171718  28.9686899   7.2052658
  55.3275769  29.3964725   7.6270557  63.5058410  27.8476834  11.4796387
  63.4876885  28.6685715  10.9876656  64.4278330  27.7230909  11.7046528
  59.9631464  25.3620964  12.3219895  60.4959801  24.6009252  12.0919203
  59.4345545  25.0694615  13.0644050  51.1987009  22.7914560   0.6702139
  52.0362231  23.2011568   0.4535847  51.3765277  21.8514002   0.6402333
  62.2097699  12.8385685   5.8162770  61.7062495  12.8015820   5.0030575
  62.5028306  13.7478427   5.8759427  58.4540585  12.9224414   4.8228952
  59.3193582  12.7267223   4.4634841  58.5218094  12.6934766   5.7498309
  61.3284177  24.4906956  -0.1661293  60.8005538  23.7559716  -0.4788055
  60.8271679  25.2681632  -0.4121325  66.3077023  22.6855976   4.9505753
  65.6500697  23.3755238   5.0385882  67.1117422  23.0752408   5.2939740
  62.3804856  31.0184673  -4.2429634  61.7066554  31.3216370  -3.6344676
  62.7670678  31.8213754  -4.5924177  61.5963312  18.5149805   5.2468036
  60.6785874  18.7364752   5.0889724  62.0123456  18.5896115   4.3879743
  65.8844278  26.0206351   1.1288838  65.4306605  25.1797261   1.1854028
  65.2538244  26.6567749   1.4663618  64.3277217  27.8582847   2.0638656
  64.6200191  28.4187904   1.3451022  64.8375837  28.1511408   2.8191815
  59.2009904  20.0228382   3.4607466  59.2558514  19.0702218   3.3849942
  58.3901106  20.1787821   3.9448764  57.1402264  18.6405441   1.2197844
  56.3270130  18.9399612   1.6263037  57.6361258  18.2461130   1.9372327
  59.2910842  28.6363198   3.1532109  59.2487021  28.8624045   2.2240641
  60.2073541  28.4026573   3.3017910  62.7376476  19.1047266  10.0512738
  63.0925864  19.3318739  10.9107204  63.3848607  19.4365643   9.4289994
  56.6316339  16.2123797   6.8359079  57.2715718  16.0712556   6.1382043
  55.7993869  15.9258310   6.4597681  68.4943592  24.2942229   5.7673339
  68.9280099  24.2017518   6.6156393  69.2075173  24.2699729   5.1293355
  57.4076643  25.5126227   2.9494072  58.2017241  25.0176548   2.7476647
  56.6968335  24.9844091   2.5861777  62.2271487  27.8944323   7.3006439
  62.2808510  28.4635259   8.0684155  61.3586269  28.0646208   6.9360477
  55.1069881  17.5961879   8.7830891  55.7792934  17.3879241   8.1343540
  54.2799667  17.3983965   8.3436123  69.3559142  24.3365929   8.3006224
  69.5495032  25.2411740   8.5465499  69.2559760  23.8773349   9.1344809
  61.0095453  14.2223820  10.7996552  60.3623368  14.9213770  10.7061028
  61.7796468  14.6559964  11.1672800  64.4174251  24.4872672  13.8747105
  64.2659757  24.2583224  12.9577189  64.4078930  25.4443274  13.8878450
  61.1859587  22.0604585   8.8593371  62.1151647  22.2115745   8.6862339
  60.7650617  22.1488606   8.0042018  59.9847919  26.0855249   6.6291909
  59.8459004  25.7174034   7.5017847  59.1962515  26.6002889   6.4575867
  60.5796071  31.1864346  -2.0282555  60.7547826  30.7152389  -1.2136932
  59.8928859  31.8130112  -1.8001294  61.5353134  25.4636852   4.0180747
  61.2002967  25.4237622   4.9138397  61.0357080  24.7981568   3.5451157
  55.5097378  20.8704482   9.5433328  55.3717176  20.1384721  10.1444867
  56.4202301  20.7813382   9.2617516  58.1379679  20.5824441   9.0317008
  58.8479297  19.9417634   8.9903626  58.0948987  20.8337336   9.9543188
  66.1266457  27.5191795  11.9523587  66.0679003  26.8351015  11.2854170
  66.5285976  28.2610785  11.5004213  56.8508613  17.5689659  10.8512647
  56.3145970  17.1180398  11.5034243  56.2625321  17.7035568  10.1083111
  55.1457156  34.3353709   4.7457306  55.3853754  34.9672233   5.4236324
  54.3026353  33.9841749   5.0322665  66.1283865  25.4831379  10.1837566
  65.2410643  25.1457301  10.3063965  66.6982416  24.7514410  10.4206332
  47.7813012  21.8155470   3.5080618  48.4684051  21.5017201   2.9201633
  47.6261140  22.7196835   3.2347869  52.5847734  16.7045667   7.9365641
  52.5005923  16.0971337   7.2016051  51.7630440  17.1954685   7.9375138
  59.6585018  30.1432831   7.1498810  59.5855189  30.9487803   7.6618114
  59.2162411  30.3424797   6.3246831  59.4474798  29.3804601   0.6601631
  58.6642319  29.9226281   0.7539856  60.1467543  29.8978581   1.0595872
  62.1183701  30.0419665   9.3056968  62.8311674  30.6767130   9.2332870
  61.6273730  30.1383531   8.4896970  59.3406416  17.3316614   3.0307521
  58.9704204  16.7787654   3.7188427  59.8365509  16.7274747   2.4782521
  57.1695615  27.7914109  10.1262539  57.8705074  28.4250592  10.2791933
  56.6990730  28.1328840   9.3658178  64.9696901  20.3458716   7.9515089
  64.3168351  20.5934623   7.2967542  65.3477281  19.5322854   7.6177567
  61.9304075  30.3818409   2.0543260  62.1126469  29.5640065   2.5171012
  62.7537061  30.5986101   1.6168150  62.2646240  29.3086594  -0.6841692
  62.7934007  28.7979049  -1.2971530  62.5274460  28.9929125   0.1803841
  61.0184474  21.0878527  14.4381127  60.3425111  20.9872656  15.1083502
  61.8412108  20.9317741  14.9017124  52.7663333  27.3250464   7.0593642
  53.3516770  26.5794152   7.1921546  52.5688171  27.6354420   7.9430306
  55.6201988  30.3601711   2.0756084  54.9512364  30.8447839   1.5920124
  55.4814858  30.6070931   2.9899463  47.3580988  19.8956064   5.7798085
  47.3965087  19.3619655   6.5735203  46.8521281  19.3691269   5.1609062
  59.7607257  32.3945455   8.6738743  60.3125565  32.5577076   9.4387828
  60.1013450  32.9849892   8.0018767  54.7371750  14.7420604   9.2760627
  54.8013077  15.6035435   8.8638025  54.6738870  14.1294606   8.5432986
  54.2124023  16.8143737  12.9233661  54.8396061  16.4320814  13.5371186
  53.3551941  16.5957939  13.2889354  64.6118131  27.2206712  14.5287397
  65.1558035  27.8336670  14.0342352  64.0304976  27.7786290  15.0454410
  62.8975644  30.3427430   5.6602425  62.7726784  29.5417170   5.1513370
  63.5554735  30.8373623   5.1716395  54.5183812  16.6976163   4.8379565
  53.7970398  17.3112130   4.6987038  55.3077068  17.2333927   4.7596211
  64.9610553  28.1436450   7.2881975  64.0140888  28.0241801   7.2160301
  65.3093326  27.2558948   7.3708236  57.3210126  14.0330589  11.1120217
  57.8444528  14.2792886  11.8746526  57.1022459  14.8650624  10.6923354
  61.9656986  27.9389166   3.4886327  61.8181948  27.0105874   3.6693897
  62.7910479  27.9609257   3.0043402  65.5691108  28.7617725   4.5751200
  66.4937655  28.5560586   4.4375651  65.4006411  28.5134126   5.4840541
  58.5262671  14.9744284   8.7969887  58.1859491  14.1752097   9.1990567
  57.8201677  15.2745995   8.2246720  59.1779143  12.0593597   7.2497210
  60.0005212  11.5854075   7.1276101  59.4217206  12.8384080   7.7495896
  56.7017722  18.7512717   5.0589189  56.5562302  19.0653020   5.9513470
  56.2242925  19.3697618   4.5060087  58.5614104  15.7415265   5.1070078
  58.5475673  14.8456359   4.7702376  59.2786532  15.7485929   5.7408364
  60.4140235  16.1752605   7.1523206  60.1558013  17.0969676   7.1507536
  59.8825275  15.7783040   7.8423670  65.3586424  29.2803393  -0.0686709
  65.5323301  28.7149815  -0.8212856  65.8515315  30.0804287  -0.2507219
  51.1763384  21.2918062   7.9976850  50.6316852  22.0677870   8.1297124
  52.0542734  21.6388866   7.8395971  51.9629406  20.4187958  10.8907007
  51.2211142  20.5670593  11.4771637  51.6422150  20.6796224  10.0273756
  59.9073068  29.9603936  10.6887397  60.2160195  29.7153083  11.5610096
  60.7048550  30.1650575  10.2006267  59.9293680  32.1141846   2.9192773
  59.4898671  31.6218224   3.6125630  60.6801797  31.5714813   2.6784849
  52.4086019  28.3053387   2.9217401  53.2344039  28.0057158   2.5416045
  52.0580071  27.5361009   3.3707190  57.3767552  27.6579855   4.9915075
  56.7547562  26.9950560   4.6917303  58.0472419  27.6840987   4.3088723
  50.6094624  26.2239713   3.8806335  49.7726533  25.7961887   3.6990336
  50.5818270  26.4172156   4.8177126  57.4492080  16.1361643  14.5847581
  57.4980235  17.0123766  14.2025351  57.9914594  15.5939036  14.0119224
  67.9346926  26.6802766  13.8648718  67.1442469  26.6626905  13.3253218
  67.6980280  27.2191060  14.6197755  68.0544801  23.5295232  11.1781447
  68.1042806  23.3645240  12.1196970  67.9458724  22.6622492  10.7879327
  56.9381059  26.2083778  -1.5326464  57.0869180  26.8919243  -2.1859792
  57.7447503  26.1888868  -1.0177009  65.3448563  19.5126161  12.4940753
  66.2458426  19.3732625  12.2024751  65.4196537  19.6780615  13.4338931
  59.6791368  16.8893015  11.3393940  58.8094678  17.1826581  11.0676528
  59.9150849  17.4733460  12.0601203  69.5562997  25.9492174  11.4223468
  69.2647806  26.3122155  12.2586929  68.9435129  25.2359182  11.2436800
  67.8050186  21.0724789   9.8903526  68.2804307  21.2652435   9.0822378
  66.8815751  21.1283974   9.6446910  62.3830402  13.1072632   8.8559360
  62.9012346  13.8433659   8.5305849  62.0285535  13.4136625   9.6906119
  60.4376465  28.7031909  -4.0614717  59.8650432  29.3222096  -4.5144245
  61.0109258  29.2531270  -3.5274795  66.5051855  17.9490549   8.1231832
  67.4569278  18.0488646   8.1444056  66.3355305  17.1568817   8.6329916
  64.5266234  15.0346132   8.3091233  63.9316166  15.3151145   7.6137721
  64.2415931  15.5240033   9.0807974  68.9839932  21.1696668   7.2374131
  68.9516253  20.2312669   7.4233815  69.5940556  21.2480705   6.5039956
  60.7061956  24.0910468  14.7401993  61.6264965  24.2689067  14.9342039
  60.6711539  23.1466513  14.5881692  49.9244121  19.2849061   3.6655267
  49.6046905  18.4314369   3.3729641  49.3777549  19.4997639   4.4213234
  53.7024028  22.0011502   7.3824774  53.9210038  22.9328610   7.4012807
  54.1149802  21.6419477   8.1679578  58.5751894  17.5744708  16.7727523
  58.4748621  18.5239065  16.7039614  58.3573436  17.2462947  15.9003593
  49.7932381  22.9051973   5.6348389  49.0995852  22.4905925   5.1218343
  50.5405372  22.9472509   5.0381808  58.4383164  21.0041847  15.5892584
  57.9550245  21.8042207  15.7956473  58.5244103  21.0149792  14.6360028
  51.7069123  22.8370226   3.5114404  51.6839811  22.9357914   2.5596287
  52.0169760  23.6835377   3.8331570  54.3656501  24.8946381   7.6261018
  55.3199755  24.8630324   7.5590950  54.1669025  24.4337005   8.4411244
  54.9555883  23.4647498  10.1931816  55.7748772  23.9591576  10.2166653
  55.2292691  22.5479466  10.1649383  52.7206730  30.4366001   4.6431216
  52.5861198  29.6766402   4.0769214  52.3038792  31.1606901   4.1760005
  55.8775856  31.3335318   4.8549659  55.7608240  32.2780750   4.7528349
  55.0568302  31.0308880   5.2435458  50.2090798  17.7985631  10.8924013
  50.8549661  17.2884585  11.3811238  50.0007949  18.5354313  11.4667438
  62.7344190  24.8666479  16.3916153  63.6035349  25.0407131  16.0302788
  62.2550941  25.6860896  16.2691883  56.9030370  31.9863580   8.0705587
  57.8057617  32.0187190   8.3872082  56.6767740  31.0564031   8.0851923
  58.6583972  30.7394566   4.7315666  57.7079603  30.7396428   4.6180038
  58.9616458  29.9927301   4.2151700  54.5488289  14.9453248  14.9899027
  55.4119750  14.5890053  15.2002352  53.9753699  14.6067143  15.6774431
  74.3936666  36.5755105   5.7961428  75.0315075  36.4561852   5.0924768
  74.2757508  37.5235949   5.8549380  71.2026372  36.5282533   5.7322953
  70.8644883  36.4123598   4.8443488  72.0716140  36.1273698   5.7123959
  67.0613188  38.3818009   1.7219844  66.4978053  38.2907946   0.9536131
  66.9465583  37.5617914   2.2022336  71.6846155  37.6817385  11.6909158
  71.6734796  37.2870183  10.8189662  71.8466794  36.9483457  12.2842930
  64.6077619  39.8769201   4.5604064  65.3998911  39.5360026   4.1450363
  64.8474270  39.9864176   5.4806217  66.5668373  39.1378114  -2.5678557
  67.3399249  38.5907101  -2.7065681  66.9193772  40.0022364  -2.3564096
  68.4053416  40.4654496  10.6388342  68.1143282  41.3700127  10.5235009
  69.0410400  40.5071024  11.3532412  69.3309623  37.8431345   7.2289702
  69.9273195  37.6187367   6.5146665  69.3884594  37.1016090   7.8315150
  70.9662481  36.6609033   0.9710957  70.6020688  36.1339654   1.6823878
  71.8229597  36.2707502   0.7977442  73.3643301  40.1515912   7.6338136
  73.0644024  41.0540951   7.5253943  73.0194361  39.8848095   8.4859289
  66.8155782  36.6029709   3.6674840  65.8906279  36.4705923   3.8752532
  67.0640196  37.3823928   4.1644783  64.1764594  36.2462982   4.5018629
  64.3056975  36.4997461   5.4158041  63.4962045  36.8390690   4.1823284
  70.8381311  34.0888098  13.2570471  70.0614645  34.6482018  13.2473335
  71.4771874  34.5744881  13.7785341  69.0927683  36.8973551  12.8188438
  69.8342367  37.4358595  12.5423261  68.3864668  37.5239840  12.9759989
  74.5683023  39.0402692  11.4160599  74.9766379  38.5985102  10.6715231
  73.8460284  38.4655319  11.6694792  70.9214093  33.9775298   8.7894156
  71.7675288  34.4014712   8.9328805  70.8612730  33.3208923   9.4832719
  74.8911837  39.6003882   5.1712888  74.2620700  39.7649596   4.4688956
  74.5037499  40.0145492   5.9423852  74.0713538  31.6379667  10.4475330
  73.8274470  32.3921727   9.9109605  74.3473468  32.0165014  11.2822577
  76.0252001  38.1818279   9.1252595  76.2368896  38.8250039   8.4486976
  75.9781749  37.3480596   8.6574525  73.6278230  30.7936100   6.0289167
  72.7662709  31.0917353   6.3205905  73.6540664  31.0106499   5.0970200
  70.4439799  39.3378290   2.4362973  70.9078145  39.6165993   1.6467595
  70.1796597  38.4361735   2.2536064  67.3363880  38.8849772   5.3742736
  67.9065237  39.3137040   4.7360221  67.9271992  38.6032357   6.0726922
  69.3808685  35.4601443  -0.7547462  70.0832728  35.9122486  -0.2873536
  69.0489314  34.8185262  -0.1267569  67.8289047  34.0513199  13.6203747
  67.1987707  34.7329480  13.8539144  67.7225135  33.9396281  12.6756886
  63.1234019  33.7184995   4.5469672  62.3333073  33.9742524   4.0709782
  63.6145266  34.5333333   4.6521712  77.1397829  41.0590234   7.2974952
  77.9615272  40.6570422   7.0157634  77.1360232  40.9558469   8.2491068
  65.0748764  34.0829575   1.5053148  64.2779928  34.1948269   2.0236644
  64.8474357  34.4216227   0.6394039  70.9054432  40.6074278   9.4535663
  70.9698865  41.0694685  10.2893835  70.1965356  39.9771643   9.5817973
  61.4071722  33.9715486   6.9784662  61.6579760  34.8562496   7.2442238
  61.9431270  33.7920087   6.2059754  67.1069789  28.3533965  15.9828999
  66.7136735  27.8000164  16.6576643  67.9235930  28.6644544  16.3735516
  64.0731847  39.7917823  -0.1057432  64.5856368  40.5861074   0.0448133
  64.7254560  39.0944114  -0.1723830  65.8826732  42.9083580   1.9765322
  66.0593360  43.8301544   1.7886305  66.6783565  42.5941999   2.4059701
  70.0237750  29.7691844  13.5749255  70.7647464  30.3698997  13.4953718
  70.2555673  29.0269482  13.0167298  65.1679088  34.9548211  11.8527485
  65.0532604  34.0533469  12.1534584  64.3123606  35.2011908  11.5012301
  72.2470926  42.8965952  13.4514985  71.8034780  42.1102330  13.1335890
  72.9088140  43.0845102  12.7858876  67.0058047  44.4261753   7.9775664
  67.5565472  44.2978817   7.2052658  66.1669523  44.7256642   7.6270557
  74.3452164  43.1768752  11.4796387  74.3270640  43.9977633  10.9876656
  75.2672084  43.0522827  11.7046528  70.8025218  40.6912881  12.3219895
  71.3353555  39.9301169  12.0919203  70.2739299  40.3986533  13.0644050
  62.0380764  38.1206478   0.6702139  62.8755986  38.5303486   0.4535847
  62.2159032  37.1805920   0.6402333  73.0491454  28.1677602   5.8162770
  72.5456249  28.1307737   5.0030575  73.3422061  29.0770345   5.8759427
  69.2934340  28.2516332   4.8228952  70.1587336  28.0559141   4.4634841
  69.3611848  28.0226684   5.7498309  72.1677931  39.8198874  -0.1661293
  71.6399293  39.0851633  -0.4788055  71.6665434  40.5973550  -0.4121325
  77.1470777  38.0147894   4.9505753  76.4894452  38.7047156   5.0385882
  77.9511176  38.4044326   5.2939740  66.8996659  30.4818540   2.1945319
  67.4740411  30.2593721   1.4618512  67.4867641  30.5507234   2.9473920
  72.4357067  33.8441722   5.2468036  71.5179628  34.0656669   5.0889724
  72.8517210  33.9188033   4.3879743  62.0606935  35.4597193   1.3412872
  61.8631335  34.8666554   0.6163939  61.5053599  35.1549403   2.0588811
  70.0403659  35.3520299   3.4607466  70.0952268  34.3994136   3.3849942
  69.2294861  35.5079739   3.9448764  67.9796019  33.9697359   1.2197844
  67.1663884  34.2691530   1.6263037  68.4755013  33.5753048   1.9372327
  70.1304597  43.9655116   3.1532109  70.0880775  44.1915962   2.2240641
  71.0467295  43.7318491   3.3017910  73.5770230  34.4339184  10.0512738
  73.9319618  34.6610657  10.9107204  74.2242362  34.7657560   9.4289994
  67.4710093  31.5415715   6.8359079  68.1109473  31.4004474   6.1382043
  66.6387624  31.2550228   6.4597681  79.3337347  39.6234147   5.7673339
  79.7673854  39.5309436   6.6156393  80.0468928  39.5991647   5.1293355
  68.2470397  40.8418145   2.9494072  69.0410996  40.3468465   2.7476647
  67.5362090  40.3136008   2.5861777  73.0665242  43.2236241   7.3006439
  73.1202264  43.7927177   8.0684155  72.1980023  43.3938126   6.9360477
  64.5553161  34.9861227  -0.9746175  63.6250749  34.9245682  -0.7576213
  64.6510633  34.4637180  -1.7709534  64.4738710  31.5116040   1.6132066
  64.7345527  32.4261373   1.5041227  65.2955882  31.0440482   1.7628679
  65.9463635  32.9253797   8.7830891  66.6186689  32.7171159   8.1343540
  65.1193422  32.7275883   8.3436123  80.1952896  39.6657847   8.3006224
  80.3888787  40.5703658   8.5465499  80.0953515  39.2065266   9.1344809
  71.8489207  29.5515738  10.7996552  71.2017122  30.2505687  10.7061028
  72.6190223  29.9851882  11.1672800  75.2568005  39.8164590  13.8747105
  75.1053512  39.5875142  12.9577189  75.2472685  40.7735191  13.8878450
  72.0253342  37.3896503   8.8593371  72.9545402  37.5407662   8.6862339
  71.6044372  37.4780523   8.0042018  70.8241673  41.4147167   6.6291909
  70.6852759  41.0465951   7.5017847  70.0356270  41.9294807   6.4575867
  72.3746888  40.7928770   4.0180747  72.0396721  40.7529540   4.9138397
  71.8750834  40.1273486   3.5451157  66.3491132  36.1996400   9.5433328
  66.2110930  35.4676639  10.1444867  67.2596056  36.1105300   9.2617516
  68.9773433  35.9116359   9.0317008  69.6873052  35.2709551   8.9903626
  68.9342741  36.1629254   9.9543188  76.9660212  42.8483712  11.9523587
  76.9072758  42.1642933  11.2854170  77.3679730  43.5902702  11.5004213
  67.6902367  32.8981577  10.8512647  67.1539724  32.4472315  11.5034243
  67.1019075  33.0327486  10.1083111  65.9850911  49.6645626   4.7457306
  66.2247509  50.2964150   5.4236324  65.1420107  49.3133666   5.0322665
  76.9677619  40.8123296  10.1837566  76.0804398  40.4749218  10.3063965
  77.5376170  40.0806328  10.4206332  58.6206766  37.1447388   3.5080618
  59.3077806  36.8309118   2.9201633  58.4654895  38.0488753   3.2347869
  63.4241488  32.0337585   7.9365641  63.3399677  31.4263254   7.2016051
  62.6024195  32.5246603   7.9375138  70.4978772  45.4724749   7.1498810
  70.4248944  46.2779720   7.6618114  70.0556166  45.6716715   6.3246831
  72.9577456  45.3711583   9.3056968  73.6705428  46.0059048   9.2332870
  72.4667485  45.4675449   8.4896970  70.1800171  32.6608531   3.0307521
  69.8097958  32.1079572   3.7188427  70.6759263  32.0566665   2.4782521
  68.0089369  43.1206026  10.1262539  68.7098829  43.7542509  10.2791933
  67.5384484  43.4620758   9.3658178  75.8090655  35.6750634   7.9515089
  75.1562106  35.9226541   7.2967542  76.1871035  34.8614772   7.6177567
  71.8578228  36.4170445  14.4381127  71.1818865  36.3164574  15.1083502
  72.6805862  36.2609658  14.9017124  63.6057088  42.6542381   7.0593642
  64.1910524  41.9086069   7.1921546  63.4081926  42.9646338   7.9430306
  66.4595743  45.6893629   2.0756084  65.7906118  46.1739756   1.5920124
  66.3208612  45.9362849   2.9899463  58.1974742  35.2247982   5.7798085
  58.2358842  34.6911572   6.5735203  57.6915035  34.6983187   5.1609062
  70.6001011  47.7237372   8.6738743  71.1519319  47.8868994   9.4387828
  70.9407205  48.3141810   8.0018767  65.5765505  30.0712522   9.2760627
  65.6406831  30.9327353   8.8638025  65.5132625  29.4586524   8.5432986
  65.0517777  32.1435655  12.9233661  65.6789816  31.7612732  13.5371186
  64.1945696  31.9249856  13.2889354  75.4511886  42.5498630  14.5287397
  75.9951790  43.1628588  14.0342352  74.8698731  43.1078208  15.0454410
  61.8283320  33.9512084  -1.1447984  62.1236761  33.0422762  -1.1980930
  60.9271356  33.9299823  -1.4666981  73.7369399  45.6719348   5.6602425
  73.6120538  44.8709088   5.1513370  74.3948490  46.1665541   5.1716395
  65.3577567  32.0268080   4.8379565  64.6364153  32.6404048   4.6987038
  66.1470823  32.5625845   4.7596211  75.8004307  43.4728368   7.2881975
  74.8534643  43.3533719   7.2160301  76.1487080  42.5850866   7.3708236
  68.1603880  29.3622507  11.1120217  68.6838282  29.6084803  11.8746526
  67.9416214  30.1942542  10.6923354  63.5571161  31.6326181  -1.0208659
  63.2283868  30.7523560  -1.2033553  63.9110532  31.5773850  -0.1332269
  72.8050740  43.2681084   3.4886327  72.6575703  42.3397791   3.6693897
  73.6304234  43.2901175   3.0043402  66.6712985  31.9199151  -0.6533181
  67.0109057  32.4485072  -1.3754573  67.1185105  32.2579557   0.1225386
  76.4084862  44.0909643   4.5751200  77.3331410  43.8852504   4.4375651
  76.2400166  43.8426044   5.4840541  69.3656425  30.3036202   8.7969887
  69.0253246  29.5044015   9.1990567  68.6595432  30.6037913   8.2246720
  70.0172897  27.3885514   7.2497210  70.8398967  26.9145992   7.1276101
  70.2610961  28.1675998   7.7495896  67.5411476  34.0804635   5.0589189
  67.3956057  34.3944938   5.9513470  67.0636680  34.6989535   4.5060087
  69.4007859  31.0707183   5.1070078  69.3869428  30.1748276   4.7702376
  70.1180287  31.0777847   5.7408364  71.2533990  31.5044523   7.1523206
  70.9951767  32.4261594   7.1507536  70.7219030  31.1074958   7.8423670
  62.0157138  36.6209979   7.9976850  61.4710606  37.3969787   8.1297124
  62.8936488  36.9680784   7.8395971  62.8023160  35.7479876  10.8907007
  62.0604896  35.8962511  11.4771637  62.4815904  36.0088141  10.0273756
  70.7466823  45.2895854  10.6887397  71.0553949  45.0445001  11.5610096
  71.5442305  45.4942492  10.2006267  63.2479774  43.6345304   2.9217401
  64.0737794  43.3349076   2.5416045  62.8973826  42.8652927   3.3707190
  68.2161307  42.9871773   4.9915075  67.5941316  42.3242478   4.6917303
  68.8866174  43.0132904   4.3088723  61.4488379  41.5531631   3.8806335
  60.6120287  41.1253805   3.6990336  61.4212024  41.7464074   4.8177126
  68.2885834  31.4653561  14.5847581  68.3373990  32.3415683  14.2025351
  68.8308349  30.9230954  14.0119224  78.7740680  42.0094684  13.8648718
  77.9836224  41.9918823  13.3253218  78.5374035  42.5482977  14.6197755
  78.8938555  38.8587150  11.1781447  78.9436560  38.6937158  12.1196970
  78.7852478  37.9914409  10.7879327  76.1842317  34.8418078  12.4940753
  77.0852180  34.7024543  12.2024751  76.2590292  35.0072533  13.4338931
  70.5185123  32.2184933  11.3393940  69.6488432  32.5118499  11.0676528
  70.7544603  32.8025378  12.0601203  80.3956752  41.2784092  11.4223468
  80.1041560  41.6414072  12.2586929  79.7828883  40.5651100  11.2436800
  78.6443940  36.4016706   9.8903526  79.1198062  36.5944353   9.0822378
  77.7209506  36.4575892   9.6446910  65.5327447  37.5640873  -0.5265395
  65.2873489  36.6603203  -0.3285185  65.7023361  37.5658024  -1.4685917
  73.2224157  28.4364550   8.8559360  73.7406100  29.1725577   8.5305849
  72.8679289  28.7428543   9.6906119  64.8023094  33.2969231  -3.0279234
  64.1092339  33.3713586  -3.6839198  64.5574846  32.5329575  -2.5057717
  77.3445609  33.2782466   8.1231832  78.2963032  33.3780564   8.1444056
  77.1749060  32.4860735   8.6329916  75.3659989  30.3638050   8.3091233
  74.7709921  30.6443062   7.6137721  75.0809685  30.8531951   9.0807974
  79.8233687  36.4988586   7.2374131  79.7910007  35.5604587   7.4233815
  80.4334311  36.5772623   6.5039956  71.5455710  39.4202385  14.7401993
  72.4658720  39.5980984  14.9342039  71.5105293  38.4758431  14.5881692
  60.7637875  34.6140979   3.6655267  60.4440660  33.7606287   3.3729641
  60.2171304  34.8289557   4.4213234  64.5417783  37.3303420   7.3824774
  64.7603793  38.2620528   7.4012807  64.9543557  36.9711394   8.1679578
  69.4145648  32.9036626  16.7727523  69.3142375  33.8530983  16.7039614
  69.1967190  32.5754865  15.9003593  60.6326135  38.2343890   5.6348389
  59.9389607  37.8197843   5.1218343  61.3799126  38.2764427   5.0381808
  69.2776918  36.3333764  15.5892584  68.7944000  37.1334125  15.7956473
  69.3637857  36.3441709  14.6360028  62.5462878  38.1662144   3.5114404
  62.5233566  38.2649831   2.5596287  62.8563514  39.0127295   3.8331570
  65.2050256  40.2238299   7.6261018  66.1593509  40.1922241   7.5590950
  65.0062779  39.7628923   8.4411244  65.7949638  38.7939415  10.1931816
  66.6142527  39.2883494  10.2166653  66.0686446  37.8771383  10.1649383
  63.5600485  45.7657919   4.6431216  63.4254952  45.0058320   4.0769214
  63.1432547  46.4898819   4.1760005  66.7169610  46.6627236   4.8549659
  66.6001995  47.6072668   4.7528349  65.8962057  46.3600797   5.2435458
  61.0484552  33.1277549  10.8924013  61.6943416  32.6176503  11.3811238
  60.8401703  33.8646231  11.4667438  73.5737944  40.1958397  16.3916153
  74.4429104  40.3699049  16.0302788  73.0944696  41.0152813  16.2691883
  67.7424125  47.3155498   8.0705587  68.6451371  47.3479108   8.3872082
  67.5161495  46.3855949   8.0851923  69.4977727  46.0686484   4.7315666
  68.5473358  46.0688346   4.6180038  69.8010213  45.3219219   4.2151700
  65.3882043  30.2745166  14.9899027  66.2513505  29.9181971  15.2002352
  64.8147454  29.9359061  15.6774431  82.5239909  53.0109302  11.6909158
  82.5128550  52.6162101  10.8189662  82.6860549  52.2775375  12.2842930
  81.6775065  49.4180015  13.2570471  80.9008399  49.9773936  13.2473335
  82.3165628  49.9036798  13.7785341  79.9321437  52.2265469  12.8188438
  80.6736122  52.7650513  12.5423261  79.2258423  52.8531758  12.9759989
  84.9107292  46.9671584  10.4475330  84.6668224  47.7213645   9.9109605
  85.1867223  47.3456932  11.2822577  78.6682801  49.3805117  13.6203747
  78.0381462  50.0621398  13.8539144  78.5618889  49.2688199  12.6756886
  72.2465477  49.3007403   6.9784662  72.4973515  50.1854413   7.2442238
  72.7825025  49.1212005   6.2059754  77.9463544  43.6825883  15.9828999
  77.5530489  43.1292081  16.6576643  78.7629684  43.9936461  16.3735516
  80.8631505  45.0983762  13.5749255  81.6041218  45.6990915  13.4953718
  81.0949428  44.3561400  13.0167298  76.0072843  50.2840129  11.8527485
  75.8926358  49.3825386  12.1534584  75.1517361  50.5303826  11.5012301
  78.3103848  46.8707632   6.8359079  78.9503227  46.7296391   6.1382043
  77.4781378  46.5842146   6.4597681  76.7857390  48.2545715   8.7830891
  77.4580443  48.0463077   8.1343540  75.9587176  48.0567801   8.3436123
  82.6882962  44.8807655  10.7996552  82.0410877  45.5797605  10.7061028
  83.4583977  45.3143799  11.1672800  77.1884887  51.5288317   9.5433328
  77.0504685  50.7968556  10.1444867  78.0989810  51.4397218   9.2617516
  79.8167188  51.2408277   9.0317008  80.5266806  50.6001469   8.9903626
  79.7736496  51.4921172   9.9543188  78.5296122  48.2273495  10.8512647
  77.9933479  47.7764233  11.5034243  77.9412830  48.3619404  10.1083111
  74.2635243  47.3629502   7.9365641  74.1793431  46.7555172   7.2016051
  73.4417949  47.8538521   7.9375138  82.6971983  51.7462362  14.4381127
  82.0212620  51.6456492  15.1083502  83.5199617  51.5901576  14.9017124
  69.0368497  50.5539899   5.7798085  69.0752596  50.0203490   6.5735203
  68.5308790  50.0275105   5.1609062  76.4159259  45.4004440   9.2760627
  76.4800586  46.2619271   8.8638025  76.3526379  44.7878441   8.5432986
  75.8911532  47.4727572  12.9233661  76.5183570  47.0904650  13.5371186
  75.0339450  47.2541774  13.2889354  78.9997635  44.6914424  11.1120217
  79.5232037  44.9376721  11.8746526  78.7809968  45.5234459  10.6923354
  80.2050180  45.6328120   8.7969887  79.8647000  44.8335933   9.1990567
  79.4989186  45.9329830   8.2246720  80.8566652  42.7177432   7.2497210
  81.6792721  42.2437910   7.1276101  81.1004715  43.4967916   7.7495896
  72.8550893  51.9501897   7.9976850  72.3104361  52.7261705   8.1297124
  73.7330243  52.2972701   7.8395971  73.6416915  51.0771793  10.8907007
  72.8998651  51.2254429  11.4771637  73.3209659  51.3380059  10.0273756
  79.1279589  46.7945478  14.5847581  79.1767744  47.6707601  14.2025351
  79.6702103  46.2522871  14.0119224  87.0236072  50.1709996  12.4940753
  87.9245935  50.0316461  12.2024751  87.0984046  50.3364451  13.4338931
  81.3578877  47.5476851  11.3393940  80.4882187  47.8410417  11.0676528
  81.5938358  48.1317296  12.0601203  84.0617911  43.7656468   8.8559360
  84.5799855  44.5017494   8.5305849  83.7073044  44.0720461   9.6906119
  82.3849465  54.7494303  14.7401993  83.3052474  54.9272902  14.9342039
  82.3499048  53.8050348  14.5881692  80.2539403  48.2328543  16.7727523
  80.1536130  49.1822900  16.7039614  80.0360945  47.9046782  15.9003593
  80.1170673  51.6625682  15.5892584  79.6337754  52.4626042  15.7956473
  80.2031612  51.6733627  14.6360028  76.6343392  54.1231333  10.1931816
  77.4536281  54.6175412  10.2166653  76.9080200  53.2063301  10.1649383
  71.8878307  48.4569467  10.8924013  72.5337170  47.9468421  11.3811238
  71.6795458  49.1938148  11.4667438  84.4131699  55.5250314  16.3916153
  85.2822858  55.6990967  16.0302788  83.9338450  56.3444731  16.2691883
  76.2275798  45.6037084  14.9899027  77.0907259  45.2473889  15.2002352
  75.6541208  45.2650979  15.6774431   3.4730075  64.8965631  56.8766385
   4.2055247  64.3264848  57.1104214   2.7169430  64.5087231  57.3172891
   0.9955495  58.6087205  61.3360994   0.6638820  59.4782616  61.1122209
   0.4001108  58.2923489  62.0155024   2.7545805  61.5298729  60.1932218
   2.1120185  61.8231263  59.5472012   2.2500733  61.4151650  60.9985414
   2.8944783  71.1942159  55.6276022   2.2095821  71.5741060  55.0773055
   2.9788632  71.8037486  56.3607970   1.2641542  71.7174073  60.3993723
   2.0858986  71.3154261  60.1176404   1.2603945  71.6142308  61.3509839
   9.3547535  68.0612822  56.7478694   8.6011244  67.4920220  56.5922699
   9.4895076  68.0275486  57.6949329   3.0323184  69.1997752  51.3957916
   2.2552626  68.8608911  50.9513078   3.7114665  69.2050375  50.7212881
   1.2714491  68.6731733  58.0524524   0.6138165  69.3630994  58.1404652
   2.0754890  69.0628165  58.3958510   3.4311681  68.2141458  53.8580838
   3.2929579  68.4043054  52.9302027   3.0747900  68.9760841  54.3148889
   3.4581060  70.2817985  58.8692109   3.8917567  70.1893275  59.7175163
   4.1712641  70.2575486  58.2312125   4.3196610  70.3241686  61.4024995
   4.5132500  71.2287497  61.6484270   4.2197228  69.8649105  62.2363580
   5.5738673  66.8815353  58.0472898   5.5628549  67.7640068  57.6766831
   4.7056053  66.5286904  57.8527435   2.1911248  65.7763994  54.5143064
   2.6571700  66.6091985  54.4403367   2.6418748  65.3108975  55.2188323
   0.5328576  74.7493482  57.6769970   1.4575123  74.5436343  57.5394421
   0.3643879  74.5009883  58.5859312   6.1763283  68.0315572  54.6522361
   6.6194429  67.2822897  54.2541485   5.2989793  68.0225708  54.2696093
   1.3099064  74.5845914  50.1328960   2.0049969  75.2052606  50.3516274
   1.6522215  73.7341265  50.4081338   3.2090487  72.0345619  51.6616291
   3.7341812  72.3732892  50.9365611   3.1212840  71.0992634  51.4779425
   3.0182269  69.5170989  64.2800217   3.0680274  69.3520997  65.2215740
   2.9096192  68.6498248  63.8898098   4.5200465  71.9367931  64.5242239
   4.2285274  72.2997911  65.3605700   3.9072597  71.2234939  64.3455571
   5.7196148  69.5020810  57.0444809   6.5543039  69.9410614  57.2082369
   5.8555277  69.0259464  56.2253055   2.7687654  67.0600545  62.9922297
   3.2441775  67.2528192  62.1841148   1.8453219  67.1159731  62.7465680
   1.4689323  63.9366305  61.2250602   2.4206746  64.0364403  61.2462826
   1.2992773  63.1444574  61.7348687   1.2499209  74.2910686  47.1316583
   1.1712841  73.9570549  48.0252341   2.0708876  74.7832454  47.1308056
   3.9477400  67.1572425  60.3392902   3.9153721  66.2188426  60.5252586
   4.5578024  67.2356462  59.6058727   4.0971889  63.9483468  60.3851185
   3.5810938  63.1641925  60.1981114   4.9811837  63.6202185  60.5497705
   1.7582616  57.6924484  56.3446998   1.5607437  57.3839572  57.2290330
   2.3682321  58.4186123  56.4744928   9.7653950  68.2188432  59.4798939
  10.4957339  67.9573720  60.0406642   9.1560896  67.4817154  59.5201007
   7.8469247  66.3596294  60.0773390   7.1202411  66.2252259  59.4689881
   7.4316534  66.6673123  60.8830108   3.0274484  61.8680527  56.3732881
   3.8034874  62.3576980  56.6457498   2.3022618  62.2938582  56.8304750
   5.4647042  62.5808147  57.4306821   6.0591533  62.3403883  56.7200130
   5.5373626  61.8615277  58.0580358   3.4605777  63.1478274  53.6978951
   3.2042711  62.7474910  54.5287159   2.8358645  63.8622068  53.5729090
   7.7718115  65.8874347  56.2050243   7.2117673  65.9567537  56.9781805
   7.1661618  65.7115332  55.4849739   0.7289858  72.0461210  48.8025022
   1.5635462  71.6142409  48.6202496   0.5674201  71.8743224  49.7301916
  14.3123829  80.2257548  56.8766385  15.0449001  79.6556765  57.1104214
  13.5563185  79.8379149  57.3172891  11.8349250  73.9379123  61.3360994
  11.5032574  74.8074534  61.1122209  11.2394863  73.6215407  62.0155024
  11.7277913  78.6574209  58.4154344  10.8194790  78.5889617  58.1213105
  11.6765509  79.1346154  59.2436169  13.5939559  76.8590647  60.1932218
  12.9513939  77.1523180  59.5472012  13.0894488  76.7443567  60.9985414
   9.0351006  77.6255423  63.5494100   8.7911938  78.3797484  63.0128376
   9.3110936  78.0040771  64.3841347   8.5915698  76.7811856  59.1307938
   7.7300177  77.0793110  59.4224675   8.6178132  76.9982255  58.1988970
   8.9332381  71.7848704  60.9532307   8.5896651  72.6750345  60.8771418
   9.3011344  71.5950361  60.0901892   6.4829775  76.6207016  54.5189981
   5.6271371  76.2313866  54.3395619   6.8956727  76.6998976  53.6589766
   8.0128922  74.1553359  58.9181540   7.5093717  74.1183494  58.1049346
   8.3059529  75.0646102  58.9778197   4.2571808  74.2392089  57.9247722
   5.1224804  74.0434897  57.5653612   4.3249317  74.0102440  58.8517079
   4.1656794  73.3435545  54.0239158   3.5121207  73.0284563  53.3995773
   4.1237269  72.7211286  54.7498981  10.6308420  78.2666011  55.4608276
   9.8931176  77.7543397  55.7918518  10.8835193  77.8266393  54.6491552
  10.7320047  71.0442263  56.0550045  11.0378924  70.1839626  55.7675960
  11.4572652  71.6359883  55.8549039   6.8126675  75.5391494  63.9015322
   6.1654590  76.2381444  63.8079798   7.5827691  75.9727638  64.2691570
   8.5602670  76.5066905  56.4054607   9.0571370  75.7536867  56.0855677
   7.7889652  76.5431221  55.8397816  11.0021665  73.4736498  58.5533966
  10.0884745  73.7040725  58.7216173  11.4314766  73.5574942  59.4047998
   4.3293893  76.2911958  61.8988658   3.9890714  75.4919771  62.3009337
   3.6232900  76.5913669  61.3265491   4.9810365  73.3761271  60.3515981
   5.8036435  72.9021749  60.2294871   5.2248429  74.1551755  60.8514667
   7.7649723  77.1094678  51.5837215   7.9813337  77.9919316  51.2826043
   7.2843790  76.7180892  50.8542857   3.7682223  75.9397320  53.4776419
   3.8898134  75.0113966  53.6767306   3.4784265  75.9536006  52.5654734
   6.6373413  73.6252230  56.6143139   6.6595110  73.6891563  55.6595118
   7.0541472  72.7856739  56.8083645   8.1861625  74.4240306  61.9578131
   8.7043569  75.1601333  61.6324619   7.8316757  74.7304300  62.7924890
   8.4374219  70.8440589  57.4779027   8.7175973  70.1763778  58.1039454
   9.2224826  71.0369685  56.9653691  12.3083077  79.2658223  61.2250602
  13.2600500  79.3656321  61.2462826  12.1386528  78.4736492  61.7348687
  10.3297457  76.3513806  61.4110003   9.7347389  76.6318819  60.7156492
  10.0447153  76.8407707  62.1826744  14.9365643  79.2775386  60.3851185
  14.4204692  78.4933843  60.1981114  15.8205592  78.9494103  60.5497705
  12.5976370  73.0216402  56.3446998  12.4001191  72.7131490  57.2290330
  13.2076076  73.7478041  56.4744928   6.4259469  73.8247262  52.4719232
   5.6160197  73.4794347  52.8474479   7.1143886  73.5154805  53.0606844
   8.3550017  72.9025309  54.0943529   8.9081056  73.3220762  54.7533552
   8.5920103  71.9761057  54.1366485   3.5796188  76.1397307  46.4586970
   4.4415352  76.4652206  46.7182788   3.7646532  75.3528803  45.9460036
  11.7328824  75.0125834  53.6022193  11.1527493  75.6710638  53.2200246
  11.4664757  74.1903178  53.1909611  10.1832390  74.4130891  55.8043514
  10.6832169  74.5247426  54.9957833  10.8267998  74.1091944  56.4444322
  10.5153702  77.1725924  52.6578542   9.6279557  77.4575575  52.4398736
  10.9307691  77.0119687  51.8105818  13.8668238  77.1972445  56.3732881
  14.6428628  77.6868898  56.6457498  13.1416372  77.6230499  56.8304750
  16.3040797  77.9100064  57.4306821  16.8985288  77.6695800  56.7200130
  16.3767381  77.1907195  58.0580358  14.2999532  78.4770192  53.6978951
  14.0436466  78.0766828  54.5287159  13.6752400  79.1913986  53.5729090
  18.6111870  81.2166265  56.2050243  18.0511428  81.2859454  56.9781805
  18.0055373  81.0407250  55.4849739   4.5325631  73.3793350  49.7466679
   4.5204300  74.3235190  49.9034950   5.4249052  73.1963496  49.4526141
   8.3477750  69.9736127  54.0012616   7.5810146  69.4194614  54.1469298
   8.7588455  70.0457996  54.8626768   3.4730076  41.9027753  43.6011692
   4.2055248  41.3326970  43.8349521   2.7169432  41.5149354  44.0418197
   0.9955496  35.6149327  48.0606300   0.6638821  36.4844738  47.8367515
   0.4001110  35.2985611  48.7400331   2.7545806  38.5360852  46.9177524
   2.1120186  38.8293385  46.2717319   2.2500735  38.4213772  47.7230721
   2.8944784  48.2004282  42.3521329   2.2095822  48.5803183  41.8018362
   2.9788633  48.8099608  43.0853276   1.2641543  48.7236196  47.1239030
   2.0858987  48.3216383  46.8421711   1.2603946  48.6204430  48.0755145
   9.3547536  45.0674944  43.4724001   8.6011245  44.4982343  43.3168005
   9.4895078  45.0337609  44.4194636   3.0323185  46.2059874  38.1203222
   2.2552628  45.8671034  37.6758384   3.7114666  46.2112498  37.4458187
   1.2714492  45.6793856  44.7769830   0.6138166  46.3693117  44.8649959
   2.0754891  46.0690288  45.1203817   3.4311682  45.2203581  40.5826144
   3.2929581  45.4105177  39.6547334   3.0747901  45.9822964  41.0394195
   3.4581062  47.2880108  45.5937416   3.8917568  47.1955397  46.4420470
   4.1712642  47.2637608  44.9557432   4.3196611  47.3303809  48.1270301
   4.5132501  48.2349619  48.3729576   4.2197229  46.8711228  48.9608886
   1.0903927  50.5129674  51.7787664   1.0316473  49.8288894  51.1118247
   1.4923445  51.2548664  51.3268290   5.5738674  43.8877475  44.7718205
   5.5628551  44.7702191  44.4012138   4.7056054  43.5349026  44.5772742
   2.1911249  42.7826116  41.2388371   2.6571701  43.6154108  41.1648674
   2.6418749  42.3171098  41.9433630   0.5328577  51.7555604  44.4015277
   1.4575124  51.5498466  44.2639728   0.3643880  51.5072005  45.3104618
   6.1763284  45.0377695  41.3767668   6.6194430  44.2885020  40.9786791
   5.2989795  45.0287831  40.9941400   1.3099066  51.5908036  36.8574266
   2.0049970  52.2114729  37.0761581   1.6522216  50.7403387  37.1326644
   3.2090489  49.0407742  38.3861597   3.7341813  49.3795014  37.6610917
   3.1212841  48.1054757  38.2024732   2.8984395  49.6740645  53.6912795
   2.1079939  49.6564784  53.1517295   2.6617749  50.2128939  54.4461832
   3.0182270  46.5233112  51.0045524   3.0680275  46.3583119  51.9461047
   2.9096193  45.6560371  50.6143405   4.5200467  48.9430053  51.2487545
   4.2285275  49.3060034  52.0851006   3.9072598  48.2297061  51.0700877
   5.7196149  46.5082933  43.7690115   6.5543040  46.9472737  43.9327676
   5.8555278  46.0321586  42.9498361   2.7687655  44.0662668  49.7167603
   3.2441777  44.2590314  48.9086455   1.8453220  44.1221854  49.4710987
   1.4689324  40.9428428  47.9495909   2.4206747  41.0426526  47.9708133
   1.2992774  40.1506696  48.4593993   1.2499211  51.2972808  33.8561890
   1.1712842  50.9632672  34.7497648   2.0708877  51.7894576  33.8553362
   3.9477402  44.1634548  47.0638209   3.9153722  43.2250548  47.2497892
   4.5578025  44.2418584  46.3304033   4.0971890  40.9545591  47.1096492
   3.5810939  40.1704048  46.9226421   4.9811839  40.6264308  47.2743011
   1.7582617  34.6986607  43.0692304   1.5607438  34.3901695  43.9535636
   2.3682323  35.4248246  43.1990234   9.7653952  45.2250554  46.2044245
  10.4957340  44.9635843  46.7651949   9.1560897  44.4879276  46.2446313
   7.8469249  43.3658417  46.8018697   7.1202412  43.2314382  46.1935188
   7.4316536  43.6735246  47.6075415   3.0274485  38.8742650  43.0978187
   3.8034875  39.3639102  43.3702804   2.3022619  39.3000704  43.5550057
   5.4647044  39.5870269  44.1552128   6.0591534  39.3466005  43.4445436
   5.5373627  38.8677400  44.7825664   3.4605779  40.1540397  40.4224258
   3.2042713  39.7537032  41.2532466   2.8358647  40.8684191  40.2974397
   7.7718116  42.8936470  42.9295549   7.2117674  42.9629659  43.7027111
   7.1661620  42.7177455  42.2095046   0.7289860  49.0523333  35.5270328
   1.5635464  48.6204531  35.3447803   0.5674203  48.8805347  36.4547223
   9.3574135  59.5692984  45.6225505   9.9952545  59.4499731  44.9188845
   9.2394978  60.5173828  45.6813457   6.1663841  59.5220412  45.5587030
   5.8282353  59.4061477  44.6707565   7.0353609  59.1211577  45.5388036
   2.0250657  61.3755889  41.5483921   1.4615522  61.2845825  40.7800208
   1.9103052  60.5555793  42.0286413   6.6483624  60.6755264  51.5173235
   6.6372265  60.2808062  50.6453739   6.8104264  59.9421336  52.1107007
   7.6050216  65.0426856  36.8598386   6.9538195  65.6280937  36.4732399
   8.3994578  65.5733051  36.9193423   1.5305843  62.1315993  37.2585520
   2.3036719  61.5844980  37.1198396   1.8831242  62.9960243  37.4699981
   3.3690885  63.4592376  50.4652419   3.0780751  64.3638006  50.3499086
   4.0047870  63.5008903  51.1796489   4.2947092  60.8369224  47.0553779
   4.8910664  60.6125247  46.3410742   4.3522064  60.0953970  47.6579227
   3.8672120  58.2908659  34.8903970   4.1197641  57.7690181  34.1287433
   2.9296680  58.1274805  34.9930653   8.9115403  57.2944438  42.6978713
   9.6978493  56.8763861  42.3469130   9.1754108  58.1990530  42.8660361
   9.0825481  62.7317288  37.3967370   8.4471314  62.8051915  38.1088275
   8.7522887  63.3210887  36.7186449  14.3123830  57.2319671  43.6011692
  15.0449002  56.6618888  43.8349521  13.5563186  56.8441271  44.0418197
   3.5868409  60.1936765  37.0928345   3.4704667  59.5181669  37.7609429
   3.6970669  59.7069139  36.2760498   5.9299950  59.6546913  40.7975034
   5.5658157  59.1277534  41.5087955   6.7867066  59.2645382  40.6241519
  11.8349251  50.9441245  48.0606300  11.5032576  51.8136656  47.8367515
  11.2394864  50.6277529  48.7400331   5.5705437  54.6836812  35.7936383
   5.7379839  55.5517049  36.1606854   5.3802606  54.8464094  34.8697672
   8.3280770  63.1453791  47.4602213   8.0281493  64.0478830  47.3518020
   7.9831830  62.8785974  48.3123366   1.7793252  59.5967588  43.4938917
   0.8543748  59.4643802  43.7016609   2.0277665  60.3761807  43.9908860
  11.7277914  55.6636331  45.1399650  10.8194791  55.5951740  44.8458411
  11.6765510  56.1408276  45.9681476   5.5494658  57.1394470  36.7783049
   5.4294283  57.5851521  37.6168530   4.8547246  57.4879787  36.2196588
   3.3101550  69.9098111  40.4273181   3.2325580  70.8605937  40.5061661
   2.7063194  69.5643984  41.0848107   5.8018780  57.0825977  53.0834548
   5.0252114  57.6419897  53.0737412   6.4409343  57.5682760  53.6049418
  13.5939561  53.8652770  46.9177524  12.9513941  54.1585303  46.2717319
  13.0894489  53.7505690  47.7230721  11.2479724  57.6115943  37.6063383
  12.1597580  57.8443330  37.4311081  10.7389371  58.1952987  37.0438462
   4.0565152  59.8911430  52.6452515   4.7979837  60.4296474  52.3687338
   3.3502138  60.5177719  52.8024066   9.5320492  62.0340571  51.2424676
   9.9403848  61.5922981  50.4979308   8.8097753  61.4593198  51.4958869
   5.8851562  56.9713178  48.6158233   6.7312757  57.3952591  48.7592882
   5.8250200  56.3146802  49.3096796   9.8549306  62.5941761  44.9976965
   9.2258169  62.7587476  44.2953033   9.4674969  63.0083371  45.7687929
  13.7338538  63.5296199  42.3521329  13.0489577  63.9095101  41.8018362
  13.8182388  64.1391526  43.0853276   9.0351007  54.6317546  50.2739407
   8.7911939  55.3859606  49.7373682   9.3110938  55.0102893  51.1086654
  10.9889470  61.1756158  48.9516672  11.2006365  61.8187918  48.2751053
  10.9419218  60.3418475  48.4838602   8.5915699  53.7873979  45.8553244
   7.7300178  54.0855232  46.1469982   8.6178134  54.0044378  44.9234277
   5.4077268  62.3316169  42.2627050   5.8715614  62.6103872  41.4731672
   5.1434066  61.4299614  42.0800141   2.3001349  61.8787651  45.2006813
   2.8702706  62.3074919  44.5624298   2.8909461  61.5970236  45.8990999
   4.3446154  58.4539322  39.0716615   5.0470198  58.9060365  39.5390541
   4.0126783  57.8123141  39.6996508   2.7926516  57.0451078  53.4467825
   2.1625177  57.7267359  53.6803221   2.6862604  56.9334160  52.5020963
  12.1035298  64.0528114  47.1239030  12.9252742  63.6508301  46.8421711
  12.0997701  63.9496348  48.0755145   5.8691901  63.6012157  49.2799740
   5.9336334  64.0632564  50.1157912   5.1602825  62.9709522  49.4082050
  20.1941291  60.3966862  43.4724001  19.4404999  59.8274260  43.3168005
  20.3288832  60.3629527  44.4194636   5.5839919  65.2680264  39.1478720
   5.4485594  66.1131800  39.5763568   6.1249732  65.4699542  38.3844654
   2.0707259  51.3471844  55.8093076   1.6774204  50.7938043  56.4840720
   2.8873399  51.6582423  56.1999593   0.8464201  65.9021459  41.8029399
   1.0230829  66.8239423  41.6150382   1.6421035  65.5879878  42.2323778
   4.9875220  52.7629723  53.4013332   5.7284933  53.3636877  53.3217795
   5.2193142  52.0207361  52.8431375   7.2108395  65.8903831  53.2779062
   6.7672250  65.1040210  52.9599967   7.8725609  66.0782981  52.6122953
   1.9695517  67.4199633  47.8039741   2.5202942  67.2916696  47.0316735
   1.1306992  67.7194522  47.4534634   9.3089633  66.1706631  51.3060464
   9.2908109  66.9915512  50.8140733  10.2309554  66.0460706  51.5310605
   5.7662688  63.6850760  52.1483972   6.2991024  62.9239049  51.9183280
   5.2376769  63.3924412  52.8908127   8.9332383  48.7910826  47.6777614
   8.5896652  49.6812468  47.6016724   9.3011345  48.6012484  46.8147199
   8.8982665  58.7819437  36.1850049   8.3829289  59.5524042  36.4238436
   8.6259974  58.1084574  36.8083110   6.4829776  53.6269138  41.2435287
   5.6271373  53.2375989  41.0640926   6.8956728  53.7061099  40.3835073
   8.0128923  51.1615481  45.6426847   7.5093719  51.1245617  44.8294652
   8.3059530  52.0708224  45.7023504   4.2571809  51.2454211  44.6493029
   5.1224806  51.0497020  44.2898918   4.3249318  51.0164563  45.5762386
  13.8716939  61.5351792  38.1203222  13.0946382  61.1962952  37.6758384
  14.5508420  61.5404415  37.4458187   8.6868968  56.6546530  38.0109830
   8.3819104  56.9692679  38.8619973   9.6399411  56.7327949  38.0537163
   7.1315400  62.8136753  39.6602784   6.6036762  62.0789512  39.3476022
   6.6302903  63.5911429  39.4142752  12.1108246  61.0085773  44.7769830
  11.4531921  61.6985035  44.8649959  12.9148646  61.3982205  45.1203817
   1.8634128  53.4756419  42.0209396   2.4377880  53.2531601  41.2882589
   2.4505110  53.5445114  42.7737997  10.9213705  59.3630146  42.8273772
  11.4345587  59.9960138  43.3295482  11.5714929  58.7631342  42.4617132
   2.1903715  55.5060880  36.0405281   1.3541027  55.8435567  36.3614556
   2.0508485  55.3709860  35.1032418   4.1656796  50.3497668  40.7484465
   3.5121208  50.0346685  40.1241080   4.1237270  49.7273409  41.4744288
   5.2768001  60.6316963  32.6637757   4.3695062  60.4006217  32.8628906
   5.7739033  59.8354582  32.8511739   8.1836079  69.3414470  35.5834443
   7.5097778  69.6446167  36.1919401   8.5701901  70.1443551  35.2339900
   7.3994536  56.8379602  45.0732113   6.4817097  57.0594549  44.9153801
   7.8154680  56.9125912  44.2143820   8.1829584  58.2371017  40.2034793
   8.9301403  58.7492414  39.8941915   8.4521173  57.9155070  41.0639186
   6.4556234  60.7329558  37.1861747   5.5467453  60.4488591  37.2834217
   6.4851318  61.1528637  36.3265054  11.6875501  64.3436147  40.9552915
  11.2337828  63.5027057  41.0118105  11.0569468  64.9797546  41.2927695
  10.6308421  55.2728134  42.1853582   9.8931178  54.7605520  42.5163825
  10.8835194  54.8328515  41.3736859  10.1308441  66.1812644  41.8902733
  10.4231415  66.7417701  41.1715099  10.6407061  66.4741205  42.6455892
  10.7320048  48.0504386  42.7795351  11.0378925  47.1901749  42.4921267
  11.4572653  48.6422006  42.5794345   5.0041128  58.3458179  43.2871543
   5.0589738  57.3932015  43.2114019   4.1932330  58.5017618  43.7712841
   6.1532322  62.2738302  34.5249826   5.7151752  61.5574161  34.0655463
   6.8942763  62.5014416  33.9634917   2.9433488  56.9635238  41.0461921
   2.1301353  57.2629409  41.4527114   3.4392482  56.5690927  41.7636404
   5.0942066  66.9592995  42.9796186   5.0518245  67.1853842  42.0504718
   6.0104765  66.7256370  43.1281987   8.5407700  57.4277063  49.8776815
   8.8957087  57.6548536  50.7371281   9.1879831  57.7595440  49.2554071
  14.2705437  60.5495499  40.5826144  14.1323335  60.7397095  39.6547334
  13.9141655  61.3114882  41.0394195   2.4347563  54.5353594  46.6623156
   3.0746942  54.3942353  45.9646120   1.6025093  54.2488107  46.2861758
  14.2974816  62.6172026  45.5937416  14.7311323  62.5247315  46.4420470
  15.0106397  62.5929526  44.9557432   3.2107867  63.8356024  42.7758149
   4.0048465  63.3406344  42.5740724   2.4999559  63.3073887  42.4125854
   8.0302711  66.2174120  47.1270516   8.0839733  66.7865056  47.8948232
   7.1617492  66.3876005  46.7624554  15.1590366  62.6595726  48.1270301
  15.3526256  63.5641537  48.3729576  15.0590984  62.2003145  48.9608886
   6.8126676  52.5453617  50.6260629   6.1654591  53.2443567  50.5325105
   7.5827692  52.9789761  50.9936877  10.2205474  62.8102469  53.7011182
  10.0690981  62.5813021  52.7841266  10.2110154  63.7673071  53.7142527
   6.9890811  60.3834382  48.6857448   7.9182871  60.5345541  48.5126416
   6.5681841  60.4718403  47.8306095   5.7879143  64.4085046  46.4555986
   5.6490228  64.0403831  47.3281924   4.9993739  64.9232686  46.2839944
   6.3827295  69.5094143  37.7981522   6.5579050  69.0382186  38.6127145
   5.6960083  70.1359909  38.0262783   7.3384358  63.7866649  43.8444824
   7.0034190  63.7467419  44.7402474   6.8388303  63.1211365  43.3715234
   1.3128602  59.1934279  49.3697405   1.1748400  58.4614518  49.9708944
   2.2233525  59.1043179  49.0881593  10.2743549  61.1322683  34.1181883
   9.6572720  60.4069511  34.0214936   9.8060038  61.8932044  33.7748958
   3.9410902  58.9054238  48.8581085   4.6510521  58.2647431  48.8167703
   3.8980211  59.1567133  49.7807265  11.9297681  65.8421592  51.7787664
  11.8710227  65.1580812  51.1118247  12.3317199  66.5840582  51.3268290
   2.6539836  55.8919456  50.6776724   2.1177193  55.4410195  51.3298320
   2.0656545  56.0265365  49.9347188   2.0642095  55.3508108  33.2403188
   1.1871562  55.2296908  32.8765434   2.5399848  54.5594186  32.9882076
  11.9315088  63.8061176  50.0101643  11.0441867  63.4687097  50.1328042
  12.5013639  63.0744207  50.2470409   5.4616242  68.4662628  46.9762887
   5.3886413  69.2717599  47.4882191   5.0193635  68.6654594  46.1510908
   5.2506021  67.7034398  40.4865708   4.4673543  68.2456078  40.5803933
   5.9498766  68.2208378  40.8859949   8.5602671  53.5129027  43.1299914
   9.0571371  52.7598990  42.8100984   7.7889653  53.5493344  42.5643123
  16.4132429  59.2169393  44.7718205  16.4022305  60.0994108  44.4012138
  15.5449808  58.8640944  44.5772742   7.9214925  68.3649462  49.1321045
   8.6342897  68.9996927  49.0596947   7.4304954  68.4613328  48.3161047
   9.6432452  62.2700715  40.7038337   8.7088731  62.3902177  40.5343041
   9.8209121  61.3673181  40.4398347   5.1437640  55.6546410  42.8571598
   4.7735428  55.1017451  43.5452504   5.6396733  55.0504544  42.3046598
  13.0305003  58.1118034  41.2388371  13.4965456  58.9446026  41.1648674
  13.4812504  57.6463015  41.9433630   2.9726839  66.1143905  49.9526616
   3.6736298  66.7480388  50.1056010   2.5021954  66.4558637  49.1922255
  11.0981235  64.4561855  38.2374523  11.3741078  64.3418450  39.1468397
  10.2285733  64.0579340  38.1986696  11.0021666  50.4798621  45.2779272
  10.0884746  50.7102848  45.4461479  11.4314768  50.5637065  46.1293305
  10.7728125  58.6688513  47.7779166  10.1199575  58.9164420  47.1231619
  11.1508505  57.8552651  47.4441644   7.7335299  68.7048206  41.8807337
   7.9157693  67.8869862  42.3435089   8.5568285  68.9215898  41.4432227
   8.0677464  67.6316391  39.1422385   8.5965231  67.1208846  38.5292547
   8.3305684  67.3158921  40.0067918   6.8215698  59.4108324  54.2645204
   6.1456335  59.3102453  54.9347579   7.6443332  59.2547538  54.7281201
   1.4233212  68.6831508  41.9020161   0.7543587  69.1677636  41.4184201
   1.2846082  68.9300728  42.8163540   5.5638481  70.7175251  48.5002820
   6.1156789  70.8806873  49.2651905   5.9044674  71.3079689  47.8282844
   0.5402974  53.0650401  49.1024704   0.6044300  53.9265232  48.6902102
   0.4770094  52.4524403  48.3697063  10.4149355  65.5436509  54.3551474
  10.9589259  66.1566467  53.8606429   9.8336200  66.1016087  54.8718487
   8.7006868  68.6657227  45.4866502   8.5758007  67.8646967  44.9777447
   9.3585959  69.1603420  44.9980472  10.7641776  66.4666247  47.1146052
   9.8172112  66.3471598  47.0424378  11.1124549  65.5788745  47.1972313
   3.1241350  52.3560386  50.9384294   3.6475751  52.6022682  51.7010603
   2.9053683  53.1880421  50.5187431   7.7688210  66.2618963  43.3150404
   7.6213172  65.3335671  43.4957974   8.5941703  66.2839054  42.8307479
   1.6350454  54.9137030  39.1730896   1.9746526  55.4422952  38.4509504
   2.0822574  55.2517436  39.9489463  11.3722331  67.0847522  44.4015277
  12.2968879  66.8790383  44.2639728  11.2037635  66.8363923  45.3104618
   4.3293895  53.2974081  48.6233964   3.9890715  52.4981894  49.0254644
   3.6232901  53.5975792  48.0510797   4.9810367  50.3823393  47.0761287
   5.8036436  49.9083872  46.9540178   5.2248430  51.1613877  47.5759973
   3.6218601  53.4111652  37.3724189   4.3426964  53.7892905  36.8687906
   2.9983905  54.1300529  37.4759167   7.7649724  54.1156801  38.3082521
   7.9813338  54.9981439  38.0071349   7.2843791  53.7243014  37.5788163
   2.5048945  57.0742514  44.8853266   2.3593526  57.3882817  45.7777547
   2.0274149  57.6927414  44.3324164   4.3645328  54.0645062  44.9334155
   4.3506897  53.1686155  44.5966453   5.0817756  54.0715726  45.5672441
   6.2171459  54.4982402  46.9787283   5.9589237  55.4199473  46.9771613
   5.6856499  54.1012837  47.6687747  11.1617648  67.6033189  39.7577368
  11.3354525  67.0379612  39.0051221  11.6546539  68.4034084  39.5756858
   3.7682224  52.9459442  40.2021726   3.8898135  52.0176089  40.4012613
   3.4784266  52.9598128  39.2900041   6.6373414  50.6314353  43.3388445
   6.6595111  50.6953686  42.3840425   7.0541473  49.7918861  43.5328952
  17.0157039  60.3669612  41.3767668  17.4588185  59.6176938  40.9786791
  16.1383549  60.3579749  40.9941400  12.1492820  66.9199954  36.8574266
  12.8443725  67.5406646  37.0761581  12.4915970  66.0695305  37.1326644
  14.0484243  64.3699659  38.3861597  14.5735567  64.7086932  37.6610917
  13.9606596  63.4346675  38.2024732   5.7104292  68.2833733  50.5151474
   6.0191418  68.0382880  51.3874173   6.5079774  68.4880371  50.0270344
   5.7324904  70.4371643  42.7456850   5.2929894  69.9448021  43.4389707
   6.4833021  69.8944610  42.5048926   3.1798776  65.9809652  44.8179152
   2.5578785  65.3180357  44.5181380   3.8503643  66.0070784  44.1352800
   3.2523304  54.4591440  54.4111658   3.3011459  55.3353563  54.0289428
   3.7945818  53.9168833  53.8383301  13.7378149  65.0032563  53.6912795
  12.9473693  64.9856702  53.1517295  13.5011504  65.5420857  54.4461832
  13.8576024  61.8525029  51.0045524  13.9074029  61.6875037  51.9461047
  13.7489948  60.9852288  50.6143405   2.7412283  64.5313575  38.2937613
   2.8900403  65.2149039  37.6404285   3.5478727  64.5118665  38.8087068
  11.1479787  57.8355957  52.3204830  12.0489650  57.6962422  52.0288828
  11.2227761  58.0010412  53.2603008   5.4822592  55.2122812  51.1658017
   4.6125901  55.5056378  50.8940605   5.7182072  55.7963257  51.8865280
  15.3594221  64.2721971  51.2487545  15.0679029  64.6351951  52.0851006
  14.7466352  63.5588979  51.0700877  16.5589903  61.8374851  43.7690115
  17.3936795  62.2764655  43.9327676  16.6949032  61.3613504  42.9498361
  13.6081409  59.3954585  49.7167603  14.0835531  59.5882232  48.9086455
  12.6846975  59.4513771  49.4710987   8.1861626  51.4302429  48.6823437
   8.7043570  52.1663456  48.3569926   7.8316759  51.7366422  49.5170196
   8.4374220  47.8502712  44.2024334   8.7175974  47.1825901  44.8284760
   9.2224827  48.0431807  43.6898998   6.2407689  67.0261705  35.7649360
   5.6681656  67.6451893  35.3119832   6.8140482  67.5761067  36.2989282
  12.3083078  56.2720346  47.9495909  13.2600501  56.3718443  47.9708133
  12.1386529  55.4798614  48.4593993  10.3297458  53.3575929  48.1355310
   9.7347390  53.6380942  47.4401798  10.0447155  53.8469830  48.9072051
   9.4604948  67.3098856  36.8957942  10.3935622  67.2444417  37.0990818
   9.3728161  68.1455122  36.4372475  12.0892965  66.6264726  33.8561890
  12.0106597  66.2924590  34.7497648  12.9102632  67.1186494  33.8553362
  14.7871156  59.4926465  47.0638209  14.7547476  58.5542466  47.2497892
  15.3971780  59.5710502  46.3304033   6.6254487  58.3622518  33.1065413
   7.5713592  58.2328726  33.1753831   6.2468732  57.6237180  33.5834841
  14.9365645  56.2837509  47.1096492  14.4204693  55.4995965  46.9226421
  15.8205593  55.9556225  47.2743011  12.5976372  50.0278524  43.0692304
  12.4001193  49.7193612  43.9535636  13.2076077  50.7540163  43.1990234
  20.6047706  60.5542472  46.2044245  21.3351095  60.2927760  46.7651949
  19.9954652  59.8171194  46.2446313  18.6863003  58.6950335  46.8018697
  17.9596167  58.5606300  46.1935188  18.2710290  59.0027163  47.6075415
   6.5093180  62.4140264  54.5666070   7.4296189  62.5918863  54.7606116
   6.4742763  61.4696310  54.4145769   4.8097404  56.2872495  33.0420298
   3.9028860  55.9905607  33.1183011   5.0873385  55.9902313  32.1754584
   6.4259470  50.8309384  39.1964539   5.6160198  50.4856469  39.5719785
   7.1143887  50.5216928  39.7852151   8.3550018  49.9087431  40.8188836
   8.9081057  50.3282885  41.4778859   8.5920105  48.9823179  40.8611792
   4.3783117  55.8974505  56.5991600   4.2779844  56.8468862  56.5303691
   4.1604660  55.5692744  55.7267670   3.5796189  53.1459430  33.1832277
   4.4415353  53.4714328  33.4428094   3.7646533  52.3590926  32.6705343
  11.7328825  52.0187956  40.3267500  11.1527494  52.6772760  39.9445552
  11.4664758  51.1965301  39.9154917  10.1832392  51.4193014  42.5288820
  10.6832170  51.5309549  41.7203139  10.8268000  51.1154067  43.1689629
   4.2414388  59.3271644  55.4156661   3.7581469  60.1272004  55.6220550
   4.3275327  59.3379589  54.4624105   0.7587107  61.7877294  50.0195893
   1.5779996  62.2821373  50.0430730   1.0323915  60.8709263  49.9913460
  10.5153703  54.1788047  39.3823848   9.6279558  54.4637697  39.1644043
  10.9307692  54.0181810  38.5351125  13.8668239  54.2034568  43.0978187
  14.6428630  54.6931020  43.3702804  13.1416374  54.6292622  43.5550057
  16.3040798  54.9162187  44.1552128  16.8985289  54.6757923  43.4445436
  16.3767382  54.1969317  44.7825664   9.6596917  63.9432721  33.4771868
  10.3632767  64.1482724  34.0929524   8.9359566  64.5109483  33.7420952
  10.4894727  59.6942583  39.5974138  10.4329928  60.1511134  38.7581771
  11.0423070  58.9333267  39.4196981  14.2999533  55.4832314  40.4224258
  14.0436467  55.0828950  41.2532466  13.6752401  56.1976108  40.2974397
  18.6111871  58.2228388  42.9295549  18.0511429  58.2921577  43.7027111
  18.0055374  58.0469372  42.2095046   1.6807080  69.6565115  44.6813736
   1.5639464  70.6010547  44.5792426   0.8599526  69.3538676  45.0699535
  11.5683614  64.3815251  35.5270328  12.4029218  63.9496449  35.3447803
  11.4067957  64.2097264  36.4547223  11.2229506  60.8847364  36.8926668
  11.1678310  60.7191635  35.9515112  10.5975562  61.5923397  37.0488857
   8.5375414  63.1896276  56.2180230   9.4066573  63.3636928  55.8566865
   8.0582165  64.0090693  56.0955960   4.5325632  50.3855473  36.4711986
   4.5204302  51.3297313  36.6280257   5.4249054  50.2025618  36.1771447
   2.7061594  70.3093377  47.8969664   3.6088841  70.3416987  48.2136159
   2.4798964  69.3793828  47.9116000   4.4615196  69.0624363  44.5579743
   3.5110827  69.0626225  44.4444115   4.7647682  68.3157098  44.0415777
   8.3477751  46.9798250  40.7257923   7.5810147  46.4256736  40.8714605
   8.7588456  47.0520118  41.5872074  20.1967889  74.8984902  45.6225505
  20.8346299  74.7791649  44.9188845  20.0788732  75.8465746  45.6813457
  17.0057596  74.8512330  45.5587030  16.6676107  74.7353394  44.6707565
  17.8747364  74.4503495  45.5388036  12.8644411  76.7047806  41.5483921
  12.3009276  76.6137743  40.7800208  12.7496806  75.8847711  42.0286413
  17.4877379  76.0047182  51.5173235  17.4766019  75.6099980  50.6453739
  17.6498018  75.2713254  52.1107007  10.4108843  78.1998998  44.3868141
  11.2030135  77.8589822  43.9714440  10.6505493  78.3093973  45.3070294
  18.4443970  80.3718774  36.8598386  17.7931950  80.9572854  36.4732399
  19.2388333  80.9024969  36.9193423  12.3699597  77.4607911  37.2585520
  13.1430473  76.9136898  37.1198396  12.7224996  78.3252160  37.4699981
  14.2084640  78.7884293  50.4652419  13.9174506  79.6929924  50.3499086
  14.8441624  78.8300821  51.1796489  15.1340847  76.1661142  47.0553779
  15.7304419  75.9417164  46.3410742  15.1915818  75.4245887  47.6579227
  14.7065875  73.6200577  34.8903970  14.9591396  73.0982098  34.1287433
  13.7690434  73.4566723  34.9930653  19.7509158  72.6236356  42.6978713
  20.5372247  72.2055779  42.3469130  20.0147862  73.5282448  42.8660361
  19.9219235  78.0609206  37.3967370  19.2865068  78.1343832  38.1088275
  19.5916642  78.6502805  36.7186449  25.1517585  72.5611589  43.6011692
  25.8842757  71.9910806  43.8349521  24.3956941  72.1733189  44.0418197
  14.4262164  75.5228683  37.0928345  14.3098422  74.8473586  37.7609429
  14.5364424  75.0361057  36.2760498  16.7693705  74.9838830  40.7975034
  16.4051912  74.4569451  41.5087955  17.6260821  74.5937299  40.6241519
  22.6743005  66.2733163  48.0606300  22.3426330  67.1428574  47.8367515
  22.0788619  65.9569447  48.7400331  16.4099192  70.0128730  35.7936383
  16.5773594  70.8808966  36.1606854  16.2196361  70.1756012  34.8697672
  19.1674525  78.4745709  47.4602213  18.8675248  79.3770748  47.3518020
  18.8225584  78.2077892  48.3123366  12.6187006  74.9259506  43.4938917
  11.6937503  74.7935720  43.7016609  12.8671419  75.7053725  43.9908860
  22.5671669  70.9928249  45.1399650  21.6588546  70.9243657  44.8458411
  22.5159264  71.4700194  45.9681476  16.3888413  72.4686387  36.7783049
  16.2688038  72.9143438  37.6168530  15.6941001  72.8171705  36.2196588
   9.9795817  74.5692779  44.3282706  10.1088198  74.8227258  45.2422118
   9.2993269  75.1620487  44.0087361  16.6412534  72.4117895  53.0834548
  15.8645868  72.9711815  53.0737412  17.2803097  72.8974678  53.6049418
  24.4333315  69.1944687  46.9177524  23.7907695  69.4877221  46.2717319
  23.9288244  69.0797608  47.7230721  22.0873479  72.9407861  37.6063383
  22.9991335  73.1735247  37.4311081  21.5783126  73.5244905  37.0438462
  14.8958907  75.2203348  52.6452515  15.6373591  75.7588392  52.3687338
  14.1895892  75.8469637  52.8024066  20.3714246  77.3632488  51.2424676
  20.7797602  76.9214899  50.4979308  19.6491508  76.7885116  51.4958869
  16.7245316  72.3005095  48.6158233  17.5706512  72.7244509  48.7592882
  16.6643954  71.6438720  49.3096796  20.6943061  77.9233679  44.9976965
  20.0651923  78.0879393  44.2953033  20.3068723  78.3375289  45.7687929
  24.5732293  78.8588117  42.3521329  23.8883331  79.2387018  41.8018362
  24.6576142  79.4683444  43.0853276  19.8744762  69.9609464  50.2739407
  19.6305694  70.7151524  49.7373682  20.1504692  70.3394811  51.1086654
  21.8283224  76.5048076  48.9516672  22.0400120  77.1479836  48.2751053
  21.7812973  75.6710392  48.4838602  19.4309453  69.1165897  45.8553244
  18.5693932  69.4147150  46.1469982  19.4571888  69.3336295  44.9234277
  16.2471023  77.6608087  42.2627050  16.7109368  77.9395790  41.4731672
  15.9827821  76.7591532  42.0800141  13.1395104  77.2079569  45.2006813
  13.7096461  77.6366837  44.5624298  13.7303216  76.9262153  45.8990999
  15.1839909  73.7831240  39.0716615  15.8863952  74.2352283  39.5390541
  14.8520537  73.1415058  39.6996508  13.6320270  72.3742996  53.4467825
  13.0018931  73.0559277  53.6803221  13.5256358  72.2626078  52.5020963
   8.9265243  72.0414792  44.3733749   8.1364297  72.2972321  43.8973859
   9.4176490  72.8563130  44.4785789  22.9429052  79.3820031  47.1239030
  23.7646496  78.9800219  46.8421711  22.9391455  79.2788266  48.0755145
  10.8779988  72.4059371  41.3317225  10.0811152  72.5178066  41.8500721
  10.6505580  72.7446024  40.4658116  16.7085656  78.9304075  49.2799740
  16.7730088  79.3924482  50.1157912  15.9996580  78.3001440  49.4082050
   7.2102946  72.2945283  46.8048739   7.4610984  73.1792293  47.0706315
   7.7462494  72.1149884  46.0323831  31.0335045  75.7258780  43.4724001
  30.2798754  75.1566178  43.3168005  31.1682587  75.6921444  44.4194636
  12.9101013  66.6763762  55.8093076  12.5167959  66.1229961  56.4840720
  13.7267153  66.9874340  56.1999593   9.8763071  78.1147620  39.7206645
  10.3887591  78.9090870  39.8712210  10.5285784  77.4173911  39.6540247
  15.8268974  68.0921641  53.4013332  16.5678688  68.6928794  53.3217795
  16.0586897  67.3499279  52.8431375  10.9710312  73.2778008  51.6791562
  10.8563827  72.3763266  51.9798661  10.1154830  73.5241705  51.3276378
  18.0502150  81.2195749  53.2779062  17.6066004  80.4332127  52.9599967
  18.7119363  81.4074899  52.6122953  20.1483388  81.4998549  51.3060464
  20.1301863  82.3207430  50.8140733  21.0703308  81.3752624  51.5310605
  16.6056442  79.0142678  52.1483972  17.1384779  78.2530966  51.9183280
  16.0770523  78.7216330  52.8908127  19.7726137  64.1202744  47.6777614
  19.4290406  65.0104386  47.6016724  20.1405100  63.9304402  46.8147199
   7.8411988  76.4436274  40.4966216   8.6787210  76.8533283  40.2799924
   8.0190255  75.5035717  40.4666410  19.7376420  74.1111355  36.1850049
  19.2223043  74.8815960  36.4238436  19.4653728  73.4376491  36.8083110
  17.3223531  68.9561056  41.2435287  16.4665127  68.5667906  41.0640926
  17.7350483  69.0353017  40.3835073  18.8522677  66.4907399  45.6426847
  18.3487473  66.4537534  44.8294652  19.1453284  67.4000142  45.7023504
  15.0965563  66.5746129  44.6493029  15.9618560  66.3788938  44.2898918
  15.1643072  66.3456481  45.5762386  24.7110694  76.8643710  38.1203222
  23.9340137  76.5254869  37.6758384  25.3902175  76.8696333  37.4458187
  19.5262723  71.9838447  38.0109830  19.2212859  72.2984596  38.8619973
  20.4793165  72.0619867  38.0537163  17.9709155  78.1428671  39.6602784
  17.4430516  77.4081430  39.3476022  17.4696658  78.9203347  39.4142752
  22.9502001  76.3377691  44.7769830  22.2925675  77.0276952  44.8649959
  23.7542400  76.7274123  45.1203817  12.7027882  68.8048337  42.0209396
  13.2771634  68.5823518  41.2882589  13.2898865  68.8737031  42.7737997
  21.7607460  74.6922064  42.8273772  22.2739341  75.3252056  43.3295482
  22.4108684  74.0923259  42.4617132  13.0297470  70.8352798  36.0405281
  12.1934782  71.1727484  36.3614556  12.8902239  70.7001778  35.1032418
  15.0050550  65.6789586  40.7484465  14.3514962  65.3638603  40.1241080
  14.9631024  65.0565326  41.4744288  16.1161755  75.9608881  32.6637757
  15.2088817  75.7298134  32.8628906  16.6132787  75.1646500  32.8511739
  18.2388291  72.1671519  45.0732113  17.3210852  72.3886466  44.9153801
  18.6548434  72.2417830  44.2143820  19.0223338  73.5662935  40.2034793
  19.7695157  74.0784332  39.8941915  19.2914928  73.2446988  41.0639186
  17.2949988  76.0621476  37.1861747  16.3861208  75.7780508  37.2834217
  17.3245072  76.4820554  36.3265054  22.5269256  79.6728065  40.9552915
  22.0731583  78.8318975  41.0118105  21.8963223  80.3089464  41.2927695
  21.4702175  70.6020051  42.1853582  20.7324932  70.0897437  42.5163825
  21.7228949  70.1620433  41.3736859  20.9702195  81.5104562  41.8902733
  21.2625169  82.0709619  41.1715099  21.4800816  81.8033123  42.6455892
  21.5713803  63.3796303  42.7795351  21.8772680  62.5193667  42.4921267
  22.2966408  63.9713923  42.5794345   7.8638159  73.7826990  41.1676949
   7.6662559  73.1896350  40.4428016   7.3084823  73.4779200  41.8852888
  15.8434882  73.6750096  43.2871543  15.8983492  72.7223933  43.2114019
  15.0326085  73.8309535  43.7712841  16.9926076  77.6030219  34.5249826
  16.5545506  76.8866078  34.0655463  17.7336517  77.8306334  33.9634917
  13.7827242  72.2927156  41.0461921  12.9695108  72.5921327  41.4527114
  14.2786237  71.8982845  41.7636404  19.3801454  72.7568980  49.8776815
  19.7350842  72.9840454  50.7371281  20.0273585  73.0887357  49.2554071
  25.1099191  75.8787416  40.5826144  24.9717090  76.0689012  39.6547334
  24.7535410  76.6406799  41.0394195  13.2741317  69.8645512  46.6623156
  13.9140696  69.7234271  45.9646120  12.4418848  69.5780025  46.2861758
  25.1368571  77.9463943  45.5937416  25.5705077  77.8539232  46.4420470
  25.8500151  77.9221444  44.9557432  14.0501621  79.1647942  42.7758149
  14.8442220  78.6698262  42.5740724  13.3393313  78.6365805  42.4125854
  10.3584385  73.3091024  38.8517902   9.4281973  73.2475479  39.0687864
  10.4541857  72.7866976  38.0554543  10.2769934  69.8345837  41.4396143
  10.5376751  70.7491170  41.3305304  11.0987106  69.3670279  41.5892756
  11.7494859  71.2483594  48.6094968  12.4217912  71.0400956  47.9607617
  10.9224645  71.0505680  48.1700200  25.9984120  77.9887644  48.1270301
  26.1920010  78.8933455  48.3729576  25.8984738  77.5295063  48.9608886
  17.6520431  67.8745535  50.6260629  17.0048346  68.5735484  50.5325105
  18.4221446  68.3081679  50.9936877  21.0599229  78.1394387  53.7011182
  20.9084735  77.9104938  52.7841266  21.0503908  79.0964988  53.7142527
  17.8284565  75.7126300  48.6857448  18.7576625  75.8637459  48.5126416
  17.4075595  75.8010320  47.8306095  16.6272897  79.7376964  46.4555986
  16.4883983  79.3695748  47.3281924  15.8387493  80.2524603  46.2839944
  18.1778112  79.1158567  43.8444824  17.8427945  79.0759337  44.7402474
  17.6782058  78.4503283  43.3715234  12.1522356  74.5226197  49.3697405
  12.0142154  73.7906435  49.9708944  13.0627280  74.4335097  49.0881593
  21.1137304  76.4614601  34.1181883  20.4966474  75.7361429  34.0214936
  20.6453792  77.2223961  33.7748958  14.7804657  74.2346156  48.8581085
  15.4904275  73.5939348  48.8167703  14.7373965  74.4859051  49.7807265
  22.7691436  81.1713509  51.7787664  22.7103982  80.4872729  51.1118247
  23.1710954  81.9132499  51.3268290  13.4933591  71.2211374  50.6776724
  12.9570948  70.7702112  51.3298320  12.9050299  71.3557283  49.9347188
  12.9035850  70.6800025  33.2403188  12.0265316  70.5588826  32.8765434
  13.3793603  69.8886104  32.9882076  22.7708843  79.1353093  50.0101643
  21.8835622  78.7979015  50.1328042  23.3407394  78.4036124  50.2470409
   4.4237990  75.4677185  43.3344695   5.1109030  75.1538915  42.7465710
   4.2686119  76.3718550  43.0611946   9.2272712  70.3567382  47.7629718
   9.1430901  69.7493051  47.0280128   8.4055418  70.8476400  47.7639215
  19.3996426  68.8420945  43.1299914  19.8965125  68.0890907  42.8100984
  18.6283407  68.8785262  42.5643123  27.2526183  74.5461311  44.7718205
  27.2416060  75.4286026  44.4012138  26.3843563  74.1932861  44.5772742
  20.4826207  77.5992632  40.7038337  19.5482485  77.7194095  40.5343041
  20.6602875  76.6965099  40.4398347  15.9831395  70.9838328  42.8571598
  15.6129182  70.4309368  43.5452504  16.4790487  70.3796462  42.3046598
  23.8698758  73.4409952  41.2388371  24.3359210  74.2737943  41.1648674
  24.3206258  72.9754933  41.9433630  21.9374989  79.7853773  38.2374523
  22.2134833  79.6710367  39.1468397  21.0679488  79.3871258  38.1986696
  21.8415421  65.8090539  45.2779272  20.9278501  66.0394765  45.4461479
  22.2708522  65.8928983  46.1293305  21.6121879  73.9980431  47.7779166
  20.9593329  74.2456338  47.1231619  21.9902259  73.1844569  47.4441644
  17.6609452  74.7400242  54.2645204  16.9850089  74.6394371  54.9347579
  18.4837086  74.5839455  54.7281201   4.0005966  73.5477778  45.6062162
   4.0390066  73.0141369  46.3999280   3.4946259  73.0212984  44.9873139
  11.3796728  68.3942319  49.1024704  11.4438055  69.2557150  48.6902102
  11.3163849  67.7816321  48.3697063  10.8549001  70.4665451  52.7497738
  11.4821040  70.0842529  53.3635263   9.9976920  70.2479653  53.1153431
  21.2543109  80.8728427  54.3551474  21.7983013  81.4858385  53.8606429
  20.6729954  81.4308005  54.8718487   7.6314544  72.2741881  38.6816093
   7.9267985  71.3652559  38.6283147   6.7302579  72.2529620  38.3597096
  11.1608791  70.3497877  44.6643642  10.4395376  70.9633845  44.5251115
  11.9502046  70.8855642  44.5860288  21.6035531  81.7958165  47.1146052
  20.6565866  81.6763516  47.0424378  21.9518304  80.9080663  47.1972313
  13.9635104  67.6852304  50.9384294  14.4869506  67.9314600  51.7010603
  13.7447437  68.5172338  50.5187431   9.3602385  69.9555978  38.8055418
   9.0315091  69.0753357  38.6230524   9.7141756  69.9003647  39.6931808
  18.6081964  81.5910881  43.3150404  18.4606926  80.6627588  43.4957974
  19.4335458  81.6130972  42.8307479  12.4744208  70.2428948  39.1730896
  12.8140281  70.7714869  38.4509504  12.9216329  70.5809354  39.9489463
  22.2116086  82.4139440  44.4015277  23.1362633  82.2082301  44.2639728
  22.0431389  82.1655841  45.3104618  15.1687649  68.6265999  48.6233964
  14.8284470  67.8273812  49.0254644  14.4626655  68.9267710  48.0510797
  15.8204121  65.7115311  47.0761287  16.6430190  65.2375789  46.9540178
  16.0642185  66.4905795  47.5759973  14.4612355  68.7403570  37.3724189
  15.1820718  69.1184822  36.8687906  13.8377660  69.4592446  37.4759167
  18.6043478  69.4448719  38.3082521  18.8207093  70.3273356  38.0071349
  18.1237546  69.0534932  37.5788163  13.3442700  72.4034432  44.8853266
  13.1987280  72.7174735  45.7777547  12.8667903  73.0219332  44.3324164
  15.2039083  69.3936980  44.9334155  15.1900651  68.4978073  44.5966453
  15.9211511  69.4007643  45.5672441  17.0565213  69.8274320  46.9787283
  16.7982991  70.7491391  46.9771613  16.5250254  69.4304754  47.6687747
   7.8188362  74.9439776  47.8240927   7.2741830  75.7199584  47.9561201
   8.6967712  75.2910581  47.6660048  14.6075979  68.2751360  40.2021726
  14.7291890  67.3468006  40.4012613  14.3178021  68.2890046  39.2900041
  17.4767169  65.9606270  43.3388445  17.4988866  66.0245604  42.3840425
  17.8935228  65.1210779  43.5328952  27.8550793  75.6961530  41.3767668
  28.2981939  74.9468855  40.9786791  26.9777304  75.6871666  40.9941400
  22.9886575  82.2491871  36.8574266  23.6837479  82.8698564  37.0761581
  23.3309725  81.3987223  37.1326644   8.6054384  74.0709672  50.7171084
   7.8636120  74.2192308  51.3035714   8.2847128  74.3317938  49.8537833
  24.8877998  79.6991577  38.3861597  25.4129322  80.0378850  37.6610917
  24.8000350  78.7638592  38.2024732  14.0917058  69.7883357  54.4111658
  14.1405214  70.6645480  54.0289428  14.6339572  69.2460750  53.8383301
  24.5771904  80.3324481  53.6912795  23.7867448  80.3148620  53.1517295
  24.3405258  80.8712774  54.4461832  24.6969779  77.1816947  51.0045524
  24.7467784  77.0166954  51.9461047  24.5883702  76.3144206  50.6143405
  21.9873541  73.1647875  52.3204830  22.8883404  73.0254340  52.0288828
  22.0621516  73.3302330  53.2603008  16.3216347  70.5414730  51.1658017
  15.4519656  70.8348296  50.8940605  16.5575827  71.1255175  51.8865280
  26.1987976  79.6013889  51.2487545  25.9072784  79.9643869  52.0851006
  25.5860107  78.8880897  51.0700877  27.3983658  77.1666768  43.7690115
  28.2330549  77.6056572  43.9327676  27.5342787  76.6905422  42.9498361
  24.4475164  74.7246503  49.7167603  24.9229286  74.9174149  48.9086455
  23.5240729  74.7805689  49.4710987  11.3358671  75.8870670  39.2998682
  11.0904712  74.9833000  39.4978892  11.5054585  75.8887821  38.3578160
  19.0255380  66.7594347  48.6823437  19.5437324  67.4955374  48.3569926
  18.6710513  67.0658340  49.5170196  10.6054318  71.6199028  36.7984843
   9.9123563  71.6943383  36.1424879  10.3606070  70.8559372  37.3206360
  19.2767975  63.1794629  44.2024334  19.5569728  62.5117818  44.8284760
  20.0618581  63.3723725  43.6898998  23.1476833  71.6012263  47.9495909
  24.0994256  71.7010361  47.9708133  22.9780283  70.8090532  48.4593993
  21.1691212  68.6867846  48.1355310  20.5741144  68.9672859  47.4401798
  20.8840909  69.1761747  48.9072051  22.9286720  81.9556644  33.8561890
  22.8500351  81.6216507  34.7497648  23.7496386  82.4478412  33.8553362
  25.6264911  74.8218383  47.0638209  25.5941231  73.8834384  47.2497892
  26.2365534  74.9002420  46.3304033  17.4648242  73.6914436  33.1065413
  18.4107346  73.5620644  33.1753831  17.0862487  72.9529098  33.5834841
  25.7759399  71.6129426  47.1096492  25.2598448  70.8287883  46.9226421
  26.6599348  71.2848143  47.2743011  23.4370126  65.3570442  43.0692304
  23.2394947  65.0485530  43.9535636  24.0469832  66.0832081  43.1990234
  31.4441461  75.8834390  46.2044245  32.1744849  75.6219678  46.7651949
  30.8348406  75.1463112  46.2446313  29.5256758  74.0242252  46.8018697
  28.7989921  73.8898217  46.1935188  29.1104045  74.3319081  47.6075415
  17.3486934  77.7432182  54.5666070  18.2689944  77.9210781  54.7606116
  17.3136517  76.7988227  54.4145769  15.6491159  71.6164412  33.0420298
  14.7422614  71.3197525  33.1183011  15.9267140  71.3194230  32.1754584
   6.5669099  72.9370776  43.4919344   6.2471883  72.0836084  43.1993718
   6.0202527  73.1519354  44.2477312  10.3449007  75.6533217  47.2088851
  10.5635016  76.5850325  47.2276884  10.7574780  75.2941191  47.9943655
  17.2653224  66.1601302  39.1964539  16.4553953  65.8148387  39.5719785
  17.9537641  65.8508846  39.7852151  19.1943773  65.2379349  40.8188836
  19.7474811  65.6574802  41.4778859  19.4313859  64.3115097  40.8611792
  15.2176872  71.2266422  56.5991600  15.1173599  72.1760779  56.5303691
  14.9998414  70.8984661  55.7267670  14.4189943  68.4751348  33.1832277
  15.2809107  68.8006246  33.4428094  14.6040287  67.6882843  32.6705343
   6.4357359  76.5573687  45.4612466   5.7420831  76.1427640  44.9482420
   7.1830350  76.5994224  44.8645885  22.5722580  67.3479874  40.3267500
  21.9921249  68.0064678  39.9445552  22.3058513  66.5257219  39.9154917
  21.0226146  66.7484932  42.5288820  21.5225925  66.8601466  41.7203139
  21.6661754  66.4445985  43.1689629  15.0808142  74.6563561  55.4156661
  14.5975224  75.4563921  55.6220550  15.1669081  74.6671506  54.4624105
   8.3494102  76.4891941  43.3378481   8.3264790  76.5879628  42.3860364
   8.6594738  77.3357092  43.6595647  11.0081480  78.5468096  47.4525095
  11.9624733  78.5152038  47.3855027  10.8094003  78.0858720  48.2675321
  11.5980862  77.1169212  50.0195893  12.4173751  77.6113291  50.0430730
  11.8717669  76.2001180  49.9913460  21.3547458  69.5079964  39.3823848
  20.4673313  69.7929615  39.1644043  21.7701447  69.3473728  38.5351125
  24.7061994  69.5326485  43.0978187  25.4822384  70.0222938  43.3702804
  23.9810128  69.9584540  43.5550057  27.1434553  70.2454105  44.1552128
  27.7379043  70.0049841  43.4445436  27.2161136  69.5261235  44.7825664
  20.4990671  79.2724639  33.4771868  21.2026521  79.4774642  34.0929524
  19.7753320  79.8401401  33.7420952  21.3288482  75.0234500  39.5974138
  21.2723683  75.4803052  38.7581771  21.8816824  74.2625185  39.4196981
  25.1393287  70.8124232  40.4224258  24.8830222  70.4120868  41.2532466
  24.5146156  71.5268026  40.2974397  29.4505625  73.5520305  42.9295549
  28.8905183  73.6213495  43.7027111  28.8449129  73.3761290  42.2095046
  22.4077369  79.7107168  35.5270328  23.2422973  79.2788367  35.3447803
  22.2461712  79.5389182  36.4547223  22.0623261  76.2139282  36.8926668
  22.0072065  76.0483553  35.9515112  21.4369316  76.9215314  37.0488857
   6.8515776  71.4507346  50.7188090   7.4974639  70.9406300  51.2075315
   6.6432927  72.1876028  51.2931515  19.3769168  78.5188193  56.2180230
  20.2460328  78.6928846  55.8566865  18.8975920  79.3382610  56.0955960
  15.3719386  65.7147391  36.4711986  15.3598056  66.6589230  36.6280257
  16.2642808  65.5317536  36.1771447  19.1871506  62.3090167  40.7257923
  18.4203902  61.7548654  40.8714605  19.5982211  62.3812036  41.5872074
  11.1913267  68.5974963  54.8163104  12.0544728  68.2411768  55.0266429
  10.6178678  68.2588858  55.5038508  35.9911339  87.8903506  43.6011692
  36.7236511  87.3202723  43.8349521  35.2350695  87.5025107  44.0418197
  33.5136760  81.6025081  48.0606300  33.1820085  82.4720491  47.8367515
  32.9182373  81.2861365  48.7400331  33.4065423  86.3220167  45.1399650
  32.4982300  86.2535575  44.8458411  33.3553019  86.7992112  45.9681476
  35.2727069  84.5236605  46.9177524  34.6301450  84.8169138  46.2717319
  34.7681998  84.4089525  47.7230721  30.7138516  85.2901381  50.2739407
  30.4699448  86.0443442  49.7373682  30.9898447  85.6686729  51.1086654
  30.2703208  84.4457814  45.8553244  29.4087687  84.7439068  46.1469982
  30.2965643  84.6628213  44.9234277  23.7494768  82.0055680  55.8093076
  23.3561713  81.4521878  56.4840720  24.5660908  82.3166258  56.1999593
  26.6662729  83.4213559  53.4013332  27.4072442  84.0220712  53.3217795
  26.8980651  82.6791197  52.8431375  30.6119892  79.4494662  47.6777614
  30.2684161  80.3396303  47.6016724  30.9798854  79.2596319  46.8147199
  29.6916432  81.8199317  45.6426847  29.1881228  81.7829452  44.8294652
  29.9847039  82.7292060  45.7023504  25.9359318  81.9038047  44.6493029
  26.8012315  81.7080855  44.2898918  26.0036827  81.6748398  45.5762386
  25.8444305  81.0081503  40.7484465  25.1908717  80.6930521  40.1241080
  25.8024779  80.3857244  41.4744288  32.3095930  85.9311969  42.1853582
  31.5718687  85.4189355  42.5163825  32.5622703  85.4912350  41.3736859
  32.4107557  78.7088221  42.7795351  32.7166434  77.8485584  42.4921267
  33.1360162  79.3005841  42.5794345  28.4914185  83.2037452  50.6260629
  27.8442100  83.9027402  50.5325105  29.2615201  83.6373596  50.9936877
  30.2390180  84.1712863  43.1299914  30.7358880  83.4182825  42.8100984
  29.4677162  84.2077179  42.5643123  32.6809175  81.1382456  45.2779272
  31.7672255  81.3686683  45.4461479  33.1102277  81.2220900  46.1293305
  24.8028859  83.0144221  50.9384294  25.3263260  83.2606518  51.7010603
  24.5841192  83.8464256  50.5187431  26.0081404  83.9557916  48.6233964
  25.6678224  83.1565729  49.0254644  25.3020410  84.2559627  48.0510797
  26.6597875  81.0407229  47.0761287  27.4823945  80.5667707  46.9540178
  26.9035939  81.8197713  47.5759973  29.4437233  84.7740636  38.3082521
  29.6600847  85.6565274  38.0071349  28.9631300  84.3826850  37.5788163
  25.4469733  83.6043278  40.2021726  25.5685644  82.6759924  40.4012613
  25.1571775  83.6181964  39.2900041  28.3160923  81.2898188  43.3388445
  28.3382620  81.3537521  42.3840425  28.7328982  80.4502697  43.5328952
  29.8649135  82.0886264  48.6823437  30.3831079  82.8247291  48.3569926
  29.5104268  82.3950258  49.5170196  30.1161729  78.5086547  44.2024334
  30.3963483  77.8409736  44.8284760  30.9012336  78.7015643  43.6898998
  33.9870587  86.9304181  47.9495909  34.9388010  87.0302279  47.9708133
  33.8174038  86.1382449  48.4593993  32.0084967  84.0159764  48.1355310
  31.4134899  84.2964777  47.4401798  31.7234664  84.5053665  48.9072051
  36.6153154  86.9421344  47.1096492  36.0992202  86.1579801  46.9226421
  37.4993102  86.6140061  47.2743011  34.2763881  80.6862360  43.0692304
  34.0788702  80.3777448  43.9535636  34.8863586  81.4123999  43.1990234
  28.1046979  81.4893220  39.1964539  27.2947707  81.1440305  39.5719785
  28.7931396  81.1800763  39.7852151  30.0337527  80.5671267  40.8188836
  30.5868566  80.9866720  41.4778859  30.2707614  79.6407015  40.8611792
  25.2583698  83.8043265  33.1832277  26.1202862  84.1298164  33.4428094
  25.4434042  83.0174761  32.6705343  33.4116334  82.6771792  40.3267500
  32.8315003  83.3356596  39.9445552  33.1452267  81.8549136  39.9154917
  31.8619901  82.0776849  42.5288820  32.3619679  82.1893384  41.7203139
  32.5055509  81.7737902  43.1689629  32.1941212  84.8371882  39.3823848
  31.3067067  85.1221533  39.1644043  32.6095201  84.6765645  38.5351125
  35.5455748  84.8618403  43.0978187  36.3216139  85.3514855  43.3702804
  34.8203883  85.2876457  43.5550057  37.9828307  85.5746022  44.1552128
  38.5772798  85.3341758  43.4445436  38.0554891  84.8553153  44.7825664
  35.9787042  86.1416150  40.4224258  35.7223976  85.7412786  41.2532466
  35.3539910  86.8559944  40.2974397  40.2899380  88.8812223  42.9295549
  39.7298938  88.9505412  43.7027111  39.6842883  88.7053208  42.2095046
  26.2113141  81.0439308  36.4711986  26.1991811  81.9881148  36.6280257
  27.1036563  80.8609454  36.1771447  30.0265260  77.6382085  40.7257923
  29.2597656  77.0840572  40.8714605  30.4375965  77.7103954  41.5872074
   3.4730077  18.9089876  30.3256998   4.2055249  18.3389093  30.5594828
   2.7169433  18.5211476  30.7663504   2.7545807  15.5422975  33.6422831
   2.1120188  15.8355508  32.9962625   2.2500736  15.4275895  34.4476027
   2.8944785  25.2066404  29.0766635   2.2095823  25.5865306  28.5263669
   2.9788634  25.8161731  29.8098583   1.2641545  25.7298319  33.8484336
   2.0858988  25.3278506  33.5667018   1.2603948  25.6266553  34.8000452
   9.3547538  22.0737067  30.1969308   8.6011246  21.5044465  30.0413312
   9.4895079  22.0399732  31.1439942   3.0323186  23.2121997  24.8448529
   2.2552629  22.8733157  24.4003691   3.7114667  23.2174620  24.1703494
   1.2714493  22.6855978  31.5015137   0.6138168  23.3755240  31.5895266
   2.0754892  23.0752410  31.8449123   3.4311683  22.2265704  27.3071451
   3.2929582  22.4167300  26.3792640   3.0747902  22.9885086  27.7639502
   3.4581063  24.2942231  32.3182722   3.8917570  24.2017520  33.1665777
   4.1712644  24.2699731  31.6802738   4.3196612  24.3365931  34.8515608
   4.5132503  25.2411742  35.0974883   4.2197231  23.8773350  35.6854193
   1.0903928  27.5191797  38.5032970   1.0316474  26.8351017  37.8363553
   1.4923446  28.2610787  38.0513596   5.5738676  20.8939598  31.4963512
   5.5628552  21.7764313  31.1257445   4.7056055  20.5411149  31.3018049
   2.1911250  19.7888239  27.9633678   2.6571702  20.6216230  27.8893980
   2.6418751  19.3233220  28.6678936   0.5328578  28.7617727  31.1260583
   1.4575126  28.5560588  30.9885035   0.3643882  28.5134128  32.0349925
   6.1763286  22.0439817  28.1012975   6.6194432  21.2947142  27.7032098
   5.2989796  22.0349954  27.7186707   1.3099067  28.5970159  23.5819573
   2.0049972  29.2176851  23.8006888   1.6522217  27.7465510  23.8571951
   3.2090490  26.0469864  25.1106904   3.7341814  26.3857137  24.3856224
   3.1212843  25.1116880  24.9270038   2.8984396  26.6802768  40.4158102
   2.1079940  26.6626907  39.8762601   2.6617751  27.2191062  41.1707138
   3.0182271  23.5295234  37.7290830   3.0680276  23.3645242  38.6706353
   2.9096194  22.6622493  37.3388711   4.5200468  25.9492176  37.9732852
   4.2285276  26.3122156  38.8096313   3.9072599  25.2359184  37.7946184
   5.7196150  23.5145056  30.4935422   6.5543042  23.9534860  30.6572982
   5.8555279  23.0383709  29.6743668   2.7687656  21.0724790  36.4412910
   3.2441778  21.2652437  35.6331761   1.8453222  21.1283976  36.1956294
   1.4689325  17.9490550  34.6741215   2.4206748  18.0488648  34.6953440
   1.2992776  17.1568819  35.1839300   1.2499212  28.3034931  20.5807197
   1.1712843  27.9694794  21.4742954   2.0708879  28.7956699  20.5798669
   3.9477403  21.1696670  33.7883515   3.9153723  20.2312671  33.9743199
   4.5578027  21.2480707  33.0549340   4.0971891  17.9607714  33.8341798
   3.5810940  17.1766170  33.6471727   4.9811840  17.6326430  33.9988318
   9.7653953  22.2312677  32.9289552  10.4957341  21.9697965  33.4897255
   9.1560898  21.4941399  32.9691620   7.8469250  20.3720540  33.5264003
   7.1202414  20.2376505  32.9180495   7.4316537  20.6797368  34.3320721
   3.0274486  15.8804773  29.8223494   3.8034876  16.3701225  30.0948111
   2.3022620  16.3062827  30.2795364   5.4647045  16.5932392  30.8797435
   6.0591536  16.3528128  30.1690743   5.5373629  15.8739522  31.5070971
   3.4605780  17.1602519  27.1469565   3.2042714  16.7599155  27.9777772
   2.8358648  17.8746313  27.0219704   7.7718118  19.8998593  29.6540856
   7.2117676  19.9691782  30.4272418   7.1661621  19.7239577  28.9340352
   0.7289861  26.0585455  22.2515635   1.5635465  25.6266654  22.0693110
   0.5674204  25.8867469  23.1792529   9.3574136  36.5755107  32.3470812
   9.9952546  36.4561854  31.6434152   9.2394979  37.5235951  32.4058764
   6.1663842  36.5282535  32.2832336   5.8282354  36.4123599  31.3952871
   7.0353611  36.1273700  32.2633342   2.0250658  38.3818011  28.2729227
   1.4615523  38.2907948  27.5045515   1.9103053  37.5617916  28.7531720
   6.6483625  37.6817386  38.2418542   6.6372266  37.2870185  37.3699046
   6.8104265  36.9483459  38.8352313   7.6050217  42.0488979  23.5843692
   6.9538197  42.6343059  23.1977706   8.3994580  42.5795174  23.6438730
   1.5305844  39.1378116  23.9830827   2.3036720  38.5907103  23.8443702
   1.8831243  40.0022365  24.1945288   3.3690886  40.4654498  37.1897726
   3.0780752  41.3700129  37.0744392   4.0047871  40.5071026  37.9041795
   4.2947093  37.8431347  33.7799086   4.8910666  37.6187369  33.0656048
   4.3522065  37.1016092  34.3824533   3.8672122  35.2970782  21.6149276
   4.1197642  34.7752303  20.8532739   2.9296681  35.1336928  21.7175960
   8.9115405  34.3006560  29.4224020   9.6978494  33.8825984  29.0714437
   9.1754109  35.2052653  29.5905668   9.0825482  39.7379411  24.1212677
   8.4471315  39.8114037  24.8333581   8.7522888  40.3273010  23.4431756
  14.3123832  34.2381794  30.3256998  15.0449004  33.6681010  30.5594828
  13.5563187  33.8503394  30.7663504   3.5868410  37.1998888  23.8173651
   3.4704669  36.5243791  24.4854736   3.6970670  36.7131262  23.0005804
   5.9299951  36.6609035  27.5220341   5.5658159  36.1339656  28.2333262
   6.7867067  36.2707504  27.3486826  11.8349252  27.9503368  34.7851607
  11.5032577  28.8198779  34.5612822  11.2394865  27.6339652  35.4645637
   5.5705438  31.6898935  22.5181689   5.7379841  32.5579171  22.8852160
   5.3802607  31.8526217  21.5942978   8.3280772  40.1515914  34.1847520
   8.0281495  41.0540953  34.0763327   7.9831831  39.8848097  35.0368672
   1.7793253  36.6029711  30.2184224   0.8543750  36.4705925  30.4261916
   2.0277666  37.3823930  30.7154166  11.7277915  32.6698454  31.8644957
  10.8194793  32.6013862  31.5703718  11.6765511  33.1470399  32.6926782
   5.5494659  34.1456592  23.5028356   5.4294284  34.5913643  24.3413836
   4.8547248  34.4941910  22.9441894   3.3101551  46.9160234  27.1518487
   3.2325581  47.8668059  27.2306968   2.7063195  46.5706107  27.8093414
   5.8018781  34.0888100  39.8079854   5.0252115  34.6482020  39.7982719
   6.4409344  34.5744882  40.3294724  13.5939562  30.8714892  33.6422831
  12.9513942  31.1647425  32.9962625  13.0894490  30.7567813  34.4476027
  11.2479725  34.6178066  24.3308690  12.1597582  34.8505452  24.1556388
  10.7389372  35.2015110  23.7683769   4.0565153  36.8973553  39.3697821
   4.7979838  37.4358597  39.0932645   3.3502139  37.5239842  39.5269373
   9.5320493  39.0402693  37.9669983   9.9403849  38.5985104  37.2224615
   8.8097755  38.4655321  38.2204176   5.8851563  33.9775300  35.3403540
   6.7312758  34.4014714  35.4838189   5.8250201  33.3208924  36.0342103
   9.8549308  39.6003884  31.7222272   9.2258170  39.7649598  31.0198339
   9.4674970  40.0145494  32.4933236  13.7338540  40.5358322  29.0766635
  13.0489578  40.9157223  28.5263669  13.8182389  41.1453648  29.8098583
   9.0351008  31.6379668  36.9984713   8.7911940  32.3921729  36.4618989
   9.3110939  32.0165016  37.8331960  10.9889471  38.1818281  35.6761979
  11.2006366  38.8250041  34.9996360  10.9419219  37.3480597  35.2083909
   8.5915700  30.7936101  32.5798551   7.7300179  31.0917355  32.8715289
   8.6178135  31.0106500  31.6479584   5.4077270  39.3378292  28.9872357
   5.8715615  39.6165995  28.1976979   5.1434068  38.4361737  28.8045447
   2.3001351  38.8849774  31.9252120   2.8702708  39.3137042  31.2869604
   2.8909463  38.6032358  32.6236306   4.3446156  35.4601444  25.7961922
   5.0470199  35.9122488  26.2635848   4.0126784  34.8185263  26.4241815
   2.7926517  34.0513201  40.1713131   2.1625178  34.7329482  40.4048528
   2.6862605  33.9396283  39.2266269  12.1035299  41.0590236  33.8484336
  12.9252743  40.6570424  33.5667018  12.0997702  40.9558470  34.8000452
   5.8691903  40.6074280  36.0045047   5.9336335  41.0694687  36.8403218
   5.1602827  39.9771644  36.1327356  20.1941292  37.4028985  30.1969308
  19.4405001  36.8336383  30.0413312  20.3288833  37.3691649  31.1439942
   5.5839920  42.2742387  25.8724027   5.4485595  43.1193923  26.3008875
   6.1249733  42.4761665  25.1089961   2.0707260  28.3533967  42.5338382
   1.6774205  27.8000165  43.2086026   2.8873400  28.6644545  42.9244900
   0.8464202  42.9083581  28.5274705   1.0230831  43.8301546  28.3395689
   1.6421036  42.5942001  28.9569085   4.9875221  29.7691846  40.1258639
   5.7284934  30.3698999  40.0463101   5.2193144  29.0269484  39.5676681
   7.2108397  42.8965954  40.0024369   6.7672251  42.1102332  39.6845274
   7.8725610  43.0845104  39.3368260   1.9695518  44.4261755  34.5285048
   2.5202943  44.2978819  33.7562042   1.1306994  44.7256644  34.1779940
   9.3089635  43.1768753  38.0305770   9.2908110  43.9977635  37.5386039
  10.2309555  43.0522829  38.2555911   5.7662689  40.6912883  38.8729279
   6.2991026  39.9301171  38.6428587   5.2376770  40.3986535  39.6153433
   8.9332384  25.7972949  34.4022920   8.5896653  26.6874591  34.3262031
   9.3011346  25.6074607  33.5392505   8.8982667  35.7881560  22.9095356
   8.3829290  36.5586165  23.1483743   8.6259975  35.1146696  23.5328417
   6.4829778  30.6331261  27.9680594   5.6271374  30.2438111  27.7886233
   6.8956729  30.7123222  27.1080379   8.0128924  28.1677604  32.3672154
   7.5093720  28.1307739  31.5539959   8.3059531  29.0770347  32.4268810
   4.2571810  28.2516334  31.3738335   5.1224807  28.0559142  31.0144225
   4.3249319  28.0226686  32.3007692  13.8716941  38.5413915  24.8448529
  13.0946383  38.2025074  24.4003691  14.5508422  38.5466538  24.1703494
   8.6868970  33.6608652  24.7355137   8.3819105  33.9754801  25.5865280
   9.6399412  33.7390072  24.7782470   7.1315402  39.8198875  26.3848091
   6.6036763  39.0851635  26.0721328   6.6302904  40.5973552  26.1388059
  12.1108248  38.0147896  31.5015137  11.4531922  38.7047157  31.5895266
  12.9148647  38.4044328  31.8449123   1.8634129  30.4818542  28.7454702
   2.4377881  30.2593723  28.0127895   2.4505112  30.5507236  29.4983304
  10.9213706  36.3692269  29.5519079  11.4345588  37.0022260  30.0540788
  11.5714930  35.7693464  29.1862439   2.1903716  32.5123003  22.7650587
   1.3541029  32.8497689  23.0859862   2.0508486  32.3771983  21.8277724
   4.1656797  27.3559791  27.4729772   3.5121209  27.0408808  26.8486386
   4.1237271  26.7335531  28.1989595   5.2768002  37.6379086  19.3883064
   4.3695064  37.4068339  19.5874213   5.7739034  36.8416705  19.5757045
   8.1836081  46.3476593  22.3079750   7.5097779  46.6508290  22.9164708
   8.5701903  47.1505673  21.9585207   7.3994537  33.8441724  31.7977419
   6.4817099  34.0656671  31.6399107   7.8154681  33.9188035  30.9389127
   8.1829585  35.2433140  26.9280100   8.9301404  35.7554537  26.6187222
   8.4521175  34.9217193  27.7884493   6.4556235  37.7391681  23.9107054
   5.5467454  37.4550713  24.0079524   6.4851319  38.1590759  23.0510361
  11.6875503  41.3498270  27.6798221  11.2337830  40.5089180  27.7363412
  11.0569469  41.9859668  28.0173002  10.6308422  32.2790256  28.9098889
   9.8931179  31.7667642  29.2409131  10.8835196  31.8390638  28.0982166
  10.1308442  43.1874767  28.6148040  10.4231416  43.7479824  27.8960405
  10.6407062  43.4803328  29.3701199  10.7320050  25.0566508  29.5040658
  11.0378926  24.1963872  29.2166573  11.4572654  25.6484128  29.3039652
   5.0041129  35.3520301  30.0116849   5.0589739  34.3994138  29.9359326
   4.1932331  35.5079740  30.4958148   6.1532323  39.2800424  21.2495132
   5.7151753  38.5636283  20.7900770   6.8942764  39.5076539  20.6880224
   2.9433489  33.9697361  27.7707228   2.1301355  34.2691531  28.1772420
   3.4392483  33.5753050  28.4881710   5.0942067  43.9655118  29.7041493
   5.0518246  44.1915964  28.7750025   6.0104766  43.7318492  29.8527294
   8.5407701  34.4339185  36.6022122   8.8957089  34.6610659  37.4616588
   9.1879832  34.7657562  35.9799377  14.2705438  37.5557621  27.3071451
  14.1323336  37.7459217  26.3792640  13.9141657  38.3177004  27.7639502
   2.4347564  31.5415716  33.3868463   3.0746943  31.4004476  32.6891426
   1.6025094  31.2550230  33.0107065  14.2974817  39.6234148  32.3182722
  14.7311324  39.5309437  33.1665777  15.0106398  39.5991649  31.6802738
   3.2107868  40.8418147  29.5003455   4.0048466  40.3468467  29.2986030
   2.4999560  40.3136010  29.1371161   8.0302712  43.2236242  33.8515823
   8.0839735  43.7927179  34.6193539   7.1617494  43.3938127  33.4869860
  15.1590367  39.6657849  34.8515608  15.3526257  40.5703659  35.0974883
  15.0590985  39.2065268  35.6854193   6.8126678  29.5515740  37.3505935
   6.1654593  30.2505689  37.2570412   7.5827693  29.9851883  37.7182183
  10.2205476  39.8164592  40.4256488  10.0690982  39.5875143  39.5086572
  10.2110155  40.7735193  40.4387834   6.9890812  37.3896504  35.4102755
   7.9182872  37.5407664  35.2371722   6.5681842  37.4780525  34.5551401
   5.7879144  41.4147169  33.1801293   5.6490230  41.0465953  34.0527231
   4.9993740  41.9294808  33.0085250   6.3827296  46.5156265  24.5226829
   6.5579051  46.0444309  25.3372452   5.6960084  47.1422032  24.7508090
   7.3384359  40.7928772  30.5690130   7.0034192  40.7529542  31.4647780
   6.8388305  40.1273487  30.0960541   1.3128603  36.1996402  36.0942711
   1.1748401  35.4676640  36.6954251   2.2233526  36.1105302  35.8126899
  10.2743551  38.1384806  20.8427190   9.6572721  37.4131634  20.7460243
   9.8060039  38.8994166  20.4994264   3.9410904  35.9116361  35.5826391
   4.6510522  35.2709553  35.5413010   3.8980212  36.1629256  36.5052572
  11.9297682  42.8483714  38.5032970  11.8710228  42.1642934  37.8363553
  12.3317201  43.5902704  38.0513596   2.6539838  32.8981579  37.4022031
   2.1177195  32.4472317  38.0543627   2.0656546  33.0327488  36.6592495
   2.0642097  32.3570230  19.9648494   1.1871563  32.2359031  19.6010741
   2.5399850  31.5656308  19.7127383  11.9315090  40.8123298  36.7346950
  11.0441868  40.4749220  36.8573349  12.5013641  40.0806329  36.9715715
   5.4616243  45.4724751  33.7008193   5.3886414  46.2779722  34.2127498
   5.0193636  45.6716716  32.8756215   5.2506023  44.7096521  27.2111015
   4.4673544  45.2518201  27.3049239   5.9498768  45.2270500  27.6105256
   8.5602673  30.5191150  29.8545220   9.0571372  29.7661112  29.5346290
   7.7889654  30.5555467  29.2888429  16.4132430  36.2231516  31.4963512
  16.4022306  37.1056231  31.1257445  15.5449810  35.8703066  31.3018049
   7.9214926  45.3711585  35.8566352   8.6342899  46.0059049  35.7842253
   7.4304955  45.4675451  35.0406354   9.6432453  39.2762837  27.4283644
   8.7088732  39.3964300  27.2588348   9.8209122  38.3735304  27.1643653
   5.1437641  32.6608533  29.5816905   4.7735429  32.1079573  30.2697810
   5.6396734  32.0566666  29.0291905  13.0305005  35.1180157  27.9633678
  13.4965457  35.9508148  27.8893980  13.4812505  34.6525138  28.6678936
   2.9726840  43.1206028  36.6771923   3.6736300  43.7542511  36.8301317
   2.5021955  43.4620760  35.9167562  11.0981236  41.4623978  24.9619830
  11.3741080  41.3480572  25.8713704  10.2285735  41.0641463  24.9232003
  11.0021667  27.4860744  32.0024579  10.0884747  27.7164970  32.1706786
  11.4314769  27.5699188  32.8538611  10.7728126  35.6750635  34.5024473
  10.1199576  35.9226543  33.8476926  11.1508506  34.8614774  34.1686950
   7.7335300  45.7110329  28.6052643   7.9157694  44.8931985  29.0680396
   8.5568286  45.9278021  28.1677533   8.0677465  44.6378514  25.8667692
   8.5965232  44.1270968  25.2537854   8.3305685  44.3221044  26.7313225
   6.8215699  36.4170447  40.9890510   6.1456336  36.3164576  41.6592885
   7.6443333  36.2609660  41.4526507   1.4233213  45.6893630  28.6265468
   0.7543589  46.1739758  28.1429508   1.2846083  45.9362851  29.5408846
   5.5638482  47.7237374  35.2248126   6.1156790  47.8868995  35.9897211
   5.9044675  48.3141812  34.5528151   0.5402975  30.0712524  35.8270011
   0.6044302  30.9327355  35.4147409   0.4770095  29.4586525  35.0942369
  10.4149356  42.5498631  41.0796781  10.9589260  43.1628590  40.5851735
   9.8336201  43.1078210  41.5963794   8.7006869  45.6719350  32.2111808
   8.5758009  44.8709089  31.7022754   9.3585960  46.1665543  31.7225778
  10.7641778  43.4728370  33.8391358   9.8172113  43.3533721  33.7669685
  11.1124551  42.5850868  33.9217620   3.1241351  29.3622509  37.6629600
   3.6475753  29.6084805  38.4255910   2.9053684  30.1942543  37.2432738
   7.7688211  43.2681086  30.0395711   7.6213173  42.3397793  30.2203281
   8.5941704  43.2901177  29.5552786   1.6350455  31.9199153  25.8976203
   1.9746528  32.4485074  25.1754811   2.0822576  32.2579559  26.6734769
  11.3722333  44.0909645  31.1260583  12.2968880  43.8852506  30.9885035
  11.2037636  43.8426046  32.0349925   4.3293896  30.3036204  35.3479271
   3.9890716  29.5044017  35.7499951   3.6232902  30.6037914  34.7756104
   4.9810368  27.3885516  33.8006594   5.8036437  26.9145994  33.6785484
   5.2248431  28.1676000  34.3005280   3.6218602  30.4173774  24.0969496
   4.3426965  30.7955027  23.5933212   2.9983906  31.1362651  24.2004473
   7.7649725  31.1218923  25.0327828   7.9813340  32.0043561  24.7316656
   7.2843792  30.7305137  24.3033470   2.5048947  34.0804637  31.6098572
   2.3593527  34.3944940  32.5022854   2.0274150  34.6989537  31.0569471
   4.3645329  31.0707185  31.6579462   4.3506898  30.1748278  31.3211760
   5.0817758  31.0777848  32.2917748   6.2171460  31.5044525  33.7032589
   5.9589238  32.4261596  33.7016920   5.6856501  31.1074959  34.3933054
  11.1617649  44.6095312  26.4822675  11.3354526  44.0441734  25.7296527
  11.6546540  45.4096207  26.3002165   3.7682225  29.9521565  26.9267032
   3.8898137  29.0238211  27.1257920   3.4784268  29.9660251  26.0145348
   6.6373416  27.6376475  30.0633752   6.6595113  27.7015808  29.1085732
   7.0541475  26.7980984  30.2574258  17.0157040  37.3731735  28.1012975
  17.4588186  36.6239060  27.7032098  16.1383550  37.3641871  27.7186707
  12.1492821  43.9262076  23.5819573  12.8443726  44.5468769  23.8006888
  12.4915972  43.0757428  23.8571951  14.0484245  41.3761782  25.1106904
  14.5735569  41.7149055  24.3856224  13.9606597  40.4408797  24.9270038
   5.7104293  45.2895856  37.2396781   6.0191420  45.0445002  38.1119480
   6.5079775  45.4942494  36.7515651   5.7324905  47.4433765  29.4702157
   5.2929896  46.9510144  30.1635014   6.4833022  46.9006733  29.2294232
   3.1798777  42.9871774  31.5424459   2.5578787  42.3242479  31.2426687
   3.8503644  43.0132906  30.8598106   3.2523305  31.4653562  41.1356965
   3.3011460  32.3415685  40.7534734   3.7945819  30.9230955  40.5628608
  13.7378151  42.0094686  40.4158102  12.9473694  41.9918824  39.8762601
  13.5011505  42.5482979  41.1707138  13.8576026  38.8587152  37.7290830
  13.9074031  38.6937159  38.6706353  13.7489949  37.9914411  37.3388711
   2.7412284  41.5375698  25.0182919   2.8900405  42.2211162  24.3649592
   3.5478728  41.5180788  25.5332375  11.1479788  34.8418080  39.0450137
  12.0489651  34.7024545  38.7534135  11.2227763  35.0072535  39.9848315
   5.4822593  32.2184935  37.8903323   4.6125903  32.5118501  37.6185912
   5.7182074  32.8025380  38.6110587  15.3594222  41.2784093  37.9732852
  15.0679031  41.6414074  38.8096313  14.7466354  40.5651102  37.7946184
  16.5589905  38.8436973  30.4935422  17.3936796  39.2826777  30.6572982
  16.6949034  38.3675626  29.6743668  13.6081411  36.4016708  36.4412910
  14.0835532  36.5944354  35.6331761  12.6846976  36.4575894  36.1956294
   8.1861627  28.4364552  35.4068744   8.7043571  29.1725579  35.0815232
   7.8316760  28.7428545  36.2415503   8.4374221  24.8564834  30.9269640
   8.7175975  24.1888023  31.5530067   9.2224828  25.0493930  30.4144304
   6.2407690  44.0323828  22.4894667   5.6681657  44.6514015  22.0365139
   6.8140484  44.5823190  23.0234589  12.3083080  33.2782468  34.6741215
  13.2600503  33.3780566  34.6953440  12.1386530  32.4860737  35.1839300
  10.3297459  30.3638051  34.8600616   9.7347391  30.6443064  34.1647105
  10.0447156  30.8531952  35.6317358   9.4604950  44.3160978  23.6203249
  10.3935623  44.2506540  23.8236124   9.3728162  45.1517245  23.1617782
  12.0892966  43.6326849  20.5807197  12.0106598  43.2986712  21.4742954
  12.9102633  44.1248616  20.5798669  14.7871157  36.4988588  33.7883515
  14.7547478  35.5604589  33.9743199  15.3971781  36.5772625  33.0549340
   6.6254488  35.3684641  19.8310719   7.5713593  35.2390849  19.8999137
   6.2468733  34.6299303  20.3080147  14.9365646  33.2899631  33.8341798
  14.4204695  32.5058088  33.6471727  15.8205594  32.9618348  33.9988318
  12.5976373  27.0340647  29.7937611  12.4001194  26.7255735  30.6780943
  13.2076078  27.7602286  29.9235541  20.6047707  37.5604595  32.9289552
  21.3351096  37.2989883  33.4897255  19.9954653  36.8233317  32.9691620
  18.6863004  35.7012457  33.5264003  17.9596168  35.5668422  32.9180495
  18.2710291  36.0089286  34.3320721   6.5093181  39.4202387  41.2911376
   7.4296190  39.5980986  41.4851423   6.4742764  38.4758432  41.1391075
   4.8097405  33.2934617  19.7665604   3.9028861  32.9967730  19.8428318
   5.0873386  32.9964435  18.8999891   6.4259471  27.8371507  25.9209846
   5.6160200  27.4918592  26.2965092   7.1143888  27.5279051  26.5097457
   8.3550019  26.9149554  27.5434142   8.9081058  27.3345007  28.2024165
   8.5920106  25.9885302  27.5857098   4.3783119  32.9036627  43.3236906
   4.2779846  33.8530984  43.2548997   4.1604661  32.5754866  42.4512976
   3.5796190  30.1521552  19.9077584   4.4415354  30.4776451  20.1673401
   3.7646534  29.3653048  19.3950649  11.7328827  29.0250079  27.0512807
  11.1527496  29.6834883  26.6690859  11.4664759  28.2027424  26.6400224
  10.1832393  28.4255137  29.2534127  10.6832171  28.5371671  28.4448446
  10.8268001  28.1216189  29.8934935   4.2414389  36.3333766  42.1401968
   3.7581470  37.1334126  42.3465857   4.3275328  36.3441711  41.1869412
   0.7587108  38.7939417  36.7441199   1.5779997  39.2883496  36.7676037
   1.0323916  37.8771385  36.7158767  10.5153705  31.1850169  26.1069155
   9.6279560  31.4699820  25.8889350  10.9307694  31.0243933  25.2596432
  13.8668241  31.2096690  29.8223494  14.6428631  31.6993143  30.0948111
  13.1416375  31.6354744  30.2795364  16.3040799  31.9224309  30.8797435
  16.8985290  31.6820045  30.1690743  16.3767383  31.2031440  31.5070971
   9.6596918  40.9494844  20.2017175  10.3632768  41.1544846  20.8174830
   8.9359567  41.5171606  20.4666258  10.4894728  36.7004705  26.3219445
  10.4329930  37.1573257  25.4827077  11.0423071  35.9395390  26.1442288
  14.2999534  32.4894437  27.1469565  14.0436468  32.0891073  27.9777772
  13.6752402  33.2038231  27.0219704  18.6111872  35.2290510  29.6540856
  18.0511430  35.2983700  30.4272418  18.0055375  35.0531495  28.9340352
   1.6807081  46.6627237  31.4059042   1.5639465  47.6072670  31.3037732
   0.8599527  46.3600799  31.7944841  11.5683615  41.3877373  22.2515635
  12.4029219  40.9558572  22.0693110  11.4067958  41.2159387  23.1792529
  11.2229508  37.8909486  23.6171974  11.1678311  37.7253758  22.6760418
  10.5975563  38.5985519  23.7734164   8.5375415  40.1958398  42.9425537
   9.4066574  40.3699051  42.5812172   8.0582166  41.0152815  42.8201266
   4.5325633  27.3917595  23.1957293   4.5204303  28.3359435  23.3525563
   5.4249055  27.2087741  22.9016754   2.7061595  47.3155499  34.6214971
   3.6088842  47.3479110  34.9381466   2.4798965  46.3855950  34.6361306
   4.4615197  46.0686486  31.2825049   3.5110828  46.0688347  31.1689422
   4.7647683  45.3219220  30.7661084   8.3477753  23.9860372  27.4503229
   7.5810148  23.4318859  27.5959912   8.7588458  24.0582241  28.3117381
  20.1967891  51.9047024  32.3470812  20.8346301  51.7853772  31.6434152
  20.0788733  52.8527868  32.4058764  17.0057597  51.8574452  32.2832336
  16.6676108  51.7415517  31.3952871  17.8747365  51.4565617  32.2633342
  12.8644413  53.7109929  28.2729227  12.3009278  53.6199866  27.5045515
  12.7496808  52.8909833  28.7531720  17.4877380  53.0109304  38.2418542
  17.4766021  52.6162102  37.3699046  17.6498019  52.2775377  38.8352313
  10.4108844  55.2061120  31.1113448  11.2030136  54.8651945  30.6959747
  10.6505495  55.3156095  32.0315601  18.4443971  57.3780896  23.5843692
  17.7931951  57.9634977  23.1977706  19.2388334  57.9087091  23.6438730
  12.3699598  54.4670034  23.9830827  13.1430474  53.9199021  23.8443702
  12.7224997  55.3314283  24.1945288  14.2084641  55.7946416  37.1897726
  13.9174507  56.6992047  37.0744392  14.8441625  55.8362944  37.9041795
  15.1340848  53.1723264  33.7799086  15.7304420  52.9479287  33.0656048
  15.1915819  52.4308010  34.3824533  14.7065876  50.6262700  21.6149276
  14.9591397  50.1044221  20.8532739  13.7690435  50.4628845  21.7175960
  19.7509159  49.6298478  29.4224020  20.5372248  49.2117901  29.0714437
  20.0147863  50.5344570  29.5905668  19.9219236  55.0671328  24.1212677
  19.2865069  55.1405955  24.8333581  19.5916643  55.6564927  23.4431756
  25.1517586  49.5673711  30.3256998  25.8842758  48.9972928  30.5594828
  24.3956942  49.1795312  30.7663504  14.4262165  52.5290806  23.8173651
  14.3098423  51.8535709  24.4854736  14.5364425  52.0423180  23.0005804
  16.7693706  51.9900953  27.5220341  16.4051913  51.4631574  28.2333262
  17.6260822  51.5999422  27.3486826  22.6743007  43.2795285  34.7851607
  22.3426331  44.1490696  34.5612822  22.0788620  42.9631569  35.4645637
  16.4099193  47.0190853  22.5181689  16.5773595  47.8871089  22.8852160
  16.2196362  47.1818134  21.5942978  19.1674526  55.4807831  34.1847520
  18.8675249  56.3832870  34.0763327  18.8225586  55.2140015  35.0368672
  12.6187008  51.9321628  30.2184224  11.6937504  51.7997842  30.4261916
  12.8671421  52.7115848  30.7154166  22.5671670  47.9990372  31.8644957
  21.6588547  47.9305780  31.5703718  22.5159266  48.4762317  32.6926782
  16.3888414  49.4748510  23.5028356  16.2688039  49.9205561  24.3413836
  15.6941002  49.8233828  22.9441894   9.9795819  51.5754902  31.0528013
  10.1088200  51.8289381  31.9667425   9.2993270  52.1682610  30.7332668
  14.1495306  62.2452152  27.1518487  14.0719336  63.1959977  27.2306968
  13.5456949  61.8998024  27.8093414  16.6412536  49.4180017  39.8079854
  15.8645870  49.9773937  39.7982719  17.2803099  49.9036800  40.3294724
  24.4333316  46.2006810  33.6422831  23.7907696  46.4939343  32.9962625
  23.9288245  46.0859730  34.4476027  22.0873480  49.9469983  24.3308690
  22.9991336  50.1797370  24.1556388  21.5783127  50.5307027  23.7683769
  14.8958908  52.2265471  39.3697821  15.6373592  52.7650515  39.0932645
  14.1895893  52.8531759  39.5269373  20.3714248  54.3694611  37.9669983
  20.7797604  53.9277022  37.2224615  19.6491509  53.7947239  38.2204176
  16.7245318  49.3067218  35.3403540  17.5706513  49.7306631  35.4838189
  16.6643955  48.6500842  36.0342103  20.6943062  54.9295802  31.7222272
  20.0651925  55.0941516  31.0198339  20.3068724  55.3437411  32.4933236
  24.5732294  55.8650239  29.0766635  23.8883332  56.2449141  28.5263669
  24.6576143  56.4745566  29.8098583  19.8744763  46.9671586  36.9984713
  19.6305695  47.7213647  36.4618989  20.1504693  47.3456934  37.8331960
  21.8283226  53.5110199  35.6761979  22.0400121  54.1541958  34.9996360
  21.7812974  52.6772515  35.2083909  19.4309455  46.1228019  32.5798551
  18.5693934  46.4209273  32.8715289  19.4571889  46.3398418  31.6479584
  16.2471024  54.6670210  28.9872357  16.7109370  54.9457913  28.1976979
  15.9827822  53.7653654  28.8045447  13.1395105  54.2141691  31.9252120
  13.7096462  54.6428960  31.2869604  13.7303217  53.9324276  32.6236306
  15.1839910  50.7893362  25.7961922  15.8863953  51.2414406  26.2635848
  14.8520539  50.1477181  26.4241815  13.6320272  49.3805119  40.1713131
  13.0018932  50.0621400  40.4048528  13.5256360  49.2688200  39.2266269
   8.9265244  49.0476915  31.0979055   8.1364298  49.3034443  30.6219166
   9.4176491  49.8625253  31.2031096  22.9429054  56.3882154  33.8484336
  23.7646497  55.9862341  33.5667018  22.9391457  56.2850388  34.8000452
  10.8779989  49.4121494  28.0562532  10.0811153  49.5240188  28.5746028
  10.6505582  49.7508146  27.1903423  16.7085657  55.9366197  36.0045047
  16.7730090  56.3986604  36.8403218  15.9996581  55.3063562  36.1327356
   7.2102947  49.3007405  33.5294046   7.4610986  50.1854415  33.7951622
   7.7462495  49.1212007  32.7569138  31.0335047  52.7320902  30.1969308
  30.2798755  52.1628300  30.0413312  31.1682588  52.6983567  31.1439942
  16.4233675  57.6034305  25.8724027  16.2879350  58.4485840  26.3008875
  16.9643487  57.8053582  25.1089961  12.9101014  43.6825885  42.5338382
  12.5167960  43.1292083  43.2086026  13.7267155  43.9936463  42.9244900
   9.8763072  55.1209743  26.4451952  10.3887593  55.9152993  26.5957517
  10.5285785  54.4236033  26.3785554  11.6857957  58.2375499  28.5274705
  11.8624585  59.1593464  28.3395689  12.4814790  57.9233918  28.9569085
  15.8268975  45.0983764  40.1258639  16.5678689  45.6990917  40.0463101
  16.0586898  44.3561401  39.5676681  10.9710313  50.2840131  38.4036868
  10.8563829  49.3825388  38.7043967  10.1154831  50.5303828  38.0521685
  18.0502151  58.2257871  40.0024369  17.6066005  57.4394250  39.6845274
  18.7119365  58.4137022  39.3368260  12.8089272  59.7553673  34.5285048
  13.3596697  59.6270736  33.7562042  11.9700748  60.0548562  34.1779940
  20.1483389  58.5060671  38.0305770  20.1301865  59.3269552  37.5386039
  21.0703309  58.3814746  38.2555911  16.6056443  56.0204801  38.8729279
  17.1384780  55.2593089  38.6428587  16.0770524  55.7278452  39.6153433
  19.7726138  41.1264867  34.4022920  19.4290408  42.0166508  34.3262031
  20.1405101  40.9366524  33.5392505   7.8411989  53.4498397  27.2211523
   8.6787211  53.8595405  27.0045230   8.0190257  52.5097839  27.1911716
  19.7376421  51.1173478  22.9095356  19.2223045  51.8878082  23.1483743
  19.4653730  50.4438614  23.5328417  17.3223532  45.9623178  27.9680594
  16.4665128  45.5730029  27.7886233  17.7350484  46.0415139  27.1080379
  18.8522679  43.4969522  32.3672154  18.3487474  43.4599657  31.5539959
  19.1453286  44.4062264  32.4268810  15.0965565  43.5808251  31.3738335
  15.9618561  43.3851060  31.0144225  15.1643074  43.3518603  32.3007692
  24.7110695  53.8705832  24.8448529  23.9340138  53.5316992  24.4003691
  25.3902176  53.8758456  24.1703494  19.5262724  48.9900570  24.7355137
  19.2212860  49.3046719  25.5865280  20.4793166  49.0681990  24.7782470
  17.9709156  55.1490793  26.3848091  17.4430518  54.4143553  26.0721328
  17.4696659  55.9265469  26.1388059  22.9502002  53.3439814  31.5015137
  22.2925677  54.0339075  31.5895266  23.7542401  53.7336246  31.8449123
  12.7027884  45.8110459  28.7454702  13.2771636  45.5885641  28.0127895
  13.2898866  45.8799154  29.4983304  21.7607461  51.6984186  29.5519079
  22.2739343  52.3314178  30.0540788  22.4108685  51.0985382  29.1862439
  13.0297471  47.8414920  22.7650587  12.1934783  48.1789607  23.0859862
  12.8902240  47.7063900  21.8277724  15.0050551  42.6851708  27.4729772
  14.3514964  42.3700725  26.8486386  14.9631026  42.0627449  28.1989595
  16.1161756  52.9671003  19.3883064  15.2088818  52.7360257  19.5874213
  16.6132788  52.1708623  19.5757045  19.0229835  61.6768511  22.3079750
  18.3491534  61.9800207  22.9164708  19.4095657  62.4797591  21.9585207
  18.2388292  49.1733642  31.7977419  17.3210853  49.3948589  31.6399107
  18.6548435  49.2479952  30.9389127  19.0223340  50.5725058  26.9280100
  19.7695158  51.0846455  26.6187222  19.2914929  50.2509110  27.7884493
  17.2949990  53.0683598  23.9107054  16.3861209  52.7842631  24.0079524
  17.3245074  53.4882677  23.0510361  22.5269257  56.6790188  27.6798221
  22.0731584  55.8381098  27.7363412  21.8963224  57.3151586  28.0173002
  21.4702177  47.6082174  28.9098889  20.7324933  47.0959560  29.2409131
  21.7228950  47.1682555  28.0982166  20.9702196  58.5166684  28.6148040
  21.2625171  59.0771742  27.8960405  21.4800817  58.8095245  29.3701199
  21.5713804  40.3858426  29.5040658  21.8772681  39.5255789  29.2166573
  22.2966409  40.9776046  29.3039652   7.8638160  50.7889112  27.8922256
   7.6662560  50.1958473  27.1673323   7.3084824  50.4841323  28.6098195
  15.8434884  50.6812219  30.0116849  15.8983494  49.7286055  29.9359326
  15.0326086  50.8371658  30.4958148  16.9926078  54.6092342  21.2495132
  16.5545507  53.8928201  20.7900770  17.7336518  54.8368457  20.6880224
  13.7827244  49.2989279  27.7707228  12.9695109  49.5983449  28.1772420
  14.2786238  48.9044967  28.4881710  15.9335822  59.2947036  29.7041493
  15.8912000  59.5207882  28.7750025  16.8498520  59.0610410  29.8527294
  19.3801455  49.7631103  36.6022122  19.7350843  49.9902576  37.4616588
  20.0273587  50.0949480  35.9799377  25.1099192  52.8849539  27.3071451
  24.9717091  53.0751135  26.3792640  24.7535411  53.6468922  27.7639502
  13.2741318  46.8707634  33.3868463  13.9140698  46.7296393  32.6891426
  12.4418849  46.5842148  33.0107065  25.1368572  54.9526066  32.3182722
  25.5705079  54.8601355  33.1665777  25.8500153  54.9283566  31.6802738
  14.0501622  56.1710065  29.5003455  14.8442221  55.6760385  29.2986030
  13.3393315  55.6427928  29.1371161  18.8696467  58.5528160  33.8515823
  18.9233489  59.1219096  34.6193539  18.0011248  58.7230045  33.4869860
  10.3584386  50.3153146  25.5763208   9.4281974  50.2537602  25.7933170
  10.4541858  49.7929099  24.7799849  10.2769935  46.8407959  28.1641450
  10.5376752  47.7553292  28.0550610  11.0987107  46.3732402  28.3138063
  11.7494860  48.2545716  35.3340274  12.4217914  48.0463078  34.6852923
  10.9224647  48.0567802  34.8945507  25.9984121  54.9949767  34.8515608
  26.1920012  55.8995577  35.0974883  25.8984740  54.5357186  35.6854193
  17.6520432  44.8807657  37.3505935  17.0048347  45.5797607  37.2570412
  18.4221448  45.3143801  37.7182183  21.0599230  55.1456509  40.4256488
  20.9084737  54.9167061  39.5086572  21.0503910  56.1027111  40.4387834
  17.8284567  52.7188422  35.4102755  18.7576627  52.8699582  35.2371722
  17.4075597  52.8072443  34.5551401  16.6272898  56.7439087  33.1801293
  16.4883984  56.3757871  34.0527231  15.8387495  57.2586726  33.0085250
  17.2221050  61.8448183  24.5226829  17.3972806  61.3736226  25.3372452
  16.5353838  62.4713949  24.7508090  18.1778113  56.1220689  30.5690130
  17.8427946  56.0821459  31.4647780  17.6782059  55.4565405  30.0960541
  12.1522357  51.5288319  36.0942711  12.0142155  50.7968558  36.6954251
  13.0627281  51.4397219  35.8126899  21.1137305  53.4676724  20.8427190
  20.4966476  52.7423552  20.7460243  20.6453794  54.2286084  20.4994264
  14.7804658  51.2408279  35.5826391  15.4904277  50.6001471  35.5413010
  14.7373966  51.4921173  36.5052572  22.7691437  58.1775632  38.5032970
  22.7103983  57.4934852  37.8363553  23.1710955  58.9194622  38.0513596
  13.4933592  48.2273496  37.4022031  12.9570949  47.7764235  38.0543627
  12.9050301  48.3619405  36.6592495  11.7882136  64.9937546  31.2966689
  12.0278734  65.6256070  31.9745708  10.9451332  64.6425586  31.5832049
  12.9035851  47.6862148  19.9648494  12.0265317  47.5650949  19.6010741
  13.3793604  46.8948226  19.7127383  22.7708844  56.1415216  36.7346950
  21.8835623  55.8041138  36.8573349  23.3407395  55.4098247  36.9715715
   4.4237991  52.4739308  30.0590001   5.1109031  52.1601038  29.4711017
   4.2686120  53.3780672  29.7857253   9.2272713  47.3629504  34.4875025
   9.1430902  46.7555174  33.7525435   8.4055420  47.8538522  34.4884521
  16.3009997  60.8016668  33.7008193  16.2280169  61.6071640  34.2127498
  15.8587391  61.0008634  32.8756215  16.0899777  60.0388438  27.2111015
  15.3067299  60.5810118  27.3049239  16.7892522  60.5562418  27.6105256
  19.3996427  45.8483068  29.8545220  19.8965127  45.0953030  29.5346290
  18.6283409  45.8847384  29.2888429  27.2526185  51.5523433  31.4963512
  27.2416061  52.4348149  31.1257445  26.3843564  51.1994984  31.3018049
  18.7608681  60.7003502  35.8566352  19.4736653  61.3350967  35.7842253
  18.2698710  60.7967368  35.0406354  20.4826208  54.6054755  27.4283644
  19.5482487  54.7256217  27.2588348  20.6602876  53.7027222  27.1643653
  15.9831396  47.9900451  29.5816905  15.6129183  47.4371491  30.2697810
  16.4790488  47.3858584  29.0291905  23.8698759  50.4472074  27.9633678
  24.3359211  51.2800066  27.8893980  24.3206260  49.9817056  28.6678936
  13.8120594  58.4497946  36.6771923  14.5130054  59.0834429  36.8301317
  13.3415709  58.7912677  35.9167562  21.9374990  56.7915895  24.9619830
  22.2134834  56.6772490  25.8713704  21.0679489  56.3933380  24.9232003
  21.8415422  42.8152661  32.0024579  20.9278502  43.0456888  32.1706786
  22.2708523  42.8991105  32.8538611  21.6121880  51.0042553  34.5024473
  20.9593331  51.2518461  33.8476926  21.9902260  50.1906691  34.1686950
  18.5729054  61.0402246  28.6052643  18.7551449  60.2223902  29.0680396
  19.3962040  61.2569939  28.1677533  18.9071220  59.9670431  25.8667692
  19.4358986  59.4562886  25.2537854  19.1699439  59.6512962  26.7313225
  17.6609453  51.7462364  40.9890510  16.9850091  51.6456494  41.6592885
  18.4837087  51.5901578  41.4526507   9.4088313  57.9834301  33.6103025
   9.9941749  57.2377989  33.7430930   9.2113151  58.2938257  34.4939689
  12.2626968  61.0185548  28.6265468  11.5937343  61.5031676  28.1429508
  12.1239837  61.2654769  29.5408846   4.0005967  50.5539901  32.3307469
   4.0390067  50.0203492  33.1244587   3.4946260  50.0275106  31.7118446
  16.4032236  63.0529292  35.2248126  16.9550544  63.2160913  35.9897211
  16.7438430  63.6433729  34.5528151  11.3796730  45.4004441  35.8270011
  11.4438056  46.2619272  35.4147409  11.3163850  44.7878443  35.0942369
  10.8549002  47.4727574  39.4743045  11.4821041  47.0904651  40.0880569
   9.9976921  47.2541776  39.8398738  21.2543111  57.8790549  41.0796781
  21.7983015  58.4920507  40.5851735  20.6729956  58.4370128  41.5963794
   7.6314545  49.2804003  25.4061400   7.9267986  48.3714682  25.3528454
   6.7302581  49.2591743  25.0842402  19.5400624  61.0011267  32.2111808
  19.4151763  60.2001007  31.7022754  20.1979715  61.4957461  31.7225778
  11.1608792  47.3560000  31.3888949  10.4395378  47.9695967  31.2496422
  11.9502048  47.8917765  31.3105594  21.6035532  58.8020287  33.8391358
  20.6565868  58.6825638  33.7669685  21.9518305  57.9142785  33.9217620
  13.9635105  44.6914426  37.6629600  14.4869507  44.9376723  38.4255910
  13.7447439  45.5234461  37.2432738   9.3602386  46.9618101  25.5300725
   9.0315093  46.0815480  25.3475831   9.7141757  46.9065769  26.4177114
  18.6081965  58.5973003  30.0395711  18.4606928  57.6689711  30.2203281
  19.4335459  58.6193094  29.5552786  12.4744210  47.2491071  25.8976203
  12.8140282  47.7776992  25.1754811  12.9216330  47.5871477  26.6734769
  22.2116087  59.4201562  31.1260583  23.1362635  59.2144424  30.9885035
  22.0431391  59.1717963  32.0349925  15.1687650  45.6328121  35.3479271
  14.8284471  44.8335934  35.7499951  14.4626657  45.9329832  34.7756104
  15.8204122  42.7177434  33.8006594  16.6430192  42.2437912  33.6785484
  16.0642186  43.4967917  34.3005280  14.4612357  45.7465692  24.0969496
  15.1820719  46.1246945  23.5933212  13.8377661  46.4654569  24.2004473
  18.6043480  46.4510841  25.0327828  18.8207094  47.3335479  24.7316656
  18.1237547  46.0597055  24.3033470  13.3442701  49.4096554  31.6098572
  13.1987282  49.7236857  32.5022854  12.8667905  50.0281455  31.0569471
  15.2039084  46.3999102  31.6579462  15.1900653  45.5040196  31.3211760
  15.9211512  46.4069766  32.2917748  17.0565215  46.8336443  33.7032589
  16.7982992  47.7553513  33.7016920  16.5250255  46.4366877  34.3933054
  22.0011403  59.9387230  26.4822675  22.1748281  59.3733652  25.7296527
  22.4940295  60.7388125  26.3002165   7.8188363  51.9501899  34.5486234
   7.2741831  52.7261707  34.6806508   8.6967713  52.2972703  34.3905355
  14.6075980  45.2813483  26.9267032  14.7291891  44.3530129  27.1257920
  14.3178022  45.2952169  26.0145348  17.4767170  42.9668393  30.0633752
  17.4988867  43.0307726  29.1085732  17.8935229  42.1272902  30.2574258
  27.8550795  52.7023653  28.1012975  28.2981941  51.9530978  27.7032098
  26.9777305  52.6933789  27.7186707  22.9886576  59.2553994  23.5819573
  23.6837480  59.8760687  23.8006888  23.3309726  58.4049345  23.8571951
   8.6054385  51.0771795  37.4416390   7.8636121  51.2254430  38.0281021
   8.2847129  51.3380061  36.5783140  24.8877999  56.7053700  25.1106904
  25.4129323  57.0440972  24.3856224  24.8000352  55.7700715  24.9270038
  16.5498048  60.6187773  37.2396781  16.8585174  60.3736920  38.1119480
  17.3473530  60.8234412  36.7515651  16.5718660  62.7725683  29.4702157
  16.1323650  62.2802062  30.1635014  17.3226777  62.2298651  29.2294232
   9.0510999  58.9637224  29.4726785   9.8769019  58.6640996  29.0925429
   8.7005051  58.1944846  29.9216574  14.0192532  58.3163692  31.5424459
  13.3972541  57.6534397  31.2426687  14.6897399  58.3424824  30.8598106
   7.2519604  56.8823550  30.4315719   6.4151512  56.4545725  30.2499720
   7.2243249  57.0755994  31.3686510  14.0917059  46.7945480  41.1356965
  14.1405215  47.6707603  40.7534734  14.6339574  46.2522873  40.5628608
  24.5771905  57.3386603  40.4158102  23.7867449  57.3210742  39.8762601
  24.3405260  57.8774897  41.1707138  24.6969780  54.1879070  37.7290830
  24.7467785  54.0229077  38.6706353  24.5883703  53.3206329  37.3388711
  13.5806039  56.8667615  25.0182919  13.7294159  57.5503080  24.3649592
  14.3872482  56.8472705  25.5332375  21.9873543  50.1709998  39.0450137
  22.8883405  50.0316462  38.7534135  22.0621517  50.3364452  39.9848315
  16.3216348  47.5476852  37.8903323  15.4519657  47.8410418  37.6185912
  16.5575828  48.1317297  38.6110587  26.1987977  56.6076011  37.9732852
  25.9072785  56.9705992  38.8096313  25.5860108  55.8943019  37.7946184
  27.3983659  54.1728891  30.4935422  28.2330551  54.6118695  30.6572982
  27.5342788  53.6967544  29.6743668  24.4475165  51.7308626  36.4412910
  24.9229287  51.9236272  35.6331761  23.5240731  51.7867812  36.1956294
  11.3358672  52.8932793  26.0243988  11.0904714  51.9895123  26.2224198
  11.5054586  52.8949943  25.0823466  19.0255382  43.7656469  35.4068744
  19.5437326  44.5017496  35.0815232  18.6710514  44.0720463  36.2415503
  10.6054319  48.6261151  23.5230150   9.9123564  48.7005506  22.8670186
  10.3606071  47.8621494  24.0451667  19.2767976  40.1856752  30.9269640
  19.5569730  39.5179941  31.5530067  20.0618583  40.3785847  30.4144304
  17.0801444  59.3615746  22.4894667  16.5075411  59.9805933  22.0365139
  17.6534238  59.9115107  23.0234589  23.1476834  48.6074386  34.6741215
  24.0994257  48.7072484  34.6953440  22.9780285  47.8152654  35.1839300
  21.1691214  45.6929969  34.8600616  20.5741146  45.9734982  34.1647105
  20.8840910  46.1823870  35.6317358  20.2998704  59.6452896  23.6203249
  21.2329377  59.5798458  23.8236124  20.2121917  60.4809163  23.1617782
  22.9286721  58.9618766  20.5807197  22.8500352  58.6278630  21.4742954
  23.7496388  59.4540534  20.5798669  25.6264912  51.8280506  33.7883515
  25.5941232  50.8896506  33.9743199  26.2365536  51.9064542  33.0549340
  17.4648243  50.6976559  19.8310719  18.4107348  50.5682767  19.8999137
  17.0862488  49.9591220  20.3080147  25.7759400  48.6191549  33.8341798
  25.2598449  47.8350006  33.6471727  26.6599349  48.2910266  33.9988318
  23.4370127  42.3632565  29.7937611  23.2394949  42.0547653  30.6780943
  24.0469833  43.0894203  29.9235541  31.4441462  52.8896512  32.9289552
  32.1744850  52.6281801  33.4897255  30.8348407  52.1525234  32.9691620
  29.5256759  51.0304375  33.5264003  28.7989923  50.8960340  32.9180495
  29.1104046  51.3381204  34.3320721  17.3486935  54.7494305  41.2911376
  18.2689945  54.9272904  41.4851423  17.3136518  53.8050350  41.1391075
  15.6491160  48.6226535  19.7665604  14.7422615  48.3259648  19.8428318
  15.9267141  48.3256353  18.8999891   6.5669100  49.9432898  30.2164651
   6.2471885  49.0898207  29.9239025   6.0202529  50.1581476  30.9722618
  10.3449008  52.6595339  33.9334157  10.5635018  53.5912447  33.9522191
  10.7574782  52.3003314  34.7188961  17.2653226  43.1663425  25.9209846
  16.4553954  42.8210510  26.2965092  17.9537643  42.8570968  26.5097457
  19.1943774  42.2441471  27.5434142  19.7474813  42.6636925  28.2024165
  19.4313860  41.3177220  27.5857098  15.2176873  48.2328545  43.3236906
  15.1173600  49.1822902  43.2548997  14.9998415  47.9046784  42.4512976
  14.4189945  45.4813470  19.9077584  15.2809109  45.8068368  20.1673401
  14.6040289  44.6944966  19.3950649   6.4357360  53.5635810  32.1857772
   5.7420832  53.1489763  31.6727727   7.1830351  53.6056346  31.5891191
  22.5722581  44.3541997  27.0512807  21.9921250  45.0126801  26.6690859
  22.3058514  43.5319341  26.6400224  21.0226147  43.7547054  29.2534127
  21.5225926  43.8663589  28.4448446  21.6661755  43.4508107  29.8934935
  15.0808143  51.6625684  42.1401968  14.5975225  52.4626044  42.3465857
  15.1669082  51.6733629  41.1869412   8.3494103  53.4954064  30.0623787
   8.3264791  53.5941751  29.1105670   8.6594739  54.3419214  30.3840953
  11.0081481  55.5530219  34.1770402  11.9624734  55.5214161  34.1100333
  10.8094004  55.0920842  34.9920628  11.5980863  54.1231335  36.7441199
  12.4173752  54.6175413  36.7676037  11.8717671  53.2063303  36.7158767
  21.3547459  46.5142087  26.1069155  20.4673314  46.7991738  25.8889350
  21.7701448  46.3535850  25.2596432  24.7061995  46.5388608  29.8223494
  25.4822385  47.0285060  30.0948111  23.9810129  46.9646662  30.2795364
  27.1434554  47.2516227  30.8797435  27.7379045  47.0111963  30.1690743
  27.2161138  46.5323358  31.5070971   9.3631710  61.0949838  31.1940600
   9.2286177  60.3350239  30.6278598   8.9463772  61.8190738  30.7269388
  20.4990673  56.2786762  20.2017175  21.2026523  56.4836764  20.8174830
  19.7753321  56.8463524  20.4666258  21.3288483  52.0296623  26.3219445
  21.2723684  52.4865174  25.4827077  21.8816825  51.2687307  26.1442288
  25.1393289  47.8186355  27.1469565  24.8830223  47.4182990  27.9777772
  24.5146157  48.5330149  27.0219704  29.4505627  50.5582428  29.6540856
  28.8905185  50.6275617  30.4272418  28.8449130  50.3823413  28.9340352
  12.5200835  61.9919155  31.4059042  12.4033220  62.9364588  31.3037732
  11.6993282  61.6892717  31.7944841  22.4077370  56.7169291  22.2515635
  23.2422974  56.2850489  22.0693110  22.2461713  56.5451305  23.1792529
  22.0623262  53.2201404  23.6171974  22.0072066  53.0545676  22.6760418
  21.4369317  53.9277437  23.7734164   6.8515777  48.4569469  37.4433396
   7.4974641  47.9468423  37.9320622   6.6432928  49.1938150  38.0176822
  19.3769169  55.5250316  42.9425537  20.2460329  55.6990968  42.5812172
  18.8975921  56.3444733  42.8201266  15.3719388  42.7209513  23.1957293
  15.3598057  43.6651353  23.3525563  16.2642809  42.5379659  22.9016754
  13.5455350  62.6447417  34.6214971  14.4482596  62.6771027  34.9381466
  13.3192720  61.7147868  34.6361306  15.3008952  61.3978404  31.2825049
  14.3504583  61.3980265  31.1689422  15.6041438  60.6511138  30.7661084
  11.1913268  45.6037086  41.5408411  12.0544730  45.2473890  41.7511735
  10.6178679  45.2650980  42.2283815  31.0361645  67.2338942  32.3470812
  31.6740055  67.1145689  31.6434152  30.9182488  68.1819786  32.4058764
  27.8451351  67.1866370  32.2832336  27.5069863  67.0707435  31.3952871
  28.7141120  66.7857535  32.2633342  23.7038167  69.0401846  28.2729227
  23.1403032  68.9491783  27.5045515  23.5890562  68.2201751  28.7531720
  28.3271134  68.3401222  38.2418542  28.3159775  67.9454020  37.3699046
  28.4891774  67.6067294  38.8352313  21.2502599  70.5353038  31.1113448
  22.0423891  70.1943863  30.6959747  21.4899249  70.6448013  32.0315601
  29.2837726  72.7072814  23.5843692  28.6325706  73.2926895  23.1977706
  30.0782089  73.2379009  23.6438730  23.2093353  69.7961951  23.9830827
  23.9824229  69.2490938  23.8443702  23.5618752  70.6606201  24.1945288
  25.0478395  71.1238334  37.1897726  24.7568261  72.0283964  37.0744392
  25.6835380  71.1654861  37.9041795  25.9734602  68.5015182  33.7799086
  26.5698175  68.2771205  33.0656048  26.0309574  67.7599928  34.3824533
  25.5459631  65.9554617  21.6149276  25.7985151  65.4336139  20.8532739
  24.6084190  65.7920763  21.7175960  30.5902914  64.9590396  29.4224020
  31.3766003  64.5409819  29.0714437  30.8541618  65.8636488  29.5905668
  30.7612991  70.3963246  24.1212677  30.1258824  70.4697873  24.8333581
  30.4310397  70.9856845  23.4431756  25.2655919  67.8582723  23.8173651
  25.1492178  67.1827627  24.4854736  25.3758179  67.3715097  23.0005804
  27.6087460  67.3192870  27.5220341  27.2445668  66.7923491  28.2333262
  28.4654576  66.9291340  27.3486826  27.2492947  62.3482770  22.5181689
  27.4167350  63.2163007  22.8852160  27.0590116  62.5110052  21.5942978
  30.0068281  70.8099749  34.1847520  29.7069004  71.7124788  34.0763327
  29.6619340  70.5431932  35.0368672  23.4580762  67.2613546  30.2184224
  22.5331259  67.1289760  30.4261916  23.7065175  68.0407765  30.7154166
  33.4065424  63.3282289  31.8644957  32.4982302  63.2597698  31.5703718
  33.3553020  63.8054234  32.6926782  27.2282168  64.8040428  23.5028356
  27.1081793  65.2497478  24.3413836  26.5334757  65.1525745  22.9441894
  20.8189573  66.9046819  31.0528013  20.9481954  67.1581298  31.9667425
  20.1387024  67.4974527  30.7332668  24.9889060  77.5744069  27.1518487
  24.9113090  78.5251895  27.2306968  24.3850704  77.2289942  27.8093414
  27.4806290  64.7471935  39.8079854  26.7039624  65.3065855  39.7982719
  28.1196853  65.2328718  40.3294724  35.2727071  61.5298728  33.6422831
  34.6301451  61.8231261  32.9962625  34.7681999  61.4151648  34.4476027
  32.9267234  65.2761901  24.3308690  33.8385091  65.5089288  24.1556388
  32.4176881  65.8598945  23.7683769  25.7352662  67.5557388  39.3697821
  26.4767347  68.0942432  39.0932645  25.0289648  68.1823677  39.5269373
  31.2108002  69.6986529  37.9669983  31.6191358  69.2568939  37.2224615
  30.4885264  69.1239156  38.2204176  27.5639072  64.6359135  35.3403540
  28.4100267  65.0598549  35.4838189  27.5037710  63.9792760  36.0342103
  31.5336817  70.2587719  31.7222272  30.9045679  70.4233433  31.0198339
  31.1462479  70.6729329  32.4933236  35.4126049  71.1942157  29.0766635
  34.7277087  71.5741059  28.5263669  35.4969898  71.8037484  29.8098583
  30.7138517  62.2963504  36.9984713  30.4699449  63.0505564  36.4618989
  30.9898448  62.6748851  37.8331960  32.6676980  68.8402116  35.6761979
  32.8793875  69.4833876  34.9996360  32.6206728  68.0064433  35.2083909
  30.2703209  61.4519937  32.5798551  29.4087688  61.7501190  32.8715289
  30.2965644  61.6690336  31.6479584  27.0864779  69.9962127  28.9872357
  27.5503124  70.2749830  28.1976979  26.8221577  69.0945572  28.8045447
  23.9788860  69.5433609  31.9252120  24.5490217  69.9720877  31.2869604
  24.5696972  69.2616194  32.6236306  26.0233665  66.1185280  25.7961922
  26.7257708  66.5706323  26.2635848  25.6914293  65.4769099  26.4241815
  24.4714026  64.7097036  40.1713131  23.8412687  65.3913317  40.4048528
  24.3650114  64.5980118  39.2266269  19.7658999  64.3768832  31.0979055
  18.9758053  64.6326361  30.6219166  20.2570246  65.1917170  31.2031096
  33.7822808  71.7174072  33.8484336  34.6040252  71.3154259  33.5667018
  33.7785211  71.6142306  34.8000452  21.7173744  64.7413412  28.0562532
  20.9204907  64.8532106  28.5746028  21.4899336  65.0800064  27.1903423
  27.5479412  71.2658115  36.0045047  27.6123844  71.7278522  36.8403218
  26.8390335  70.6355480  36.1327356  18.0496702  64.6299323  33.5294046
  18.3004740  65.5146333  33.7951622  18.5856250  64.4503924  32.7569138
  27.2627429  72.9326222  25.8724027  27.1273104  73.7777758  26.3008875
  27.8037242  73.1345500  25.1089961  23.7494769  59.0117802  42.5338382
  23.3561714  58.4584001  43.2086026  24.5660909  59.3228381  42.9244900
  20.7156827  70.4501660  26.4451952  21.2281347  71.2444911  26.5957517
  21.3679539  69.7527951  26.3785554  22.5251711  73.5667417  28.5274705
  22.7018340  74.4885381  28.3395689  23.3208545  73.2525836  28.9569085
  26.6662730  60.4275681  40.1258639  27.4072443  61.0282834  40.0463101
  26.8980653  59.6853319  39.5676681  21.8104068  65.6132049  38.4036868
  21.6957583  64.7117306  38.7043967  20.9548586  65.8595745  38.0521685
  28.8895906  73.5549789  40.0024369  28.4459760  72.7686167  39.6845274
  29.5513119  73.7428939  39.3368260  23.6483027  75.0845591  34.5285048
  24.1990452  74.9562654  33.7562042  22.8094503  75.3840480  34.1779940
  30.9877144  73.8352589  38.0305770  30.9695619  74.6561470  37.5386039
  31.9097064  73.7106664  38.2555911  27.4450198  71.3496718  38.8729279
  27.9778535  70.5885007  38.6428587  26.9164279  71.0570370  39.6153433
  30.6119893  56.4556784  34.4022920  30.2684162  57.3458426  34.3262031
  30.9798855  56.2658442  33.5392505  18.6805743  68.7790315  27.2211523
  19.5180965  69.1887323  27.0045230  18.8584011  67.8389757  27.1911716
  30.5770176  66.4465395  22.9095356  30.0616799  67.2170000  23.1483743
  30.3047484  65.7730532  23.5328417  28.1617287  61.2915096  27.9680594
  27.3058883  60.9021947  27.7886233  28.5744238  61.3707057  27.1080379
  29.6916433  58.8261439  32.3672154  29.1881229  58.7891575  31.5539959
  29.9847040  59.7354182  32.4268810  25.9359319  58.9100169  31.3738335
  26.8012316  58.7142978  31.0144225  26.0036828  58.6810521  32.3007692
  35.5504450  69.1997750  24.8448529  34.7733892  68.8608910  24.4003691
  36.2295931  69.2050373  24.1703494  30.3656479  64.3192487  24.7355137
  30.0606614  64.6338637  25.5865280  31.3186921  64.3973907  24.7782470
  28.8102911  70.4782711  26.3848091  28.2824272  69.7435470  26.0721328
  28.3090413  71.2557387  26.1388059  33.7895757  68.6731731  31.5015137
  33.1319431  69.3630993  31.5895266  34.5936156  69.0628163  31.8449123
  23.5421638  61.1402377  28.7454702  24.1165390  60.9177559  28.0127895
  24.1292621  61.2091072  29.4983304  32.6001215  67.0276104  29.5519079
  33.1133097  67.6606096  30.0540788  33.2502439  66.4277299  29.1862439
  23.8691225  63.1706838  22.7650587  23.0328538  63.5081525  23.0859862
  23.7295995  63.0355818  21.8277724  25.8444306  58.0143626  27.4729772
  25.1908718  57.6992643  26.8486386  25.8024780  57.3919366  28.1989595
  26.9555511  68.2962921  19.3883064  26.0482572  68.0652175  19.5874213
  27.4526543  67.5000540  19.5757045  29.8623590  77.0060428  22.3079750
  29.1885288  77.3092125  22.9164708  30.2489412  77.8089509  21.9585207
  29.0782046  64.5025560  31.7977419  28.1604608  64.7240507  31.6399107
  29.4942190  64.5771870  30.9389127  29.8617094  65.9016975  26.9280100
  30.6088913  66.4138372  26.6187222  30.1308684  65.5801028  27.7884493
  28.1343744  68.3975516  23.9107054  27.2254963  68.1134549  24.0079524
  28.1638828  68.8174594  23.0510361  33.3663012  72.0082105  27.6798221
  32.9125339  71.1673015  27.7363412  32.7356978  72.6443504  28.0173002
  32.3095931  62.9374091  28.9098889  31.5718688  62.4251478  29.2409131
  32.5622705  62.4974473  28.0982166  31.8095951  73.8458602  28.6148040
  32.1018925  74.4063659  27.8960405  32.3194571  74.1387163  29.3701199
  32.4107558  55.7150343  29.5040658  32.7166435  54.8547707  29.2166573
  33.1360163  56.3067964  29.3039652  18.7031915  66.1181030  27.8922256
  18.5056314  65.5250391  27.1673323  18.1478579  65.8133240  28.6098195
  26.6828638  66.0104137  30.0116849  26.7377248  65.0577973  29.9359326
  25.8719840  66.1663576  30.4958148  27.8319832  69.9384260  21.2495132
  27.3939262  69.2220119  20.7900770  28.5730273  70.1660374  20.6880224
  24.6220998  64.6281196  27.7707228  23.8088864  64.9275367  28.1772420
  25.1179992  64.2336885  28.4881710  26.7729576  74.6238953  29.7041493
  26.7305755  74.8499800  28.7750025  27.6892275  74.3902328  29.8527294
  30.2195210  65.0923021  36.6022122  30.5744598  65.3194494  37.4616588
  30.8667341  65.4241398  35.9799377  35.9492947  68.2141457  27.3071451
  35.8110845  68.4043053  26.3792640  35.5929166  68.9760839  27.7639502
  24.1135073  62.1999552  33.3868463  24.7534452  62.0588311  32.6891426
  23.2812603  61.9134065  33.0107065  35.9762326  70.2817984  32.3182722
  36.4098833  70.1893273  33.1665777  36.6893907  70.2575484  31.6802738
  24.8895377  71.5001982  29.5003455  25.6835975  71.0052302  29.2986030
  24.1787069  70.9719845  29.1371161  29.7090221  73.8820078  33.8515823
  29.7627244  74.4511014  34.6193539  28.8405003  74.0521963  33.4869860
  21.1978140  65.6445064  25.5763208  20.2675728  65.5829519  25.7933170
  21.2935612  65.1221017  24.7799849  21.1163689  62.1699877  28.1641450
  21.3770507  63.0845210  28.0550610  21.9380862  61.7024319  28.3138063
  22.5888615  63.5837634  35.3340274  23.2611668  63.3754996  34.6852923
  21.7618401  63.3859720  34.8945507  36.8377876  70.3241684  34.8515608
  37.0313766  71.2287495  35.0974883  36.7378494  69.8649103  35.6854193
  28.4914187  60.2099575  37.3505935  27.8442102  60.9089525  37.2570412
  29.2615202  60.6435719  37.7182183  31.8992985  70.4748427  40.4256488
  31.7478491  70.2458979  39.5086572  31.8897664  71.4319028  40.4387834
  28.6678321  68.0480340  35.4102755  29.5970381  68.1991499  35.2371722
  28.2469351  68.1364361  34.5551401  27.4666653  72.0731004  33.1801293
  27.3277739  71.7049789  34.0527231  26.6781249  72.5878644  33.0085250
  28.0614805  77.1740101  24.5226829  28.2366560  76.7028144  25.3372452
  27.3747593  77.8005867  24.7508090  29.0171868  71.4512607  30.5690130
  28.6821701  71.4113377  31.4647780  28.5175814  70.7857323  30.0960541
  22.9916112  66.8580237  36.0942711  22.8535910  66.1260476  36.6954251
  23.9021035  66.7689137  35.8126899  31.9531060  68.7968641  20.8427190
  31.3360230  68.0715469  20.7460243  31.4847548  69.5578002  20.4994264
  25.6198413  66.5700196  35.5826391  26.3298031  65.9293388  35.5413010
  25.5767721  66.8213091  36.5052572  33.6085191  73.5067550  38.5032970
  33.5497737  72.8226770  37.8363553  34.0104710  74.2486540  38.0513596
  24.3327347  63.5565414  37.4022031  23.7964704  63.1056153  38.0543627
  23.7444055  63.6911323  36.6592495  22.6275890  80.3229463  31.2966689
  22.8672488  80.9547988  31.9745708  21.7845087  79.9717503  31.5832049
  23.7429606  63.0154066  19.9648494  22.8659072  62.8942866  19.6010741
  24.2187359  62.2240144  19.7127383  33.6102599  71.4707134  36.7346950
  32.7229377  71.1333055  36.8573349  34.1801150  70.7390165  36.9715715
  15.2631746  67.8031225  30.0590001  15.9502785  67.4892955  29.4711017
  15.1079874  68.7072590  29.7857253  20.0666468  62.6921422  34.4875025
  19.9824657  62.0847091  33.7525435  19.2449174  63.1830440  34.4884521
  27.1403752  76.1308586  33.7008193  27.0673923  76.9363557  34.2127498
  26.6981145  76.3300552  32.8756215  26.9293532  75.3680356  27.2111015
  26.1461053  75.9102036  27.3049239  27.6286277  75.8854336  27.6105256
  30.2390182  61.1774985  29.8545220  30.7358881  60.4244948  29.5346290
  29.4677163  61.2139302  29.2888429  29.6002435  76.0295420  35.8566352
  30.3130408  76.6642885  35.7842253  29.1092464  76.1259286  35.0406354
  31.3219962  69.9346673  27.4283644  30.3876241  70.0548135  27.2588348
  31.4996631  69.0319139  27.1643653  26.8225150  63.3192368  29.5816905
  26.4522938  62.7663409  30.2697810  27.3184243  62.7150502  29.0291905
  34.7092514  65.7763992  27.9633678  35.1752966  66.6091983  27.8893980
  35.1600014  65.3108973  28.6678936  24.6514349  73.7789863  36.6771923
  25.3523808  74.4126346  36.8301317  24.1809464  74.1204595  35.9167562
  32.7768745  72.1207813  24.9619830  33.0528589  72.0064408  25.8713704
  31.9073244  71.7225298  24.9232003  32.6809176  58.1444579  32.0024579
  31.7672256  58.3748806  32.1706786  33.1102278  58.2283023  32.8538611
  32.4515635  66.3334471  34.5024473  31.7987085  66.5810378  33.8476926
  32.8296015  65.5198609  34.1686950  29.4122809  76.3694164  28.6052643
  29.5945203  75.5515820  29.0680396  30.2355795  76.5861856  28.1677533
  29.7464974  75.2962349  25.8667692  30.2752741  74.7854804  25.2537854
  30.0093194  74.9804879  26.7313225  28.5003208  67.0754282  40.9890510
  27.8243845  66.9748411  41.6592885  29.3230842  66.9193496  41.4526507
  20.2482067  73.3126218  33.6103025  20.8335504  72.5669906  33.7430930
  20.0506906  73.6230175  34.4939689  23.1020722  76.3477466  28.6265468
  22.4331098  76.8323593  28.1429508  22.9633592  76.5946686  29.5408846
  14.8399722  65.8831819  32.3307469  14.8783821  65.3495409  33.1244587
  14.3340015  65.3567024  31.7118446  27.2425991  78.3821209  35.2248126
  27.7944299  78.5452831  35.9897211  27.5832184  78.9725647  34.5528151
  22.2190484  60.7296359  35.8270011  22.2831811  61.5911190  35.4147409
  22.1557604  60.1170361  35.0942369  21.6942757  62.8019492  39.4743045
  22.3214795  62.4196569  40.0880569  20.8370675  62.5833694  39.8398738
  32.0936865  73.2082467  41.0796781  32.6376769  73.8212425  40.5851735
  31.5123710  73.7662045  41.5963794  18.4708299  64.6095921  25.4061400
  18.7661740  63.7006599  25.3528454  17.5696335  64.5883660  25.0842402
  30.3794378  76.3303185  32.2111808  30.2545518  75.5292925  31.7022754
  31.0373469  76.8249378  31.7225778  22.0002546  62.6851917  31.3888949
  21.2789132  63.2987885  31.2496422  22.7895802  63.2209682  31.3105594
  32.4429287  74.1312205  33.8391358  31.4959622  74.0117556  33.7669685
  32.7912060  73.2434703  33.9217620  24.8028860  60.0206344  37.6629600
  25.3263262  60.2668640  38.4255910  24.5841193  60.8526379  37.2432738
  20.1996141  62.2910018  25.5300725  19.8708847  61.4107397  25.3475831
  20.5535512  62.2357687  26.4177114  29.4475720  73.9264921  30.0395711
  29.3000682  72.9981629  30.2203281  30.2729213  73.9485012  29.5552786
  23.3137964  62.5782988  25.8976203  23.6534037  63.1068909  25.1754811
  23.7610085  62.9163394  26.6734769  33.0509842  74.7493480  31.1260583
  33.9756389  74.5436341  30.9885035  32.8825145  74.5009881  32.0349925
  26.0081405  60.9620039  35.3479271  25.6678225  60.1627852  35.7499951
  25.3020411  61.2621750  34.7756104  26.6597877  58.0469351  33.8006594
  27.4823946  57.5729830  33.6785484  26.9035940  58.8259835  34.3005280
  25.3006111  61.0757610  24.0969496  26.0214474  61.4538863  23.5933212
  24.6771415  61.7946487  24.2004473  29.4437234  61.7802759  25.0327828
  29.6600849  62.6627397  24.7316656  28.9631301  61.3888972  24.3033470
  24.1836456  64.7388472  31.6098572  24.0381036  65.0528775  32.5022854
  23.7061659  65.3573372  31.0569471  26.0432838  61.7291020  31.6579462
  26.0294407  60.8332113  31.3211760  26.7605267  61.7361684  32.2917748
  27.8958969  62.1628360  33.7032589  27.6376747  63.0845431  33.7016920
  27.3644009  61.7658795  34.3933054  32.8405158  75.2679147  26.4822675
  33.0142035  74.7025570  25.7296527  33.3334049  76.0680042  26.3002165
  18.6582118  67.2793816  34.5486234  18.1135586  68.0553624  34.6806508
  19.5361468  67.6264621  34.3905355  25.4469734  60.6105400  26.9267032
  25.5685646  59.6822046  27.1257920  25.1571777  60.6244086  26.0145348
  28.3160925  58.2960311  30.0633752  28.3382622  58.3599644  29.1085732
  28.7328984  57.4564819  30.2574258  33.8280330  74.5845912  23.5819573
  34.5231235  75.2052604  23.8006888  34.1703480  73.7341263  23.8571951
  19.4448140  66.4063713  37.4416390  18.7029876  66.5546348  38.0281021
  19.1240884  66.6671978  36.5783140  35.7271753  72.0345617  25.1106904
  36.2523078  72.3732890  24.3856224  35.6394106  71.0992633  24.9270038
  27.3891802  75.9479691  37.2396781  27.6978929  75.7028838  38.1119480
  28.1867284  76.1526329  36.7515651  27.4112414  78.1017601  29.4702157
  26.9717405  77.6093979  30.1635014  28.1620531  77.5590568  29.2294232
  19.8904753  74.2929141  29.4726785  20.7162773  73.9932913  29.0925429
  19.5398805  73.5236764  29.9216574  24.8586286  73.6455610  31.5424459
  24.2366296  72.9826315  31.2426687  25.5291153  73.6716742  30.8598106
  18.0913358  72.2115468  30.4315719  17.2545267  71.7837642  30.2499720
  18.0637004  72.4047911  31.3686510  24.9310814  62.1237398  41.1356965
  24.9798969  62.9999520  40.7534734  25.4733328  61.5814791  40.5628608
  24.4199793  72.1959533  25.0182919  24.5687914  72.8794997  24.3649592
  25.2266237  72.1764623  25.5332375  27.1610102  62.8768770  37.8903323
  26.2913412  63.1702336  37.6185912  27.3969583  63.4609215  38.6110587
  37.0381731  71.9367929  37.9732852  36.7466540  72.2997909  38.8096313
  36.4253863  71.2234937  37.7946184  35.2868920  67.0600543  36.4412910
  35.7623041  67.2528190  35.6331761  34.3634485  67.1159729  36.1956294
  22.1752426  68.2224711  26.0243988  21.9298468  67.3187041  26.2224198
  22.3448341  68.2241861  25.0823466  29.8649136  59.0948387  35.4068744
  30.3831080  59.8309414  35.0815232  29.5104269  59.4012380  36.2415503
  21.4448074  63.9553068  23.5230150  20.7517319  64.0297423  22.8670186
  21.1999826  63.1913412  24.0451667  30.1161730  55.5148670  30.9269640
  30.3963484  54.8471859  31.5530067  30.9012337  55.7077765  30.4144304
  27.9195199  74.6907663  22.4894667  27.3469166  75.3097851  22.0365139
  28.4927992  75.2407025  23.0234589  33.9870589  63.9366304  34.6741215
  34.9388012  64.0364401  34.6953440  33.8174039  63.1444572  35.1839300
  32.0084968  61.0221887  34.8600616  31.4134900  61.3026899  34.1647105
  31.7234665  61.5115788  35.6317358  31.1392459  74.9744814  23.6203249
  32.0723132  74.9090375  23.8236124  31.0515671  75.8101080  23.1617782
  33.7680475  74.2910684  20.5807197  33.6894107  73.9570548  21.4742954
  34.5890142  74.7832452  20.5798669  36.4658666  67.1572423  33.7883515
  36.4334987  66.2188424  33.9743199  37.0759290  67.2356460  33.0549340
  28.3041997  66.0268476  19.8310719  29.2501102  65.8974684  19.8999137
  27.9256242  65.2883138  20.3080147  34.2763882  57.6924482  29.7937611
  34.0788703  57.3839570  30.6780943  34.8863587  58.4186121  29.9235541
  28.1880690  70.0786222  41.2911376  29.1083699  70.2564821  41.4851423
  28.1530273  69.1342268  41.1391075  26.4884914  63.9518453  19.7665604
  25.5816370  63.6551565  19.8428318  26.7660895  63.6548271  18.8999891
  17.4062855  65.2724816  30.2164651  17.0865639  64.4190124  29.9239025
  16.8596283  65.4873394  30.9722618  21.1842762  67.9887257  33.9334157
  21.4028772  68.9204365  33.9522191  21.5968536  67.6295231  34.7188961
  28.1046980  58.4955342  25.9209846  27.2947709  58.1502427  26.2965092
  28.7931397  58.1862886  26.5097457  30.0337528  57.5733389  27.5434142
  30.5868567  57.9928843  28.2024165  30.2707615  56.6469137  27.5857098
  26.0570628  63.5620463  43.3236906  25.9567355  64.5114820  43.2548997
  25.8392170  63.2338702  42.4512976  25.2583699  60.8105388  19.9077584
  26.1202863  61.1360286  20.1673401  25.4434043  60.0236884  19.3950649
  17.2751115  68.8927727  32.1857772  16.5814586  68.4781680  31.6727727
  18.0224106  68.9348264  31.5891191  33.4116336  59.6833914  27.0512807
  32.8315005  60.3418718  26.6690859  33.1452268  58.8611259  26.6400224
  31.8619902  59.0838972  29.2534127  32.3619680  59.1955506  28.4448446
  32.5055510  58.7800025  29.8934935  25.9201898  66.9917602  42.1401968
  25.4368979  67.7917962  42.3465857  26.0062837  67.0025546  41.1869412
  19.1887857  68.8245981  30.0623787  19.1658545  68.9233669  29.1105670
  19.4988494  69.6711132  30.3840953  21.8475235  70.8822136  34.1770402
  22.8018489  70.8506079  34.1100333  21.6487759  70.4212760  34.9920628
  22.4374617  69.4523252  36.7441199  23.2567506  69.9467331  36.7676037
  22.7111425  68.5355220  36.7158767  32.1941214  61.8434005  26.1069155
  31.3067069  62.1283655  25.8889350  32.6095203  61.6827768  25.2596432
  20.2025464  76.4241756  31.1940600  20.0679932  75.6642157  30.6278598
  19.7857526  77.1482656  30.7269388  31.3384427  71.6078679  20.2017175
  32.0420277  71.8128682  20.8174830  30.6147076  72.1755441  20.4666258
  32.1682237  67.3588541  26.3219445  32.1117439  67.8157092  25.4827077
  32.7210580  66.5979225  26.1442288  35.9787043  63.1478272  27.1469565
  35.7223977  62.7474908  27.9777772  35.3539911  63.8622066  27.0219704
  23.3594590  77.3211073  31.4059042  23.2426974  78.2656505  31.3037732
  22.5387036  77.0184634  31.7944841  33.2471124  72.0461209  22.2515635
  34.0816728  71.6142407  22.0693110  33.0855467  71.8743222  23.1792529
  32.9017017  68.5493322  23.6171974  32.8465820  68.3837593  22.6760418
  32.2763072  69.2569355  23.7734164  17.6909532  63.7861386  37.4433396
  18.3368395  63.2760340  37.9320622  17.4826683  64.5230068  38.0176822
  30.2162924  70.8542234  42.9425537  31.0854083  71.0282886  42.5812172
  29.7369675  71.6736651  42.8201266  26.2113142  58.0501431  23.1957293
  26.1991812  58.9943271  23.3525563  27.1036564  57.8671576  22.9016754
  24.3849104  77.9739335  34.6214971  25.2876351  78.0062945  34.9381466
  24.1586474  77.0439786  34.6361306  26.1402706  76.7270321  31.2825049
  25.1898337  76.7272183  31.1689422  26.4435192  75.9803056  30.7661084
  30.0265262  54.6444207  27.4503229  29.2597657  54.0902694  27.5959912
  30.4375967  54.7166076  28.3117381  22.0307023  60.9329003  41.5408411
  22.8938484  60.5765808  41.7511735  21.4572433  60.5942898  42.2283815
  41.8755400  82.5630860  32.3470812  42.5133809  82.4437607  31.6434152
  41.7576242  83.5111704  32.4058764  38.6845106  82.5158288  32.2832336
  38.3463617  82.3999352  31.3952871  39.5534874  82.1149453  32.2633342
  34.5431922  84.3693764  28.2729227  33.9796787  84.2783701  27.5045515
  34.4284317  83.5493669  28.7531720  39.1664889  83.6693139  38.2418542
  39.1553530  83.2745938  37.3699046  39.3285528  82.9359212  38.8352313
  32.0896353  85.8644956  31.1113448  32.8817645  85.5235780  30.6959747
  32.3293004  85.9739931  32.0315601  40.1231480  88.0364732  23.5843692
  39.4719460  88.6218812  23.1977706  40.9175843  88.5670927  23.6438730
  34.0487107  85.1253869  23.9830827  34.8217983  84.5782856  23.8443702
  34.4012506  85.9898118  24.1945288  35.8872150  86.4530251  37.1897726
  35.5962016  87.3575882  37.0744392  36.5229134  86.4946779  37.9041795
  36.8128357  83.8307100  33.7799086  37.4091929  83.6063122  33.0656048
  36.8703328  83.0891845  34.3824533  36.3853385  81.2846535  21.6149276
  36.6378906  80.7628056  20.8532739  35.4477944  81.1212681  21.7175960
  41.4296668  80.2882313  29.4224020  42.2159757  79.8701737  29.0714437
  41.6935372  81.1928406  29.5905668  41.6006745  85.7255164  24.1212677
  40.9652578  85.7989790  24.8333581  41.2704152  86.3148763  23.4431756
  46.8305095  80.2257547  30.3256998  47.5630267  79.6556763  30.5594828
  46.0744451  79.8379147  30.7663504  36.1049674  83.1874641  23.8173651
  35.9885932  82.5119544  24.4854736  36.2151934  82.7007015  23.0005804
  38.4481215  82.6484788  27.5220341  38.0839422  82.1215409  28.2333262
  39.3048331  82.2583257  27.3486826  44.3530515  73.9379121  34.7851607
  44.0213840  74.8074532  34.5612822  43.7576129  73.6215405  35.4645637
  38.0886702  77.6774688  22.5181689  38.2561104  78.5454924  22.8852160
  37.8983871  77.8401970  21.5942978  40.8462035  86.1391667  34.1847520
  40.5462758  87.0416706  34.0763327  40.5013095  85.8723850  35.0368672
  34.2974517  82.5905464  30.2184224  33.3725013  82.4581678  30.4261916
  34.5458930  83.3699683  30.7154166  44.2459179  78.6574207  31.8644957
  43.3376056  78.5889615  31.5703718  44.1946775  79.1346152  32.6926782
  38.0675923  80.1332345  23.5028356  37.9475548  80.5789396  24.3413836
  37.3728511  80.4817663  22.9441894  31.6583328  82.2338737  31.0528013
  31.7875709  82.4873216  31.9667425  30.9780779  82.8266445  30.7332668
  38.3200045  80.0763853  39.8079854  37.5433379  80.6357773  39.7982719
  38.9590608  80.5620636  40.3294724  46.1120825  76.8590645  33.6422831
  45.4695205  77.1523179  32.9962625  45.6075754  76.7443566  34.4476027
  43.7660989  80.6053819  24.3308690  44.6778845  80.8381205  24.1556388
  43.2570636  81.1890863  23.7683769  36.5746417  82.8849306  39.3697821
  37.3161101  83.4234350  39.0932645  35.8683402  83.5115595  39.5269373
  42.0501757  85.0278446  37.9669983  42.4585113  84.5860857  37.2224615
  41.3279018  84.4531074  38.2204176  38.4032827  79.9651053  35.3403540
  39.2494022  80.3890467  35.4838189  38.3431464  79.3084677  36.0342103
  42.3730571  85.5879637  31.7222272  41.7439434  85.7525351  31.0198339
  41.9856233  86.0021247  32.4933236  46.2519803  86.5234075  29.0766635
  45.5670841  86.9032976  28.5263669  46.3363652  87.1329402  29.8098583
  41.5532272  77.6255422  36.9984713  41.3093204  78.3797482  36.4618989
  41.8292202  78.0040769  37.8331960  43.5070735  84.1694034  35.6761979
  43.7187630  84.8125794  34.9996360  43.4600483  83.3356350  35.2083909
  41.1096964  76.7811855  32.5798551  40.2481443  77.0793108  32.8715289
  41.1359398  76.9982253  31.6479584  37.9258533  85.3254045  28.9872357
  38.3896879  85.6041748  28.1976979  37.6615331  84.4237490  28.8045447
  34.8182614  84.8725527  31.9252120  35.3883971  85.3012795  31.2869604
  35.4090726  84.5908111  32.6236306  36.8627419  81.4477197  25.7961922
  37.5651462  81.8998241  26.2635848  36.5308048  80.8061016  26.4241815
  35.3107781  80.0388954  40.1713131  34.6806441  80.7205235  40.4048528
  35.2043869  79.9272036  39.2266269  30.6052753  79.7060750  31.0979055
  29.8151807  79.9618279  30.6219166  31.0964000  80.5209088  31.2031096
  44.6216563  87.0465989  33.8484336  45.4434006  86.6446177  33.5667018
  44.6178966  86.9434223  34.8000452  32.5567498  80.0705329  28.0562532
  31.7598662  80.1824024  28.5746028  32.3293091  80.4091982  27.1903423
  38.3873166  86.5950033  36.0045047  38.4517599  87.0570440  36.8403218
  37.6784090  85.9647398  36.1327356  28.8890456  79.9591241  33.5294046
  29.1398494  80.8438250  33.7951622  29.4250004  79.7795842  32.7569138
  52.7122556  83.3904738  30.1969308  51.9586264  82.8212136  30.0413312
  52.8470097  83.3567402  31.1439942  31.5550581  85.7793578  26.4451952
  32.0675102  86.5736828  26.5957517  32.2073294  85.0819869  26.3785554
  32.6497822  80.9423966  38.4036868  32.5351338  80.0409224  38.7043967
  31.7942340  81.1887663  38.0521685  39.7289660  88.8841707  40.0024369
  39.2853514  88.0978085  39.6845274  40.3906874  89.0720857  39.3368260
  41.8270898  89.1644507  38.0305770  41.8089374  89.9853388  37.5386039
  42.7490818  89.0398582  38.2555911  38.2843952  86.6788636  38.8729279
  38.8172289  85.9176924  38.6428587  37.7558033  86.3862288  39.6153433
  41.4513647  71.7848702  34.4022920  41.1077917  72.6750344  34.3262031
  41.8192610  71.5950360  33.5392505  29.5199498  84.1082232  27.2211523
  30.3574720  84.5179241  27.0045230  29.6977766  83.1681675  27.1911716
  41.4163930  81.7757313  22.9095356  40.9010553  82.5461918  23.1483743
  41.1441238  81.1022449  23.5328417  39.0011041  76.6207014  27.9680594
  38.1452637  76.2313864  27.7886233  39.4137993  76.6998975  27.1080379
  40.5310188  74.1553357  32.3672154  40.0274983  74.1183492  31.5539959
  40.8240795  75.0646100  32.4268810  36.7753074  74.2392087  31.3738335
  37.6406070  74.0434896  31.0144225  36.8430583  74.0102439  32.3007692
  46.3898204  84.5289668  24.8448529  45.6127647  84.1900827  24.4003691
  47.0689685  84.5342291  24.1703494  41.2050233  79.6484405  24.7355137
  40.9000369  79.9630554  25.5865280  42.1580675  79.7265825  24.7782470
  39.6496665  85.8074628  26.3848091  39.1218027  85.0727388  26.0721328
  39.1484168  86.5849305  26.1388059  44.6289511  84.0023649  31.5015137
  43.9713186  84.6922910  31.5895266  45.4329910  84.3920081  31.8449123
  34.3815393  76.4694295  28.7454702  34.9559145  76.2469476  28.0127895
  34.9686375  76.5382989  29.4983304  43.4394970  82.3568022  29.5519079
  43.9526852  82.9898013  30.0540788  44.0896194  81.7569217  29.1862439
  34.7084980  78.4998756  22.7650587  33.8722292  78.8373442  23.0859862
  34.5689749  78.3647736  21.8277724  36.6838060  73.3435544  27.4729772
  36.0302473  73.0284561  26.8486386  36.6418535  72.7211284  28.1989595
  37.7949265  83.6254839  19.3883064  36.8876327  83.3944092  19.5874213
  38.2920297  82.8292458  19.5757045  39.9175801  79.8317477  31.7977419
  38.9998362  80.0532424  31.6399107  40.3335944  79.9063788  30.9389127
  40.7010849  81.2308893  26.9280100  41.4482667  81.7430290  26.6187222
  40.9702438  80.9092946  27.7884493  38.9737499  83.7267434  23.9107054
  38.0648718  83.4426466  24.0079524  39.0032582  84.1466512  23.0510361
  44.2056766  87.3374023  27.6798221  43.7519093  86.4964933  27.7363412
  43.5750733  87.9735421  28.0173002  43.1489686  78.2666009  28.9098889
  42.4112442  77.7543395  29.2409131  43.4016459  77.8266391  28.0982166
  42.6489705  89.1750520  28.6148040  42.9412680  89.7355577  27.8960405
  43.1588326  89.4679081  29.3701199  43.2501313  71.0442261  29.5040658
  43.5560190  70.1839625  29.2166573  43.9753918  71.6359881  29.3039652
  29.5425669  81.4472948  27.8922256  29.3450069  80.8542308  27.1673323
  28.9872333  81.1425158  28.6098195  37.5222393  81.3396054  30.0116849
  37.5771003  80.3869891  29.9359326  36.7113595  81.4955493  30.4958148
  38.6713586  85.2676177  21.2495132  38.2333016  84.5512036  20.7900770
  39.4124027  85.4952292  20.6880224  35.4614753  79.9573114  27.7707228
  34.6482618  80.2567285  28.1772420  35.9573747  79.5628803  28.4881710
  41.0588964  80.4214938  36.6022122  41.4138352  80.6486412  37.4616588
  41.7061096  80.7533315  35.9799377  46.7886701  83.5433374  27.3071451
  46.6504600  83.7334970  26.3792640  46.4322920  84.3052757  27.7639502
  34.9528827  77.5291469  33.3868463  35.5928207  77.3880229  32.6891426
  34.1206358  77.2425983  33.0107065  46.8156081  85.6109901  32.3182722
  47.2492588  85.5185190  33.1665777  47.5287662  85.5867402  31.6802738
  35.7289131  86.8293900  29.5003455  36.5229730  86.3344220  29.2986030
  35.0180824  86.3011763  29.1371161  32.0371895  80.9736982  25.5763208
  31.1069483  80.9121437  25.7933170  32.1329367  80.4512934  24.7799849
  31.9557444  77.4991794  28.1641450  32.2164261  78.4137128  28.0550610
  32.7774616  77.0316237  28.3138063  33.4282369  78.9129552  35.3340274
  34.1005423  78.7046914  34.6852923  32.6012156  78.7151638  34.8945507
  47.6771630  85.6533602  34.8515608  47.8707521  86.5579412  35.0974883
  47.5772249  85.1941021  35.6854193  39.3307941  75.5391493  37.3505935
  38.6835856  76.2381442  37.2570412  40.1008957  75.9727636  37.7182183
  42.7386739  85.8040345  40.4256488  42.5872246  85.5750896  39.5086572
  42.7291419  86.7610946  40.4387834  39.5072076  83.3772257  35.4102755
  40.4364136  83.5283417  35.2371722  39.0863106  83.4656278  34.5551401
  38.3060407  87.4022922  33.1801293  38.1671493  87.0341706  34.0527231
  37.5175004  87.9170561  33.0085250  39.8565622  86.7804525  30.5690130
  39.5215455  86.7405295  31.4647780  39.3569568  86.1149241  30.0960541
  33.8309866  82.1872155  36.0942711  33.6929664  81.4552393  36.6954251
  34.7414790  82.0981055  35.8126899  42.7924814  84.1260559  20.8427190
  42.1753985  83.4007387  20.7460243  42.3241303  84.8869919  20.4994264
  36.4592167  81.8992114  35.5826391  37.1691786  81.2585306  35.5413010
  36.4161475  82.1505009  36.5052572  44.4478946  88.8359467  38.5032970
  44.3891492  88.1518687  37.8363553  44.8498464  89.5778457  38.0513596
  35.1721101  78.8857332  37.4022031  34.6358458  78.4348070  38.0543627
  34.5837810  79.0203241  36.6592495  34.5823360  78.3445983  19.9648494
  33.7052826  78.2234784  19.6010741  35.0581113  77.5532062  19.7127383
  44.4496353  86.7999051  36.7346950  43.5623132  86.4624973  36.8573349
  45.0194904  86.0682082  36.9715715  26.1025500  83.1323143  30.0590001
  26.7896540  82.8184873  29.4711017  25.9473629  84.0364508  29.7857253
  30.9060222  78.0213340  34.4875025  30.8218411  77.4139009  33.7525435
  30.0842929  78.5122358  34.4884521  41.0783936  76.5066903  29.8545220
  41.5752636  75.7536865  29.5346290  40.3070918  76.5431220  29.2888429
  48.9313694  82.2107269  31.4963512  48.9203570  83.0931984  31.1257445
  48.0631073  81.8578819  31.3018049  42.1613717  85.2638590  27.4283644
  41.2269996  85.3840053  27.2588348  42.3390385  84.3611057  27.1643653
  37.6618905  78.6484286  29.5816905  37.2916692  78.0955326  30.2697810
  38.1577997  78.0442420  29.0291905  45.5486268  81.1055910  27.9633678
  46.0146720  81.9383901  27.8893980  45.9993769  80.6400891  28.6678936
  43.6162499  87.4499731  24.9619830  43.8922343  87.3356325  25.8713704
  42.7466998  87.0517216  24.9232003  43.5202931  73.4736497  32.0024579
  42.6066011  73.7040723  32.1706786  43.9496032  73.5574941  32.8538611
  43.2909389  81.6626389  34.5024473  42.6380840  81.9102296  33.8476926
  43.6689769  80.8490527  34.1686950  39.3396962  82.4046200  40.9890510
  38.6637599  82.3040329  41.6592885  40.1624596  82.2485413  41.4526507
  25.6793476  81.2123736  32.3307469  25.7177576  80.6787327  33.1244587
  25.1733769  80.6858942  31.7118446  33.0584239  76.0588277  35.8270011
  33.1225565  76.9203108  35.4147409  32.9951359  75.4462278  35.0942369
  32.5336511  78.1311409  39.4743045  33.1608550  77.7488487  40.0880569
  31.6764430  77.9125611  39.8398738  42.9330620  88.5374385  41.0796781
  43.4770524  89.1504343  40.5851735  42.3517465  89.0953963  41.5963794
  29.3102054  79.9387838  25.4061400  29.6055495  79.0298517  25.3528454
  28.4090090  79.9175578  25.0842402  32.8396301  78.0143835  31.3888949
  32.1182887  78.6279803  31.2496422  33.6289557  78.5501600  31.3105594
  43.2823041  89.4604123  33.8391358  42.3353377  89.3409474  33.7669685
  43.6305814  88.5726621  33.9217620  35.6422614  75.3498262  37.6629600
  36.1657016  75.5960558  38.4255910  35.4234948  76.1818296  37.2432738
  31.0389895  77.6201936  25.5300725  30.7102602  76.7399315  25.3475831
  31.3929266  77.5649605  26.4177114  40.2869474  89.2556839  30.0395711
  40.1394437  88.3273546  30.2203281  41.1122968  89.2776930  29.5552786
  34.1531719  77.9074906  25.8976203  34.4927791  78.4360827  25.1754811
  34.6003839  78.2455312  26.6734769  43.8903596  90.0785398  31.1260583
  44.8150144  89.8728259  30.9885035  43.7218900  89.8301799  32.0349925
  36.8475159  76.2911957  35.3479271  36.5071980  75.4919770  35.7499951
  36.1414166  76.5913667  34.7756104  37.4991631  73.3761269  33.8006594
  38.3217701  72.9021747  33.6785484  37.7429695  74.1551753  34.3005280
  36.1399866  76.4049528  24.0969496  36.8608228  76.7830780  23.5933212
  35.5165170  77.1238404  24.2004473  40.2830989  77.1094676  25.0327828
  40.4994603  77.9919314  24.7316656  39.8025056  76.7180890  24.3033470
  35.0230210  80.0680390  31.6098572  34.8774791  80.3820693  32.5022854
  34.5455414  80.6865290  31.0569471  36.8826593  77.0582938  31.6579462
  36.8688162  76.1624031  31.3211760  37.5999021  77.0653601  32.2917748
  38.7352724  77.4920278  33.7032589  38.4770501  78.4137349  33.7016920
  38.2037764  77.0950712  34.3933054  29.4975872  82.6085734  34.5486234
  28.9529340  83.3845542  34.6806508  30.3755222  82.9556539  34.3905355
  36.2863489  75.9397318  26.9267032  36.4079400  75.0113964  27.1257920
  35.9965531  75.9536004  26.0145348  39.1554679  73.6252228  30.0633752
  39.1776376  73.6891562  29.1085732  39.5722738  72.7856737  30.2574258
  49.5338304  83.3607488  28.1012975  49.9769450  82.6114813  27.7032098
  48.6564814  83.3517624  27.7186707  44.6674085  89.9137829  23.5819573
  45.3624989  90.5344522  23.8006888  45.0097235  89.0633181  23.8571951
  30.2841894  81.7355630  37.4416390  29.5423630  81.8838266  38.0281021
  29.9634638  81.9963896  36.5783140  46.5665508  87.3637535  25.1106904
  47.0916832  87.7024808  24.3856224  46.4787861  86.4284550  24.9270038
  35.7704568  77.4529315  41.1356965  35.8192724  78.3291438  40.7534734
  36.3127083  76.9106708  40.5628608  46.2559414  87.9970439  40.4158102
  45.4654958  87.9794577  39.8762601  46.0192769  88.5358732  41.1707138
  46.3757289  84.8462905  37.7290830  46.4255294  84.6812912  38.6706353
  46.2671212  83.9790164  37.3388711  43.6661051  80.8293833  39.0450137
  44.5670914  80.6900298  38.7534135  43.7409026  80.9948288  39.9848315
  38.0003857  78.2060688  37.8903323  37.1307166  78.4994254  37.6185912
  38.2363337  78.7901133  38.6110587  47.8775486  87.2659846  37.9732852
  47.5860294  87.6289827  38.8096313  47.2647617  86.5526855  37.7946184
  49.0771168  84.8312726  30.4935422  49.9118060  85.2702530  30.6572982
  49.2130297  84.3551379  29.6743668  46.1262674  82.3892461  36.4412910
  46.6016796  82.5820107  35.6331761  45.2028240  82.4451647  36.1956294
  33.0146181  83.5516628  26.0243988  32.7692223  82.6478958  26.2224198
  33.1842095  83.5533779  25.0823466  40.7042891  74.4240305  35.4068744
  41.2224835  75.1601332  35.0815232  40.3498023  74.7304298  36.2415503
  32.2841828  79.2844986  23.5230150  31.5911073  79.3589341  22.8670186
  32.0393580  78.5205330  24.0451667  40.9555485  70.8440587  30.9269640
  41.2357239  70.1763776  31.5530067  41.7406092  71.0369683  30.4144304
  44.8264343  79.2658221  34.6741215  45.7781766  79.3656319  34.6953440
  44.6567794  78.4736490  35.1839300  42.8478723  76.3513804  34.8600616
  42.2528655  76.6318817  34.1647105  42.5628419  76.8407705  35.6317358
  44.6074230  89.6202602  20.5807197  44.5287861  89.2862465  21.4742954
  45.4283897  90.1124369  20.5798669  47.3052421  82.4864341  33.7883515
  47.2728741  81.5480342  33.9743199  47.9153045  82.5648378  33.0549340
  39.1435752  81.3560394  19.8310719  40.0894857  81.2266602  19.8999137
  38.7649997  80.6175056  20.3080147  47.4546909  79.2775384  33.8341798
  46.9385958  78.4933841  33.6471727  48.3386858  78.9494101  33.9988318
  45.1157636  73.0216400  29.7937611  44.9182457  72.7131488  30.6780943
  45.7257342  73.7478039  29.9235541  53.1228971  83.5480348  32.9289552
  53.8532359  83.2865636  33.4897255  52.5135916  82.8109070  32.9691620
  51.2044268  81.6888210  33.5264003  50.4777431  81.5544175  32.9180495
  50.7891555  81.9965039  34.3320721  39.0274444  85.4078140  41.2911376
  39.9477454  85.5856739  41.4851423  38.9924027  84.4634185  41.1391075
  37.3278669  79.2810370  19.7665604  36.4210124  78.9843483  19.8428318
  37.6054650  78.9840188  18.8999891  28.2456609  80.6016734  30.2164651
  27.9259394  79.7482042  29.9239025  27.6990038  80.8165312  30.9722618
  32.0236517  83.3179175  33.9334157  32.2422527  84.2496282  33.9522191
  32.4362291  82.9587149  34.7188961  38.9440735  73.8247260  25.9209846
  38.1341463  73.4794345  26.2965092  39.6325152  73.5154804  26.5097457
  40.8731283  72.9025307  27.5434142  41.4262322  73.3220760  28.2024165
  41.1101369  71.9761055  27.5857098  36.8964382  78.8912380  43.3236906
  36.7961109  79.8406737  43.2548997  36.6785924  78.5630619  42.4512976
  36.0977454  76.1397305  19.9077584  36.9596618  76.4652204  20.1673401
  36.2827798  75.3528801  19.3950649  28.1144869  84.2219645  32.1857772
  27.4208341  83.8073598  31.6727727  28.8617860  84.2640182  31.5891191
  44.2510090  75.0125832  27.0512807  43.6708759  75.6710636  26.6690859
  43.9846023  74.1903177  26.6400224  42.7013656  74.4130890  29.2534127
  43.2013435  74.5247424  28.4448446  43.3449264  74.1091942  29.8934935
  36.7595652  82.3209519  42.1401968  36.2762734  83.1209879  42.3465857
  36.8456591  82.3317464  41.1869412  30.0281612  84.1537899  30.0623787
  30.0052300  84.2525586  29.1105670  30.3382248  85.0003050  30.3840953
  32.6868990  86.2114054  34.1770402  33.6412243  86.1797996  34.1100333
  32.4881513  85.7504678  34.9920628  33.2768372  84.7815170  36.7441199
  34.0961261  85.2759249  36.7676037  33.5505180  83.8647138  36.7158767
  43.0334968  77.1725922  26.1069155  42.1460823  77.4575573  25.8889350
  43.4488957  77.0119686  25.2596432  46.3849504  77.1972443  29.8223494
  47.1609894  77.6868896  30.0948111  45.6597638  77.6230497  30.2795364
  48.8222063  77.9100063  30.8797435  49.4166554  77.6695798  30.1690743
  48.8948647  77.1907193  31.5070971  42.1778182  86.9370597  20.2017175
  42.8814032  87.1420599  20.8174830  41.4540830  87.5047359  20.4666258
  43.0075992  82.6880458  26.3219445  42.9511193  83.1449010  25.4827077
  43.5604334  81.9271143  26.1442288  46.8180798  78.4770190  27.1469565
  46.5617732  78.0766826  27.9777772  46.1933666  79.1913984  27.0219704
  51.1293136  81.2166263  29.6540856  50.5692694  81.2859453  30.4272418
  50.5236639  81.0407248  28.9340352  44.0864879  87.3753126  22.2515635
  44.9210483  86.9434325  22.0693110  43.9249222  87.2035140  23.1792529
  43.7410771  83.8785240  23.6171974  43.6859575  83.7129511  22.6760418
  43.1156826  84.5861272  23.7734164  28.5303286  79.1153304  37.4433396
  29.1762150  78.6052258  37.9320622  28.3220437  79.8521986  38.0176822
  41.0556678  86.1834151  42.9425537  41.9247838  86.3574804  42.5812172
  40.5763430  87.0028568  42.8201266  37.0506897  73.3793349  23.1957293
  37.0385566  74.3235188  23.3525563  37.9430318  73.1963494  22.9016754
  32.8700777  76.2620921  41.5408411  33.7332239  75.9057726  41.7511735
  32.2966188  75.9234816  42.2283815  57.6698850  95.5549464  30.3256998
  58.4024022  94.9848681  30.5594828  56.9138205  95.1671065  30.7663504
  55.1924270  89.2671038  34.7851607  54.8607595  90.1366449  34.5612822
  54.5969883  88.9507322  35.4645637  55.0852933  93.9866125  31.8644957
  54.1769811  93.9181533  31.5703718  55.0340529  94.4638070  32.6926782
  56.9514580  92.1882563  33.6422831  56.3088960  92.4815096  32.9962625
  56.4469508  92.0735483  34.4476027  52.3926026  92.9547339  36.9984713
  52.1486958  93.7089400  36.4618989  52.6685957  93.3332687  37.8331960
  51.9490718  92.1103772  32.5798551  51.0875197  92.4085026  32.8715289
  51.9753153  92.3274171  31.6479584  45.4282278  89.6701638  42.5338382
  45.0349223  89.1167836  43.2086026  46.2448418  89.9812216  42.9244900
  48.3450239  91.0859517  40.1258639  49.0859952  91.6866670  40.0463101
  48.5768162  90.3437154  39.5676681  52.2907402  87.1140620  34.4022920
  51.9471671  88.0042261  34.3262031  52.6586364  86.9242277  33.5392505
  49.8404796  91.9498932  27.9680594  48.9846392  91.5605782  27.7886233
  50.2531747  92.0290892  27.1080379  51.3703942  89.4845275  32.3672154
  50.8668738  89.4475410  31.5539959  51.6634549  90.3938018  32.4268810
  47.6146828  89.5684005  31.3738335  48.4799825  89.3726813  31.0144225
  47.6824337  89.3394356  32.3007692  47.5231815  88.6727461  27.4729772
  46.8696227  88.3576479  26.8486386  47.4812289  88.0503202  28.1989595
  53.9883440  93.5957927  28.9098889  53.2506197  93.0835313  29.2409131
  54.2410214  93.1558308  28.0982166  54.0895067  86.3734179  29.5040658
  54.3953944  85.5131542  29.2166573  54.8147672  86.9651799  29.3039652
  50.1701696  90.8683410  37.3505935  49.5229611  91.5673360  37.2570412
  50.9402711  91.3019554  37.7182183  51.9177691  91.8358821  29.8545220
  52.4146390  91.0828783  29.5346290  51.1464672  91.8723137  29.2888429
  54.3596685  88.8028414  32.0024579  53.4459765  89.0332641  32.1706786
  54.7889787  88.8866858  32.8538611  46.4816369  90.6790179  37.6629600
  47.0050771  90.9252476  38.4255910  46.2628702  91.5110214  37.2432738
  47.6868914  91.6203874  35.3479271  47.3465734  90.8211687  35.7499951
  46.9807920  91.9205585  34.7756104  48.3385386  88.7053187  33.8006594
  49.1611455  88.2313665  33.6785484  48.5823449  89.4843671  34.3005280
  51.1224743  92.4386594  25.0327828  51.3388357  93.3211232  24.7316656
  50.6418810  92.0472808  24.3033470  47.1257243  91.2689236  26.9267032
  47.2473155  90.3405882  27.1257920  46.8359286  91.2827922  26.0145348
  49.9948434  88.9544146  30.0633752  50.0170131  89.0183479  29.1085732
  50.4116493  88.1148655  30.2574258  51.5436645  89.7532222  35.4068744
  52.0618589  90.4893249  35.0815232  51.1891778  90.0596216  36.2415503
  51.7949239  86.1732505  30.9269640  52.0750993  85.5055694  31.5530067
  52.5799846  86.3661601  30.4144304  55.6658098  94.5950139  34.6741215
  56.6175521  94.6948237  34.6953440  55.4961548  93.8028407  35.1839300
  53.6872477  91.6805722  34.8600616  53.0922409  91.9610735  34.1647105
  53.4022174  92.1699623  35.6317358  58.2940664  94.6067302  33.8341798
  57.7779713  93.8225759  33.6471727  59.1780612  94.2786019  33.9988318
  55.9551391  88.3508318  29.7937611  55.7576212  88.0423406  30.6780943
  56.5651096  89.0769956  29.9235541  49.7834489  89.1539178  25.9209846
  48.9735217  88.8086263  26.2965092  50.4718906  88.8446721  26.5097457
  51.7125037  88.2317224  27.5434142  52.2656076  88.6512678  28.2024165
  51.9495124  87.3052973  27.5857098  46.9371208  91.4689223  19.9077584
  47.7990372  91.7944121  20.1673401  47.1221552  90.6820719  19.3950649
  55.0903845  90.3417750  27.0512807  54.5102514  91.0002554  26.6690859
  54.8239777  89.5195094  26.6400224  53.5407411  89.7422807  29.2534127
  54.0407189  89.8539342  28.4448446  54.1843019  89.4383860  29.8934935
  53.8728723  92.5017840  26.1069155  52.9854578  92.7867491  25.8889350
  54.2882712  92.3411603  25.2596432  57.2243259  92.5264361  29.8223494
  58.0003649  93.0160813  30.0948111  56.4991393  92.9522415  30.2795364
  59.6615817  93.2391980  30.8797435  60.2560308  92.9987716  30.1690743
  59.7342401  92.5199111  31.5070971  57.6574552  93.8062108  27.1469565
  57.4011486  93.4058743  27.9777772  57.0327420  94.5205902  27.0219704
  47.8900651  88.7085266  23.1957293  47.8779321  89.6527106  23.3525563
  48.7824073  88.5255412  22.9016754  51.7052771  85.3028043  27.4503229
  50.9385166  84.7486530  27.5959912  52.1163475  85.3749912  28.3117381
   6.6483627  14.6879509  24.9663849   6.6372267  14.2932307  24.0944352
   6.8104266  13.9545582  25.5597620   3.3690888  17.4716621  23.9143032
   3.0780754  18.3762252  23.7989699   4.0047872  17.5133148  24.6287102
   8.3280773  17.1578036  20.9092826   8.0281496  18.0603075  20.8008633
   7.9831832  16.8910220  21.7613979   5.8018782  11.0950222  26.5325161
   5.0252116  11.6544142  26.5228025   6.4409345  11.5807005  27.0540031
   4.0565155  13.9035675  26.0943128   4.7979839  14.4420719  25.8177951
   3.3502140  14.5301964  26.2514680   9.5320494  16.0464816  24.6915289
   9.9403850  15.6047226  23.9469922   8.8097756  15.4717443  24.9449482
  10.9889472  15.1880403  22.4007285  11.2006368  15.8312163  21.7241667
  10.9419221  14.3542720  21.9329216  12.1035300  18.0652359  20.5729643
  12.9252744  17.6632546  20.2912324  12.0997703  17.9620593  21.5245759
   5.8691904  17.6136402  22.7290353   5.9336336  18.0756809  23.5648525
   5.1602828  16.9833767  22.8572663   7.2108398  19.9028076  26.7269676
   6.7672252  19.1164455  26.4090580   7.8725612  20.0907227  26.0613566
   9.3089636  20.1830876  24.7551077   9.2908111  21.0039757  24.2631346
  10.2309556  20.0584951  24.9801218   5.7662690  17.6975006  25.5974585
   6.2991027  16.9363294  25.3673893   5.2376771  17.4048657  26.3398740
  14.2974819  16.6296271  19.0428029  14.7311325  16.5371560  19.8911083
  15.0106399  16.6053771  18.4048045   8.0302714  20.2298365  20.5761130
   8.0839736  20.7989301  21.3438846   7.1617495  20.4000250  20.2115167
  15.1590368  16.6719972  21.5760915  15.3526258  17.5765782  21.8220189
  15.0590986  16.2127391  22.4099500  10.2205477  16.8226714  27.1501795
  10.0690983  16.5937266  26.2331879  10.2110156  17.7797316  27.1633140
  11.9297684  19.8545837  25.2278277  11.8710230  19.1705057  24.5608860
  12.3317202  20.5964827  24.7758903  11.9315091  17.8185421  23.4592257
  11.0441870  17.4811343  23.5818656  12.5013642  17.0868452  23.6961022
   5.4616244  22.4786873  20.4253500   5.3886416  23.2841845  20.9372804
   5.0193637  22.6778839  19.6001521   7.9214928  22.3773707  22.5811659
   8.6342900  23.0121172  22.5087560   7.4304956  22.4737573  21.7651660
   2.9726841  20.1268151  23.4017229   3.6736301  20.7604634  23.5546624
   2.5021956  20.4682882  22.6412869   6.8215700  13.4232569  27.7135817
   6.1456337  13.3226698  28.3838192   7.6443334  13.2671783  28.1771814
   5.5638483  24.7299497  21.9493433   6.1156791  24.8931118  22.7142518
   5.9044677  25.3203934  21.2773458  10.4149357  19.5560754  27.8042087
  10.9589261  20.1690712  27.3097042   9.8336202  20.1140333  28.3209100
   8.7006870  22.6781472  18.9357115   8.5758010  21.8771212  18.4268060
   9.3585962  23.1727665  18.4471085  10.7641779  20.4790492  20.5636665
   9.8172114  20.3595843  20.4914992  11.1124552  19.5912990  20.6462926
  11.3722334  21.0971767  17.8505890  12.2968881  20.8914628  17.7130341
  11.2037637  20.8488168  18.7595231   5.7104294  22.2957978  23.9642087
   6.0191421  22.0507125  24.8364787   6.5079776  22.5004617  23.4760957
  13.7378152  19.0156808  27.1403408  12.9473696  18.9980947  26.6007908
  13.5011506  19.5545102  27.8952445  13.8576027  15.8649275  24.4536137
  13.9074032  15.6999282  25.3951660  13.7489950  14.9976534  24.0634018
  11.1479789  11.8480203  25.7695444  12.0489652  11.7086667  25.4779442
  11.2227764  12.0134657  26.7093621  15.3594224  18.2846216  24.6978159
  15.0679032  18.6476197  25.5341620  14.7466355  17.5713224  24.5191491
  13.6081412  13.4078831  23.1658217  14.0835534  13.6006477  22.3577068
  12.6846977  13.4638017  22.9201600  20.6047709  14.5666717  19.6534859
  21.3351097  14.3052005  20.2142562  19.9954654  13.8295439  19.6936927
  18.6863006  12.7074580  20.2509310  17.9596169  12.5730545  19.6425801
  18.2710293  13.0151409  21.0566028   6.5093182  16.4264510  28.0156683
   7.4296192  16.6043109  28.2096729   6.4742765  15.4820555  27.8636382
   4.2414390  13.3395889  28.8647275   3.7581472  14.1396249  29.0711164
   4.3275329  13.3503834  27.9114719   8.5375416  17.2020521  29.6670844
   9.4066576  17.3761173  29.3057479   8.0582168  18.0214938  29.5446573
   2.7061596  24.3217622  21.3460277   3.6088843  24.3541232  21.6626772
   2.4798966  23.3918073  21.3606613  20.1967892  28.9109147  19.0716118
  20.8346302  28.7915894  18.3679458  20.0788735  29.8589991  19.1304070
  17.0057598  28.8636575  19.0077643  16.6676110  28.7477640  18.1198178
  17.8747366  28.4627740  18.9878649  12.8644414  30.7172051  14.9974534
  12.3009279  30.6261988  14.2290822  12.7496809  29.8971956  15.4777026
  17.4877381  30.0171427  24.9663849  17.4766022  29.6224225  24.0944352
  17.6498021  29.2837499  25.5597620  10.4108846  32.2123243  17.8358754
  11.2030138  31.8714068  17.4205054  10.6505496  32.3218218  18.7560908
  18.4443973  34.3843019  10.3088999  17.7931952  34.9697100   9.9223013
  19.2388335  34.9149214  10.3684036  14.2084642  32.8008539  23.9143032
  13.9174508  33.7054169  23.7989699  14.8441627  32.8425066  24.6287102
  15.1340849  30.1785387  20.5044392  15.7304421  29.9541409  19.7901355
  15.1915821  29.4370133  21.1069840  19.7509160  26.6360601  16.1469326
  20.5372250  26.2180024  15.7959743  20.0147865  27.5406693  16.3150975
  19.9219238  32.0733451  10.8457983  19.2865071  32.1468078  11.5578888
  19.5916644  32.6627050  10.1677062  25.1517587  26.5735834  17.0502305
  25.8842759  26.0035051  17.2840134  24.3956943  26.1857434  17.4908810
  16.7693707  28.9963075  14.2465647  16.4051914  28.4693696  14.9578569
  17.6260823  28.6061544  14.0732133  22.6743008  20.2857408  21.5096913
  22.3426333  21.1552819  21.2858128  22.0788621  19.9693692  22.1890944
  19.1674527  32.4869954  20.9092826  18.8675250  33.3894993  20.8008633
  18.8225587  32.2202137  21.7613979  12.6187009  28.9383751  16.9429531
  11.6937505  28.8059965  17.1507222  12.8671422  29.7177970  17.4399473
  22.5671671  25.0052494  18.5890263  21.6588548  24.9367903  18.2949024
  22.5159267  25.4824439  19.4172089   9.9795820  28.5817024  17.7773320
  10.1088201  28.8351503  18.6912731   9.2993271  29.1744732  17.4577975
  14.1495307  39.2514274  13.8763794  14.0719337  40.2022099  13.9552274
  13.5456951  38.9060147  14.5338720  16.6412537  26.4242140  26.5325161
  15.8645871  26.9836060  26.5228025  17.2803100  26.9098923  27.0540031
  24.4333318  23.2068933  20.3668137  23.7907698  23.5001466  19.7207932
  23.9288246  23.0921853  21.1721334  22.0873481  26.9532106  11.0553997
  22.9991337  27.1859493  10.8801694  21.5783128  27.5369150  10.4929075
  14.8958909  29.2327593  26.0943128  15.6373594  29.7712637  25.8177951
  14.1895895  29.8593882  26.2514680  20.3714249  31.3756734  24.6915289
  20.7797605  30.9339144  23.9469922  19.6491510  30.8009361  24.9449482
  16.7245319  26.3129340  22.0648846  17.5706514  26.7368754  22.2083495
  16.6643957  25.6562965  22.7587409  20.6943063  31.9357924  18.4467578
  20.0651926  32.1003638  17.7443646  20.3068726  32.3499534  19.2178542
  24.5732295  32.8712362  15.8011942  23.8883334  33.2511263  15.2508975
  24.6576145  33.4807689  16.5343890  19.8744764  23.9733709  23.7230020
  19.6305696  24.7275769  23.1864296  20.1504695  24.3519056  24.5577267
  21.8283227  30.5172321  22.4007285  22.0400122  31.1604081  21.7241667
  21.7812975  29.6834638  21.9329216  19.4309456  23.1290142  19.3043858
  18.5693935  23.4271395  19.5960595  19.4571891  23.3460541  18.3724890
  16.2471025  31.6732332  15.7117663  16.7109371  31.9520035  14.9222286
  15.9827823  30.7715777  15.5290754  13.1395106  31.2203814  18.6497426
  13.7096463  31.6491082  18.0114911  13.7303218  30.9386399  19.3481612
  15.1839911  27.7955485  12.5207228  15.8863955  28.2476528  12.9881155
  14.8520540  27.1539304  13.1487122  13.6320273  26.3867241  26.8958438
  13.0018934  27.0683522  27.1293835  13.5256361  26.2750323  25.9511576
   8.9265245  26.0539037  17.8224362   8.1364299  26.3096566  17.3464473
   9.4176493  26.8687375  17.9276402  22.9429055  33.3944277  20.5729643
  23.7646499  32.9924464  20.2912324  22.9391458  33.2912511  21.5245759
  16.7085658  32.9428320  22.7290353  16.7730091  33.4048727  23.5648525
  15.9996582  32.3125685  22.8572663   7.2102948  26.3069528  20.2539353
   7.4610987  27.1916538  20.5196929   7.7462497  26.1274129  19.4814445
  31.0335048  29.7383025  16.9214614  30.2798756  29.1690423  16.7658619
  31.1682589  29.7045690  17.8685249  16.4233676  34.6096427  12.5969334
  16.2879351  35.4547963  13.0254181  16.9643489  34.8115705  11.8335267
  12.9101016  20.6888007  29.2583689  12.5167961  20.1354206  29.9331333
  13.7267156  20.9998586  29.6490206   9.8763073  32.1271865  13.1697259
  10.3887594  32.9215116  13.3202823  10.5285786  31.4298156  13.1030860
  11.6857958  35.2437622  15.2520012  11.8624586  36.1655586  15.0640996
  12.4814792  34.9296041  15.6814392  15.8268977  22.1045886  26.8503945
  16.5678690  22.7053039  26.7708408  16.0586899  21.3623524  26.2921988
  10.9710315  27.2902254  25.1282175  10.8563830  26.3887511  25.4289274
  10.1154832  27.5365950  24.7766992  18.0502152  35.2319994  26.7269676
  17.6066007  34.4456372  26.4090580  18.7119366  35.4199144  26.0613566
  12.8089274  36.7615795  21.2530354  13.3596699  36.6332859  20.4807348
  11.9700749  37.0610684  20.9025247  20.1483390  35.5122794  24.7551077
  20.1301866  36.3331675  24.2631346  21.0703311  35.3876869  24.9801218
  16.6056445  33.0266923  25.5974585  17.1384781  32.2655211  25.3673893
  16.0770526  32.7340575  26.3398740  19.7726140  18.1326989  21.1268227
  19.4290409  19.0228631  21.0507338  20.1405102  17.9428647  20.2637812
   7.8411990  30.4560520  13.9456829   8.6787212  30.8657528  13.7290537
   8.0190258  29.5159962  13.9157023  17.3223533  22.9685301  14.6925901
  16.4665130  22.5792151  14.5131539  17.7350485  23.0477262  13.8325686
  18.8522680  20.5031644  19.0917460  18.3487476  20.4661780  18.2785266
  19.1453287  21.4124387  19.1514117  15.0965566  20.5870374  18.0983642
  15.9618563  20.3913183  17.7389532  15.1643075  20.3580726  19.0252999
  24.7110696  30.8767955  11.5693836  23.9340139  30.5379114  11.1248998
  25.3902177  30.8820578  10.8948801  19.5262725  25.9962692  11.4600443
  19.2212861  26.3108842  12.3110587  20.4793168  26.0744112  11.5027776
  17.9709157  32.1552916  13.1093397  17.4430519  31.4205675  12.7966635
  17.4696660  32.9327592  12.8633366  22.9502003  30.3501936  18.2260444
  22.2925678  31.0401198  18.3140572  23.7542403  30.7398368  18.5694430
  21.7607462  28.7046309  16.2764385  22.2739344  29.3376301  16.7786095
  22.4108686  28.1047504  15.9107745  19.0229836  38.6830633   9.0325057
  18.3491535  38.9862330   9.6410014  19.4095658  39.4859714   8.6830514
  18.2388293  26.1795764  18.5222726  17.3210854  26.4010711  18.3644414
  18.6548437  26.2542075  17.6634433  19.0223341  27.5787180  13.6525406
  19.7695160  28.0908577  13.3432528  19.2914930  27.2571233  14.5129800
  17.2949991  30.0745721  10.6352360  16.3861210  29.7904754  10.7324830
  17.3245075  30.4944799   9.7755667  22.5269258  33.6852310  14.4043528
  22.0731585  32.8443220  14.4608718  21.8963225  34.3213709  14.7418308
  21.4702178  24.6144296  15.6344195  20.7324935  24.1021683  15.9654438
  21.7228951  24.1744678  14.8227472  20.9702198  35.5228807  15.3393346
  21.2625172  36.0833864  14.6205712  21.4800818  35.8157368  16.0946505
  21.5713805  17.3920548  16.2285965  21.8772682  16.5317912  15.9411880
  22.2966410  17.9838169  16.0284959  15.8434885  27.6874341  16.7362156
  15.8983495  26.7348178  16.6604632  15.0326087  27.8433781  17.2203454
  13.7827245  26.3051401  14.4952535  12.9695110  26.6045572  14.9017727
  14.2786239  25.9107090  15.2127017  15.9335823  36.3009158  16.4286799
  15.8912002  36.5270004  15.4995331  16.8498522  36.0672533  16.5772601
  19.3801457  26.7693226  23.3267429  19.7350844  26.9964699  24.1861894
  20.0273588  27.1011602  22.7044684  25.1099194  29.8911662  14.0316758
  24.9717092  30.0813258  13.1037947  24.7535412  30.6531044  14.4884809
  13.2741320  23.8769757  20.1113770  13.9140699  23.7358516  19.4136733
  12.4418850  23.5904270  19.7352372  25.1368573  31.9588189  19.0428029
  25.5705080  31.8663478  19.8911083  25.8500154  31.9345689  18.4048045
  14.0501624  33.1772187  16.2248762  14.8442222  32.6822507  16.0231337
  13.3393316  32.6490050  15.8616468  18.8696468  35.5590283  20.5761130
  18.9233490  36.1281219  21.3438846  18.0011249  35.7292168  20.2115167
  11.7494861  25.2607839  22.0585581  12.4217915  25.0525201  21.4098230
  10.9224648  25.0629925  21.6190813  25.9984123  32.0011889  21.5760915
  26.1920013  32.9057700  21.8220189  25.8984741  31.5419308  22.4099500
  17.6520433  21.8869780  24.0751242  17.0048348  22.5859729  23.9815718
  18.4221449  22.3205924  24.4427490  21.0599231  32.1518632  27.1501795
  20.9084738  31.9229184  26.2331879  21.0503911  33.1089233  27.1633140
  17.8284568  29.7250545  22.1348062  18.7576628  29.8761704  21.9617029
  17.4075598  29.8134566  21.2796708  16.6272900  33.7501209  19.9046599
  16.4883985  33.3819994  20.7772537  15.8387496  34.2648849  19.7330557
  17.2221052  38.8510306  11.2472136  17.3972807  38.3798349  12.0617758
  16.5353840  39.4776072  11.4753396  18.1778115  33.1282812  17.2935437
  17.8427947  33.0883582  18.1893087  17.6782060  32.4627528  16.8205847
  12.1522359  28.5350442  22.8188018  12.0142157  27.8030681  23.4199557
  13.0627282  28.4459342  22.5372206  14.7804659  28.2470401  22.3071698
  15.4904278  27.6063593  22.2658316  14.7373968  28.4983296  23.2297879
  22.7691438  35.1837755  25.2278277  22.7103984  34.4996975  24.5608860
  23.1710956  35.9256745  24.7758903  13.4933593  25.2335619  24.1267337
  12.9570950  24.7826358  24.7788934  12.9050302  25.3681528  23.3837802
  11.7882137  41.9999668  18.0211996  12.0278735  42.6318193  18.6991014
  10.9451333  41.6487708  18.3077355  22.7708845  33.1477338  23.4592257
  21.8835624  32.8103260  23.5818656  23.3407396  32.4160370  23.6961022
   4.4237992  29.4801430  16.7835308   5.1109032  29.1663160  16.1956323
   4.2686121  30.3842795  16.5102559   9.2272715  24.3691627  21.2120332
   9.1430903  23.7617296  20.4770742   8.4055421  24.8600645  21.2129828
  16.3009999  37.8078791  20.4253500  16.2280170  38.6133762  20.9372804
  15.8587392  38.0070757  19.6001521  16.0899778  37.0450561  13.9356321
  15.3067300  37.5872241  14.0294546  16.7892523  37.5624540  14.3350563
  19.3996428  22.8545190  16.5790527  19.8965128  22.1015153  16.2591597
  18.6283410  22.8909507  16.0133736  27.2526186  28.5585556  18.2208818
  27.2416062  29.4410271  17.8502751  26.3843565  28.2057107  18.0263355
  18.7608682  37.7065625  22.5811659  19.4736654  38.3413090  22.5087560
  18.2698711  37.8029491  21.7651660  20.4826209  31.6116878  14.1528950
  19.5482488  31.7318340  13.9833655  20.6602878  30.7089344  13.8888960
  15.9831397  24.9962573  16.3062211  15.6129185  24.4433614  16.9943117
  16.4790490  24.3920707  15.7537211  23.8698760  27.4534197  14.6878984
  24.3359213  28.2862188  14.6139287  24.3206261  26.9879178  15.3924243
  13.8120596  35.4560068  23.4017229  14.5130055  36.0896551  23.5546624
  13.3415711  35.7974800  22.6412869  21.9374992  33.7978018  11.6865136
  22.2134835  33.6834613  12.5959010  21.0679490  33.3995503  11.6477309
  21.8415423  19.8214784  18.7269886  20.9278503  20.0519011  18.8952093
  22.2708525  19.9053228  19.5783918  21.6121882  28.0104676  21.2269780
  20.9593332  28.2580583  20.5722232  21.9902262  27.1968814  20.8932257
  18.5729056  38.0464369  15.3297950  18.7551450  37.2286025  15.7925702
  19.3962042  38.2632061  14.8922840  18.9071221  36.9732554  12.5912998
  19.4358988  36.4625009  11.9783161  19.1699441  36.6575084  13.4558532
  17.6609455  28.7524487  27.7135817  16.9850092  28.6518616  28.3838192
  18.4837089  28.5963701  28.1771814   9.4088314  34.9896423  20.3348332
   9.9941751  34.2440111  20.4676236   9.2113152  35.3000380  21.2184996
  12.2626969  38.0247671  15.3510774  11.5937344  38.5093798  14.8674814
  12.1239839  38.2716891  16.2654153   4.0005969  27.5602024  19.0552775
   4.0390068  27.0265614  19.8489893   3.4946261  27.0337229  18.4363752
  16.4032238  40.0591414  21.9493433  16.9550546  40.2223036  22.7142518
  16.7438431  40.6495852  21.2773458  11.3796731  22.4066564  22.5515317
  11.4438057  23.2681395  22.1392715  11.3163851  21.7940566  21.8187676
  10.8549003  24.4789697  26.1988352  11.4821042  24.0966774  26.8125876
   9.9976922  24.2603899  26.5644044  21.2543112  34.8852672  27.8042087
  21.7983016  35.4982630  27.3097042  20.6729957  35.4432250  28.3209100
  19.5400625  38.0073390  18.9357115  19.4151764  37.2063130  18.4268060
  20.1979716  38.5019583  18.4471085  11.1608793  24.3622122  18.1134255
  10.4395379  24.9758090  17.9741728  11.9502049  24.8979887  18.0350901
  21.6035533  35.8082410  20.5636665  20.6565869  35.6887761  20.4914992
  21.9518306  34.9204908  20.6462926  13.9635107  21.6976549  24.3874907
  14.4869508  21.9438845  25.1501216  13.7447440  22.5296584  23.9678044
  18.6081967  35.6035126  16.7641017  18.4606929  34.6751834  16.9448587
  19.4335460  35.6255217  16.2798092  22.2116088  36.4263685  17.8505890
  23.1362636  36.2206546  17.7130341  22.0431392  36.1780086  18.7595231
  15.1687652  22.6390244  22.0724577  14.8284472  21.8398057  22.4745257
  14.4626658  22.9391955  21.5001411  15.8204124  19.7239556  20.5251900
  16.6430193  19.2500035  20.4030791  16.0642187  20.5030040  21.0250587
  13.3442702  26.4158677  18.3343879  13.1987283  26.7298980  19.2268161
  12.8667906  27.0343577  17.7814778  15.2039085  23.4061225  18.3824769
  15.1900654  22.5102318  18.0457067  15.9211513  23.4131889  19.0163055
  17.0565216  23.8398565  20.4277896  16.7982994  24.7615636  20.4262227
  16.5250256  23.4429000  21.1178360  22.0011405  36.9449352  13.2067981
  22.1748282  36.3795775  12.4541834  22.4940296  37.7450247  13.0247471
   7.8188364  28.9564021  21.2731540   7.2741833  29.7323829  21.4051815
   8.6967714  29.3034826  21.1150662  17.4767171  19.9730516  16.7879059
  17.4988868  20.0369849  15.8331038  17.8935230  19.1335024  16.9819565
  27.8550796  29.7085775  14.8258281  28.2981942  28.9593100  14.4277404
  26.9777306  29.6995912  14.4432013  22.9886577  36.2616117  10.3064880
  23.6837482  36.8822809  10.5252194  23.3309727  35.4111468  10.5817258
   8.6054386  28.0833918  24.1661697   7.8636122  28.2316553  24.7526328
   8.2847131  28.3442183  23.3028447  24.8878000  33.7115822  11.8352211
  25.4129324  34.0503095  11.1101531  24.8000353  32.7762838  11.6515345
  16.5498049  37.6249896  23.9642087  16.8585175  37.3799043  24.8364787
  17.3473531  37.8296534  23.4760957  16.5718661  39.7787805  16.1947464
  16.1323651  39.2864184  16.8880320  17.3226778  39.2360773  15.9539539
   9.0511000  35.9699346  16.1972092   9.8769020  35.6703118  15.8170735
   8.7005052  35.2006969  16.6461880  14.0192533  35.3225815  18.2669765
  13.3972542  34.6596520  17.9671993  14.6897400  35.3486946  17.5843413
   7.2519605  33.8885673  17.1561025   6.4151513  33.4607847  16.9745027
   7.2243250  34.0818116  18.0931817  14.0917061  23.8007603  27.8602271
  14.1405216  24.6769725  27.4780041  14.6339575  23.2584996  27.2873915
  13.5806040  33.8729738  11.7428226  13.7294160  34.5565202  11.0894899
  14.3872484  33.8534828  12.2577682  21.9873544  27.1772120  25.7695444
  22.8883407  27.0378585  25.4779442  22.0621518  27.3426575  26.7093621
  16.3216349  24.5538975  24.6148630  15.4519658  24.8472541  24.3431219
  16.5575829  25.1379420  25.3355894  27.3983661  31.1791014  17.2180729
  28.2330552  31.6180818  17.3818289  27.5342789  30.7029667  16.3988975
  24.4475166  28.7370748  23.1658217  24.9229288  28.9298395  22.3577068
  23.5240732  28.7929934  22.9201600  19.0255383  20.7718592  22.1314050
  19.5437327  21.5079619  21.8060539  18.6710516  21.0782585  22.9660810
  19.2767977  17.1918874  17.6514947  19.5569731  16.5242064  18.2775374
  20.0618584  17.3847970  17.1389611  17.0801446  36.3677868   9.2139973
  16.5075413  36.9868055   8.7610445  17.6534239  36.9177230   9.7479895
  23.1476835  25.6136508  21.3986522  24.0994258  25.7134606  21.4198746
  22.9780286  24.8214777  21.9084607  21.1691215  22.6992092  21.5845923
  20.5741147  22.9797104  20.8892412  20.8840912  23.1885993  22.3562664
  20.2998705  36.6515018  10.3448556  21.2329379  36.5860580  10.5481431
  20.2121918  37.4871285   9.8863088  22.9286722  35.9680889   7.3052503
  22.8500354  35.6340752   8.1988261  23.7496389  36.4602657   7.3043976
  25.6264913  28.8342628  20.5128822  25.5941233  27.8958629  20.6988506
  26.2365537  28.9126665  19.7794647  25.7759402  25.6253672  20.5587105
  25.2598450  24.8412128  20.3717034  26.6599350  25.2972388  20.7233624
  23.4370129  19.3694687  16.5182918  23.2394950  19.0609775  17.4026250
  24.0469834  20.0956326  16.6480848  31.4441463  29.8958635  19.6534859
  32.1744852  29.6343923  20.2142562  30.8348409  29.1587357  19.6936927
  29.5256760  28.0366498  20.2509310  28.7989924  27.9022463  19.6425801
  29.1104047  28.3443326  21.0566028  17.3486937  31.7556427  28.0156683
  18.2689946  31.9335026  28.2096729  17.3136520  30.8112473  27.8636382
   6.5669102  26.9495021  16.9409957   6.2471886  26.0960329  16.6484331
   6.0202530  27.1643599  17.6967925  10.3449009  29.6657462  20.6579464
  10.5635019  30.5974570  20.6767498  10.7574783  29.3065436  21.4434268
  15.2176874  25.2390668  30.0482213  15.1173601  26.1885025  29.9794304
  14.9998417  24.9108907  29.1758283   6.4357362  30.5697932  18.9103079
   5.7420833  30.1551885  18.3973033   7.1830353  30.6118469  18.3136498
  22.5722582  21.3604119  13.7758113  21.9921251  22.0188923  13.3936166
  22.3058515  20.5381464  13.3645531  21.0226149  20.7609177  15.9779434
  21.5225927  20.8725711  15.1693752  21.6661757  20.4570230  16.6180242
  15.0808145  28.6687807  28.8647275  14.5975226  29.4688167  29.0711164
  15.1669084  28.6795751  27.9114719   8.3494104  30.5016186  16.7869094
   8.3264792  30.6003873  15.8350977   8.6594741  31.3481337  17.1086260
  11.0081482  32.5592341  20.9015708  11.9624736  32.5276284  20.8345640
  10.8094006  32.0982965  21.7165934  11.5980864  31.1293457  23.4686506
  12.4173753  31.6237536  23.4921343  11.8717672  30.2125425  23.4404074
  21.3547460  23.5204210  12.8314462  20.4673315  23.8053860  12.6134656
  21.7701449  23.3597973  11.9841738  24.7061996  23.5450731  16.5468801
  25.4822387  24.0347183  16.8193418  23.9810131  23.9708785  17.0040670
  27.1434555  24.2578350  17.6042741  27.7379046  24.0174086  16.8936050
  27.2161139  23.5385480  18.2316278   9.3631711  38.1011961  17.9185906
   9.2286179  37.3412362  17.3523904   8.9463773  38.8252861  17.4514695
  20.4990674  33.2848884   6.9262481  21.2026524  33.4898887   7.5420137
  19.7753323  33.8525646   7.1911565  21.3288484  29.0358745  13.0464752
  21.2723685  29.4927297  12.2072384  21.8816827  28.2749430  12.8687594
  25.1393290  24.8248477  13.8714871  24.8830224  24.4245113  14.7023079
  24.5146158  25.5392271  13.7465010  29.4505628  27.5644551  16.3786163
  28.8905186  27.6337740  17.1517725  28.8449131  27.3885535  15.6585659
  12.5200837  38.9981278  18.1304349  12.4033221  39.9426710  18.0283039
  11.6993283  38.6954839  18.5190148  22.4077371  33.7231413   8.9760942
  23.2422975  33.2912612   8.7938416  22.2461714  33.5513427   9.9037836
  22.0623263  30.2263527  10.3417281  22.0072067  30.0607798   9.4005725
  21.4369319  30.9339560  10.4979471   6.8515778  25.4631591  24.1678703
   7.4974642  24.9530545  24.6565928   6.6432930  26.2000273  24.7422128
  19.3769171  32.5312439  29.6670844  20.2460330  32.7053091  29.3057479
  18.8975922  33.3506855  29.5446573  13.5455351  39.6509540  21.3460277
  14.4482598  39.6833150  21.6626772  13.3192721  38.7209991  21.3606613
  15.3008953  38.4040526  18.0070356  14.3504584  38.4042388  17.8934728
  15.6041439  37.6573261  17.4906391  11.1913269  22.6099208  28.2653717
  12.0544731  22.2536013  28.4757042  10.6178680  22.2713103  28.9529122
  31.0361646  44.2401065  19.0716118  31.6740056  44.1207812  18.3679458
  30.9182489  45.1881908  19.1304070  27.8451353  44.1928493  19.0077643
  27.5069864  44.0769557  18.1198178  28.7141121  43.7919658  18.9878649
  23.7038168  46.0463969  14.9974534  23.1403033  45.9553906  14.2290822
  23.5890563  45.2263874  15.4777026  28.3271136  45.3463344  24.9663849
  28.3159776  44.9516143  24.0944352  28.4891775  44.6129417  25.5597620
  21.2502600  47.5415161  17.8358754  22.0423892  47.2005985  17.4205054
  21.4899250  47.6510136  18.7560908  29.2837727  49.7134937  10.3088999
  28.6325707  50.2989017   9.9223013  30.0782090  50.2441132  10.3684036
  23.2093354  46.8024074  10.7076133  23.9824230  46.2553061  10.5689009
  23.5618753  47.6668323  10.9190595  25.0478397  48.1300456  23.9143032
  24.7568263  49.0346087  23.7989699  25.6835381  48.1716984  24.6287102
  25.9734604  45.5077305  20.5044392  26.5698176  45.2833327  19.7901355
  26.0309575  44.7662050  21.1069840  25.5459632  42.9616740   8.3394583
  25.7985153  42.4398261   7.5778046  24.6084191  42.7982885   8.4421267
  30.5902915  41.9652518  16.1469326  31.3766004  41.5471942  15.7959743
  30.8541619  42.8698611  16.3150975  30.7612992  47.4025369  10.8457983
  30.1258825  47.4759995  11.5578888  30.4310399  47.9918968  10.1677062
  35.9911342  41.9027752  17.0502305  36.7236514  41.3326968  17.2840134
  35.2350698  41.5149352  17.4908810  25.2655921  44.8644846  10.5418958
  25.1492179  44.1889749  11.2100042  25.3758181  44.3777220   9.7251111
  27.6087462  44.3254993  14.2465647  27.2445669  43.7985614  14.9578569
  28.4654578  43.9353462  14.0732133  33.5136762  35.6149326  21.5096913
  33.1820087  36.4844737  21.2858128  32.9182376  35.2985610  22.1890944
  27.2492949  39.3544893   9.2426996  27.4167351  40.2225129   9.6097467
  27.0590118  39.5172174   8.3188285  30.0068282  47.8161872  20.9092826
  29.7069005  48.7186911  20.8008633  29.6619341  47.5494055  21.7613979
  23.4580763  44.2675669  16.9429531  22.5331260  44.1351883  17.1507222
  23.7065176  45.0469888  17.4399473  33.4065426  40.3344412  18.5890263
  32.4982303  40.2659820  18.2949024  33.3553021  40.8116357  19.4172089
  27.2282170  41.8102550  10.2273663  27.1081795  42.2559601  11.0659143
  26.5334758  42.1587868   9.6687201  20.8189574  43.9108942  17.7773320
  20.9481955  44.1643421  18.6912731  20.1387026  44.5036650  17.4577975
  24.9889062  54.5806192  13.8763794  24.9113091  55.5314017  13.9552274
  24.3850705  54.2352065  14.5338720  35.2727072  38.5360850  20.3668137
  34.6301452  38.8293383  19.7207932  34.7682001  38.4213771  21.1721334
  32.9267236  42.2824023  11.0553997  33.8385092  42.5151410  10.8801694
  32.4176883  42.8661068  10.4929075  25.7352664  44.5619511  26.0943128
  26.4767348  45.1004555  25.8177951  25.0289649  45.1885800  26.2514680
  31.2108003  46.7048651  24.6915289  31.6191359  46.2631062  23.9469922
  30.4885265  46.1301279  24.9449482  31.5336818  47.2649842  18.4467578
  30.9045680  47.4295556  17.7443646  31.1462480  47.6791451  19.2178542
  35.4126050  48.2004280  15.8011942  34.7277088  48.5803181  15.2508975
  35.4969899  48.8099606  16.5343890  32.6676981  45.8464239  22.4007285
  32.8793877  46.4895999  21.7241667  32.6206730  45.0126555  21.9329216
  30.2703210  38.4582059  19.3043858  29.4087689  38.7563313  19.5960595
  30.2965645  38.6752458  18.3724890  27.0864780  47.0024250  15.7117663
  27.5503125  47.2811953  14.9222286  26.8221578  46.1007695  15.5290754
  23.9788861  46.5495732  18.6497426  24.5490218  46.9783000  18.0114911
  24.5696973  46.2678316  19.3481612  26.0233666  43.1247402  12.5207228
  26.7257709  43.5768446  12.9881155  25.6914294  42.4831221  13.1487122
  24.4714027  41.7159159  26.8958438  23.8412688  42.3975440  27.1293835
  24.3650115  41.6042241  25.9511576  19.7659000  41.3830955  17.8224362
  18.9758054  41.6388484  17.3464473  20.2570247  42.1979293  17.9276402
  33.7822809  48.7236194  20.5729643  34.6040253  48.3216381  20.2912324
  33.7785212  48.6204428  21.5245759  21.7173745  41.7475534  14.7807839
  20.9204909  41.8594229  15.2991334  21.4899337  42.0862187  13.9148729
  27.5479413  48.2720238  22.7290353  27.6123845  48.7340645  23.5648525
  26.8390337  47.6417602  22.8572663  18.0496703  41.6361445  20.2539353
  18.3004741  42.5208455  20.5196929  18.5856251  41.4566047  19.4814445
  41.8728802  45.0674943  16.9214614  41.1192511  44.4982341  16.7658619
  42.0076344  45.0337607  17.8685249  27.2627431  49.9388345  12.5969334
  27.1273105  50.7839881  13.0254181  27.8037243  50.1407623  11.8335267
  20.7156828  47.4563783  13.1697259  21.2281348  48.2507033  13.3202823
  21.3679541  46.7590073  13.1030860  22.5251713  50.5729539  15.2520012
  22.7018341  51.4947504  15.0640996  23.3208546  50.2587959  15.6814392
  21.8104069  42.6194171  25.1282175  21.6957584  41.7179428  25.4289274
  20.9548587  42.8657868  24.7766992  28.8895907  50.5611912  26.7269676
  28.4459761  49.7748290  26.4090580  29.5513120  50.7491062  26.0613566
  23.6483028  52.0907713  21.2530354  24.1990453  51.9624776  20.4807348
  22.8094504  52.3902602  20.9025247  30.9877145  50.8414711  24.7551077
  30.9695620  51.6623592  24.2631346  31.9097065  50.7168787  24.9801218
  27.4450199  48.3558841  25.5974585  27.9778536  47.5947129  25.3673893
  26.9164280  48.0632493  26.3398740  18.6805745  45.7852437  13.9456829
  19.5180967  46.1949446  13.7290537  18.8584012  44.8451879  13.9157023
  30.5770177  43.4527518   9.6340662  30.0616800  44.2232123   9.8729050
  30.3047485  42.7792654  10.2573724  28.1617288  38.2977219  14.6925901
  27.3058884  37.9084069  14.5131539  28.5744240  38.3769180  13.8325686
  29.6916434  35.8323562  19.0917460  29.1881230  35.7953697  18.2785266
  29.9847041  36.7416305  19.1514117  25.9359320  35.9162292  18.0983642
  26.8012317  35.7205100  17.7389532  26.0036829  35.6872644  19.0252999
  35.5504451  46.2059873  11.5693836  34.7733894  45.8671032  11.1248998
  36.2295932  46.2112496  10.8948801  30.3656480  41.3254610  11.4600443
  30.0606616  41.6400759  12.3110587  31.3186922  41.4036030  11.5027776
  28.8102912  47.4844833  13.1093397  28.2824273  46.7497593  12.7966635
  28.3090415  48.2619510  12.8633366  33.7895758  45.6793854  18.2260444
  33.1319432  46.3693115  18.3140572  34.5936157  46.0690286  18.5694430
  23.5421639  38.1464500  15.4700009  24.1165391  37.9239681  14.7373202
  24.1292622  38.2153194  16.2228610  32.6001217  44.0338227  16.2764385
  33.1133098  44.6668218  16.7786095  33.2502441  43.4339422  15.9107745
  23.8691227  40.1768961   9.4895894  23.0328539  40.5143647   9.8105169
  23.7295996  40.0417941   8.5523031  25.8444307  35.0205749  14.1975078
  25.1908719  34.7054766  13.5731693  25.8024781  34.3981489  14.9234901
  26.9555512  45.3025044   6.1128370  26.0482574  45.0714297   6.3119519
  27.4526544  44.5062663   6.3002352  29.8623591  54.0122551   9.0325057
  29.1885290  54.3154248   9.6410014  30.2489413  54.8151631   8.6830514
  29.0782048  41.5087682  18.5222726  28.1604609  41.7302629  18.3644414
  29.4942191  41.5833993  17.6634433  29.8617095  42.9079098  13.6525406
  30.6088914  43.4200495  13.3432528  30.1308685  42.5863151  14.5129800
  28.1343745  45.4037639  10.6352360  27.2254965  45.1196671  10.7324830
  28.1638829  45.8236717   9.7755667  33.3663013  49.0144228  14.4043528
  32.9125340  48.1735138  14.4608718  32.7356980  49.6505626  14.7418308
  32.3095932  39.9436214  15.6344195  31.5718689  39.4313600  15.9654438
  32.5622706  39.5036596  14.8227472  31.8095952  50.8520725  15.3393346
  32.1018926  51.4125782  14.6205712  32.3194573  51.1449286  16.0946505
  32.4107560  32.7212466  16.2285965  32.7166437  31.8609829  15.9411880
  33.1360165  33.3130086  16.0284959  18.7031916  43.1243153  14.6167563
  18.5056316  42.5312513  13.8918629  18.1478580  42.8195363  15.3343501
  26.6828639  43.0166259  16.7362156  26.7377249  42.0640096  16.6604632
  25.8719842  43.1725698  17.2203454  27.8319833  46.9446382   7.9740439
  27.3939263  46.2282241   7.5146076  28.5730274  47.1722497   7.4125530
  24.6220999  41.6343319  14.4952535  23.8088865  41.9337489  14.9017727
  25.1179994  41.2399008  15.2127017  26.7729577  51.6301076  16.4286799
  26.7305756  51.8561922  15.4995331  27.6892276  51.3964450  16.5772601
  35.9492948  45.2203579  14.0316758  35.8110847  45.4105175  13.1037947
  35.5929167  45.9822962  14.4884809  35.9762328  47.2880106  19.0428029
  36.4098834  47.1955395  19.8911083  36.6893908  47.2637607  18.4048045
  24.8895378  48.5064105  16.2248762  25.6835977  48.0114425  16.0231337
  24.1787070  47.9781968  15.8616468  29.7090223  50.8882200  20.5761130
  29.7627245  51.4573137  21.3438846  28.8405004  51.0584085  20.2115167
  21.1978142  42.6507187  12.3008515  20.2675730  42.5891642  12.5178477
  21.2935614  42.1283139  11.5045156  21.1163691  39.1761999  14.8886756
  21.3770508  40.0907333  14.7795917  21.9380863  38.7086442  15.0383369
  22.5888616  40.5899757  22.0585581  23.2611669  40.3817119  21.4098230
  21.7618402  40.3921843  21.6190813  36.8377877  47.3303807  21.5760915
  37.0313767  48.2349617  21.8220189  36.7378495  46.8711226  22.4099500
  31.8992986  47.4810550  27.1501795  31.7478492  47.2521101  26.2331879
  31.8897665  48.4381151  27.1633140  28.6678322  45.0542462  22.1348062
  29.5970382  45.2053622  21.9617029  28.2469352  45.1426483  21.2796708
  27.4666654  49.0793127  19.9046599  27.3277740  48.7111911  20.7772537
  26.6781250  49.5940766  19.7330557  28.0614806  54.1802223  11.2472136
  28.2366562  53.7090266  12.0617758  27.3747594  54.8067989  11.4753396
  29.0171869  48.4574729  17.2935437  28.6821702  48.4175499  18.1893087
  28.5175815  47.7919445  16.8205847  22.9916113  43.8642360  22.8188018
  22.8535911  43.1322598  23.4199557  23.9021037  43.7751260  22.5372206
  31.9531061  45.8030764   7.5672497  31.3360232  45.0777592   7.4705549
  31.4847549  46.5640124   7.2239571  25.6198414  43.5762319  22.3071698
  26.3298032  42.9355511  22.2658316  25.5767722  43.8275214  23.2297879
  33.6085193  50.5129672  25.2278277  33.5497739  49.8288892  24.5608860
  34.0104711  51.2548662  24.7758903  22.6275891  57.3291586  18.0211996
  22.8672490  57.9610110  18.6991014  21.7845088  56.9779626  18.3077355
  23.7429607  40.0216188   6.6893801  22.8659073  39.9004989   6.3256048
  24.2187360  39.2302266   6.4372690  33.6102600  48.4769256  23.4592257
  32.7229379  48.1395178  23.5818656  34.1801151  47.7452287  23.6961022
  15.2631747  44.8093348  16.7835308  15.9502787  44.4955078  16.1956323
  15.1079876  45.7134713  16.5102559  20.0666469  39.6983544  21.2120332
  19.9824658  39.0909214  20.4770742  19.2449175  40.1892563  21.2129828
  27.1403753  53.1370708  20.4253500  27.0673925  53.9425680  20.9372804
  26.6981146  53.3362674  19.6001521  26.9293533  52.3742479  13.9356321
  26.1461055  52.9164159  14.0294546  27.6286278  52.8916458  14.3350563
  30.2390183  38.1837108  16.5790527  30.7358882  37.4307070  16.2591597
  29.4677164  38.2201425  16.0133736  38.0919940  43.8877473  18.2208818
  38.0809817  44.7702189  17.8502751  37.2237320  43.5349024  18.0263355
  29.6002437  53.0357543  22.5811659  30.3130409  53.6705007  22.5087560
  29.1092465  53.1321409  21.7651660  31.3219964  46.9408795  14.1528950
  30.3876242  47.0610258  13.9833655  31.4996632  46.0381262  13.8888960
  26.8225152  40.3254491  16.3062211  26.4522939  39.7725531  16.9943117
  27.3184244  39.7212624  15.7537211  34.7092515  42.7826114  14.6878984
  35.1752967  43.6154106  14.6139287  35.1600015  42.3171096  15.3924243
  24.6514350  50.7851986  23.4017229  25.3523810  51.4188469  23.5546624
  24.1809465  51.1266718  22.6412869  32.7768746  49.1269936  11.6865136
  33.0528590  49.0126530  12.5959010  31.9073245  48.7287421  11.6477309
  32.6809178  35.1506701  18.7269886  31.7672258  35.3810928  18.8952093
  33.1102279  35.2345146  19.5783918  32.4515636  43.3396593  21.2269780
  31.7987086  43.5872501  20.5722232  32.8296016  42.5260732  20.8932257
  29.4122810  53.3756287  15.3297950  29.5945205  52.5577943  15.7925702
  30.2355796  53.5923979  14.8922840  29.7464976  52.3024472  12.5912998
  30.2752742  51.7916926  11.9783161  30.0093195  51.9867002  13.4558532
  20.2482068  50.3188341  20.3348332  20.8335505  49.5732029  20.4676236
  20.0506907  50.6292298  21.2184996  23.1020724  53.3539588  15.3510774
  22.4331099  53.8385716  14.8674814  22.9633593  53.6008809  16.2654153
  14.8399723  42.8893941  19.0552775  14.8783823  42.3557532  19.8489893
  14.3340016  42.3629147  18.4363752  27.2425992  55.3883332  21.9493433
  27.7944300  55.5514953  22.7142518  27.5832186  55.9787770  21.2773458
  22.2190485  37.7358482  22.5515317  22.2831812  38.5973313  22.1392715
  22.1557606  37.1232483  21.8187676  21.6942758  39.8081614  26.1988352
  22.3214797  39.4258692  26.8125876  20.8370677  39.5895816  26.5644044
  32.0936866  50.2144589  27.8042087  32.6376770  50.8274548  27.3097042
  31.5123711  50.7724168  28.3209100  18.4708301  41.6158043  12.1306707
  18.7661742  40.7068722  12.0773760  17.5696336  41.5945783  11.8087709
  30.3794379  53.3365307  18.9357115  30.2545519  52.5355047  18.4268060
  31.0373471  53.8311501  18.4471085  22.0002548  39.6914040  18.1134255
  21.2789133  40.3050008  17.9741728  22.7895803  40.2271805  18.0350901
  32.4429288  51.1374328  20.5636665  31.4959623  51.0179679  20.4914992
  32.7912061  50.2496826  20.6462926  20.1996142  39.2972141  12.2546032
  19.8708848  38.4169520  12.0721138  20.5535513  39.2419810  13.1422421
  29.4475721  50.9327044  16.7641017  29.3000684  50.0043751  16.9448587
  30.2729215  50.9547134  16.2798092  23.3137965  39.5845111  12.6221509
  23.6534038  40.1131032  11.9000118  23.7610086  39.9225517  13.3980076
  33.0509843  51.7555602  17.8505890  33.9756390  51.5498464  17.7130341
  32.8825146  51.5072004  18.7595231  26.6597878  35.0531474  20.5251900
  27.4823947  34.5791952  20.4030791  26.9035942  35.8321958  21.0250587
  25.3006113  38.0819732  10.8214802  26.0214475  38.4600985  10.3178519
  24.6771417  38.8008609  10.9249780  29.4437235  38.7864881  11.7573134
  29.6600850  39.6689519  11.4561963  28.9631303  38.3951095  11.0278776
  24.1836457  41.7450595  18.3343879  24.0381037  42.0590898  19.2268161
  23.7061660  42.3635495  17.7814778  26.0432840  38.7353143  18.3824769
  26.0294408  37.8394236  18.0457067  26.7605268  38.7423806  19.0163055
  32.8405159  52.2741270  13.2067981  33.0142037  51.7087692  12.4541834
  33.3334050  53.0742165  13.0247471  18.6582119  44.2855939  21.2731540
  18.1135587  45.0615747  21.4051815  19.5361469  44.6326744  21.1150662
  25.4469736  37.6167523  13.6512339  25.5685647  36.6884169  13.8503226
  25.1571778  37.6306209  12.7390654  28.3160926  35.3022433  16.7879059
  28.3382623  35.3661766  15.8331038  28.7328985  34.4626942  16.9819565
  38.6944550  45.0377693  14.8258281  39.1375696  44.2885018  14.4277404
  37.8171061  45.0287829  14.4432013  33.8280332  51.5908034  10.3064880
  34.5231236  52.2114727  10.5252194  34.1703482  50.7403386  10.5817258
  19.4448141  43.4125835  24.1661697  18.7029877  43.5608471  24.7526328
  19.1240885  43.6734101  23.3028447  35.7271755  49.0407740  11.8352211
  36.2523079  49.3795013  11.1101531  35.6394107  48.1054755  11.6515345
  27.3891803  52.9541814  23.9642087  27.6978930  52.7090960  24.8364787
  28.1867285  53.1588452  23.4760957  27.4112415  55.1079723  16.1947464
  26.9717406  54.6156102  16.8880320  28.1620532  54.5652691  15.9539539
  19.8904754  51.2991264  16.1972092  20.7162774  50.9995036  15.8170735
  19.5398806  50.5298886  16.6461880  24.8586288  50.6517732  18.2669765
  24.2366297  49.9888437  17.9671993  25.5291155  50.6778864  17.5843413
  18.0913360  49.2177590  17.1561025  17.2545268  48.7899765  16.9745027
  18.0637005  49.4110034  18.0931817  35.4165661  49.6740644  27.1403408
  34.6261205  49.6564782  26.6007908  35.1799015  50.2128937  27.8952445
  35.5363536  46.5233110  24.4536137  35.5861541  46.3583117  25.3951660
  35.4277459  45.6560369  24.0634018  24.4199795  49.2021656  11.7428226
  24.5687915  49.8857120  11.0894899  25.2266238  49.1826746  12.2577682
  32.8267298  42.5064038  25.7695444  33.7277161  42.3670503  25.4779442
  32.9015273  42.6718493  26.7093621  37.0381733  48.9430051  24.6978159
  36.7466541  49.3060032  25.5341620  36.4253864  48.2297060  24.5191491
  38.2377415  46.5082931  17.2180729  39.0724306  46.9472735  17.3818289
  38.3736544  46.0321584  16.3988975  35.2868921  44.0662666  23.1658217
  35.7623043  44.2590312  22.3577068  34.3634486  44.1221852  22.9201600
  22.1752428  45.2286833  12.7489295  21.9298469  44.3249163  12.9469505
  22.3448342  45.2303984  11.8068773  21.4448075  40.9615191  10.2475456
  20.7517320  41.0359546   9.5915492  21.1999827  40.1975534  10.7696973
  30.1161732  32.5210792  17.6514947  30.3963485  31.8533981  18.2775374
  30.9012339  32.7139888  17.1389611  27.9195200  51.6969786   9.2139973
  27.3469167  52.3159973   8.7610445  28.4927994  52.2469148   9.7479895
  33.9870590  40.9428426  21.3986522  34.9388013  41.0426524  21.4198746
  33.8174040  40.1506695  21.9084607  32.0084969  38.0284009  21.5845923
  31.4134902  38.3089022  20.8892412  31.7234666  38.5177910  22.3562664
  31.1392460  51.9806936  10.3448556  32.0723133  51.9152498  10.5481431
  31.0515673  52.8163203   9.8863088  33.7680477  51.2972807   7.3052503
  33.6894108  50.9632670   8.1988261  34.5890143  51.7894574   7.3043976
  36.4658668  44.1634546  20.5128822  36.4334988  43.2250547  20.6988506
  37.0759291  44.2418583  19.7794647  28.3041999  43.0330599   6.5556026
  29.2501103  42.9036807   6.6244444  27.9256244  42.2945261   7.0325454
  36.6153156  40.9545589  20.5587105  36.0992205  40.1704046  20.3717034
  37.4993105  40.6264306  20.7233624  34.2763883  34.6986605  16.5182918
  34.0788704  34.3901693  17.4026250  34.8863589  35.4248244  16.6480848
  42.2835218  45.2250553  19.6534859  43.0138606  44.9635841  20.2142562
  41.6742163  44.4879275  19.6936927  40.3650515  43.3658415  20.2509310
  39.6383678  43.2314380  19.6425801  39.9497802  43.6735244  21.0566028
  28.1880691  47.0848345  28.0156683  29.1083701  47.2626944  28.2096729
  28.1530274  46.1404390  27.8636382  26.4884916  40.9580575   6.4910911
  25.5816371  40.6613688   6.5673625  26.7660897  40.6610393   5.6245197
  17.4062856  42.2786939  16.9409957  17.0865640  41.4252247  16.6484331
  16.8596284  42.4935517  17.6967925  21.1842764  44.9949380  20.6579464
  21.4028773  45.9266487  20.6767498  21.5968537  44.6357354  21.4434268
  28.1046981  35.5017465  12.6455152  27.2947710  35.1564550  13.0210398
  28.7931398  35.1925009  13.2342764  30.0337530  34.5795512  14.2679449
  30.5868568  34.9990965  14.9269472  30.2707616  33.6531260  14.3102405
  26.0570629  40.5682585  30.0482213  25.9567356  41.5176942  29.9794304
  25.8392171  40.2400824  29.1758283  25.2583700  37.8167510   6.6322890
  26.1202864  38.1422409   6.8918708  25.4434045  37.0299006   6.1195956
  17.2751116  45.8989850  18.9103079  16.5814588  45.4843803  18.3973033
  18.0224107  45.9410387  18.3136498  33.4116337  36.6896037  13.7758113
  32.8315006  37.3480841  13.3936166  33.1452270  35.8673381  13.3645531
  31.8619903  36.0901095  15.9779434  32.3619682  36.2017629  15.1693752
  32.5055511  35.7862147  16.6180242  25.9201899  43.9979724  28.8647275
  25.4368981  44.7980084  29.0711164  26.0062838  44.0087669  27.9114719
  19.1887859  45.8308104  16.7869094  19.1658547  45.9295791  15.8350977
  19.4988495  46.6773255  17.1086260  21.8475237  47.8884259  20.9015708
  22.8018490  47.8568201  20.8345640  21.6487760  47.4274883  21.7165934
  22.4374619  46.4585375  23.4686506  23.2567508  46.9529454  23.4921343
  22.7111426  45.5417343  23.4404074  32.1941215  38.8496127  12.8314462
  31.3067070  39.1345778  12.6134656  32.6095204  38.6889891  11.9841738
  35.5455751  38.8742648  16.5468801  36.3216141  39.3639101  16.8193418
  34.8203885  39.3000702  17.0040670  37.9828310  39.5870267  17.6042741
  38.5772800  39.3466003  16.8936050  38.0554893  38.8677398  18.2316278
  20.2025465  53.4303878  17.9185906  20.0679933  52.6704279  17.3523904
  19.7857528  54.1544778  17.4514695  31.3384428  48.6140802   6.9262481
  32.0420278  48.8190804   7.5420137  30.6147077  49.1817564   7.1911565
  32.1682239  44.3650663  13.0464752  32.1117440  44.8219215  12.2072384
  32.7210581  43.6041348  12.8687594  35.9787045  40.1540395  13.8714871
  35.7223979  39.7537031  14.7023079  35.3539913  40.8684189  13.7465010
  40.2899382  42.8936468  16.3786163  39.7298940  42.9629658  17.1517725
  39.6842886  42.7177453  15.6585659  23.3594591  54.3273195  18.1304349
  23.2426975  55.2718628  18.0283039  22.5387037  54.0246757  18.5190148
  33.2471126  49.0523331   8.9760942  34.0816730  48.6204530   8.7938416
  33.0855469  48.8805345   9.9037836  32.9017018  45.5555444  10.3417281
  32.8465822  45.3899716   9.4005725  32.2763073  46.2631477  10.4979471
  17.6909533  40.7923509  24.1678703  18.3368396  40.2822463  24.6565928
  17.4826684  41.5292190  24.7422128  30.2162925  47.8604356  29.6670844
  31.0854085  48.0345009  29.3057479  29.7369677  48.6798773  29.5446573
  26.2113143  35.0563553   9.9202599  26.1991813  36.0005393  10.0770870
  27.1036565  34.8733699   9.6262060  24.3849105  54.9801457  21.3460277
  25.2876352  55.0125068  21.6626772  24.1586475  54.0501908  21.3606613
  26.1402707  53.7332444  18.0070356  25.1898338  53.7334305  17.8934728
  26.4435193  52.9865178  17.4906391  30.0265263  31.6506330  14.1748536
  29.2597659  31.0964817  14.3205218  30.4375968  31.7228199  15.0362688
  22.0307024  37.9391126  28.2653717  22.8938485  37.5827931  28.4757042
  21.4572435  37.6005021  28.9529122  41.8755401  59.5692982  19.0716118
  42.5133811  59.4499730  18.3679458  41.7576244  60.5173826  19.1304070
  38.6845107  59.5220410  19.0077643  38.3463619  59.4061475  18.1198178
  39.5534875  59.1211575  18.9878649  34.5431923  61.3755887  14.9974534
  33.9796788  61.2845824  14.2290822  34.4284318  60.5555791  15.4777026
  32.0896355  62.8707078  17.8358754  32.8817647  62.5297903  17.4205054
  32.3293005  62.9802053  18.7560908  40.1231482  65.0426854  10.3088999
  39.4719461  65.6280935   9.9223013  40.9175844  65.5733049  10.3684036
  34.0487109  62.1315992  10.7076133  34.8217985  61.5844979  10.5689009
  34.4012508  62.9960241  10.9190595  35.8872151  63.4592374  23.9143032
  35.5962017  64.3638005  23.7989699  36.5229136  63.5008901  24.6287102
  36.8128358  60.8369222  20.5044392  37.4091930  60.6125245  19.7901355
  36.8703330  60.0953968  21.1069840  36.3853386  58.2908658   8.3394583
  36.6378907  57.7690179   7.5778046  35.4477946  58.1274803   8.4421267
  41.4296669  57.2944436  16.1469326  42.2159759  56.8763859  15.7959743
  41.6935374  58.1990528  16.3150975  41.6006747  62.7317286  10.8457983
  40.9652580  62.8051913  11.5578888  41.2704153  63.3210885  10.1677062
  46.8305096  57.2319669  17.0502305  47.5630268  56.6618886  17.2840134
  46.0744452  56.8441270  17.4908810  36.1049675  60.1936764  10.5418958
  35.9885933  59.5181667  11.2100042  36.2151935  59.7069138   9.7251111
  38.4481216  59.6546911  14.2465647  38.0839423  59.1277532  14.9578569
  39.3048332  59.2645380  14.0732133  44.3530517  50.9441243  21.5096913
  44.0213842  51.8136654  21.2858128  43.7576130  50.6277527  22.1890944
  38.0886703  54.6836810   9.2426996  38.2561105  55.5517047   9.6097467
  37.8983872  54.8464092   8.3188285  40.8462036  63.1453789  20.9092826
  40.5462759  64.0478828  20.8008633  40.5013096  62.8785973  21.7613979
  34.2974518  59.5967586  16.9429531  33.3725014  59.4643800  17.1507222
  34.5458931  60.3761805  17.4399473  44.2459180  55.6636330  18.5890263
  43.3376057  55.5951738  18.2949024  44.1946776  56.1408274  19.4172089
  38.0675924  57.1394468  10.2273663  37.9475549  57.5851519  11.0659143
  37.3728512  57.4879786   9.6687201  31.6583329  59.2400860  17.7773320
  31.7875710  59.4935339  18.6912731  30.9780780  59.8328568  17.4577975
  35.8282816  69.9098110  13.8763794  35.7506846  70.8605935  13.9552274
  35.2244460  69.5643982  14.5338720  43.7660990  57.6115941  11.0553997
  44.6778846  57.8443328  10.8801694  43.2570637  58.1952985  10.4929075
  36.5746418  59.8911429  26.0943128  37.3161103  60.4296472  25.8177951
  35.8683404  60.5177717  26.2514680  42.3730572  62.5941760  18.4467578
  41.7439435  62.7587474  17.7443646  41.9856235  63.0083369  19.2178542
  46.2519804  63.5296197  15.8011942  45.5670843  63.9095099  15.2508975
  46.3363654  64.1391524  16.5343890  41.1096965  53.7873977  19.3043858
  40.2481444  54.0855231  19.5960595  41.1359400  54.0044376  18.3724890
  37.9258534  62.3316168  15.7117663  38.3896880  62.6103871  14.9222286
  37.6615332  61.4299612  15.5290754  34.8182615  61.8787649  18.6497426
  35.3883972  62.3074918  18.0114911  35.4090727  61.5970234  19.3481612
  36.8627420  58.4539320  12.5207228  37.5651464  58.9060364  12.9881155
  36.5308049  57.8123139  13.1487122  35.3107782  57.0451077  26.8958438
  34.6806443  57.7267358  27.1293835  35.2043870  56.9334158  25.9511576
  30.6052754  56.7122873  17.8224362  29.8151808  56.9680401  17.3464473
  31.0964002  57.5271211  17.9276402  44.6216564  64.0528112  20.5729643
  45.4434008  63.6508299  20.2912324  44.6178967  63.9496346  21.5245759
  32.5567500  57.0767452  14.7807839  31.7598663  57.1886146  15.2991334
  32.3293092  57.4154104  13.9148729  38.3873167  63.6012155  22.7290353
  38.4517600  64.0632562  23.5648525  37.6784091  62.9709520  22.8572663
  28.8890457  56.9653363  20.2539353  29.1398496  57.8500373  20.5196929
  29.4250006  56.7857965  19.4814445  52.7122557  60.3966860  16.9214614
  51.9586265  59.8274258  16.7658619  52.8470098  60.3629525  17.8685249
  38.1021185  65.2680263  12.5969334  37.9666860  66.1131798  13.0254181
  38.6430998  65.4699540  11.8335267  34.5888525  51.3471843  29.2583689
  34.1955470  50.7938041  29.9331333  35.4054665  51.6582421  29.6490206
  31.5550582  62.7855701  13.1697259  32.0675103  63.5798951  13.3202823
  32.2073295  62.0881991  13.1030860  33.3645467  65.9021457  15.2520012
  33.5412095  66.8239422  15.0640996  34.1602301  65.5879876  15.6814392
  37.5056486  52.7629722  26.8503945  38.2466199  53.3636875  26.7708408
  37.7374408  52.0207359  26.2921988  32.6497824  57.9486089  25.1282175
  32.5351339  57.0471346  25.4289274  31.7942341  58.1949786  24.7766992
  34.4876783  67.4199631  21.2530354  35.0384208  67.2916694  20.4807348
  33.6488258  67.7194520  20.9025247  38.2843954  63.6850759  25.5974585
  38.8172290  62.9239047  25.3673893  37.7558035  63.3924410  26.3398740
  41.4513649  48.7910825  21.1268227  41.1077918  49.6812466  21.0507338
  41.8192611  48.6012482  20.2637812  29.5199499  61.1144355  13.9456829
  30.3574721  61.5241363  13.7290537  29.6977767  60.1743797  13.9157023
  41.4163931  58.7819436   9.6340662  40.9010555  59.5524040   9.8729050
  41.1441240  58.1084572  10.2573724  39.0011042  53.6269136  14.6925901
  38.1452639  53.2375987  14.5131539  39.4137994  53.7061097  13.8325686
  40.5310189  51.1615480  19.0917460  40.0274985  51.1245615  18.2785266
  40.8240796  52.0708222  19.1514117  36.7753075  51.2454209  18.0983642
  37.6406072  51.0497018  17.7389532  36.8430584  51.0164561  19.0252999
  46.3898205  61.5351790  11.5693836  45.6127648  61.1962950  11.1248998
  47.0689686  61.5404413  10.8948801  41.2050234  56.6546528  11.4600443
  40.9000370  56.9692677  12.3110587  42.1580677  56.7327948  11.5027776
  39.6496666  62.8136751  13.1093397  39.1218028  62.0789511  12.7966635
  39.1484169  63.5911427  12.8633366  44.6289512  61.0085772  18.2260444
  43.9713187  61.6985033  18.3140572  45.4329912  61.3982204  18.5694430
  34.3815394  53.4756417  15.4700009  34.9559146  53.2531599  14.7373202
  34.9686376  53.5445112  16.2228610  43.4394971  59.3630144  16.2764385
  43.9526853  59.9960136  16.7786095  44.0896195  58.7631340  15.9107745
  34.7084981  55.5060878   9.4895894  33.8722293  55.8435565   9.8105169
  34.5689751  55.3709858   8.5523031  36.6838062  50.3497666  14.1975078
  36.0302474  50.0346683  13.5731693  36.6418536  49.7273407  14.9234901
  37.7949266  60.6316961   6.1128370  36.8876328  60.4006215   6.3119519
  38.2920298  59.8354581   6.3002352  40.7017345  69.3414469   9.0325057
  40.0279044  69.6446165   9.6410014  41.0883167  70.1443549   8.6830514
  39.9175802  56.8379600  18.5222726  38.9998363  57.0594547  18.3644414
  40.3335946  56.9125910  17.6634433  40.7010850  58.2371015  13.6525406
  41.4482669  58.7492413  13.3432528  40.9702439  57.9155068  14.5129800
  38.9737500  60.7329556  10.6352360  38.0648719  60.4488589  10.7324830
  39.0032584  61.1528635   9.7755667  44.2056767  64.3436146  14.4043528
  43.7519094  63.5027056  14.4608718  43.5750734  64.9797544  14.7418308
  43.1489687  55.2728132  15.6344195  42.4112444  54.7605518  15.9654438
  43.4016460  54.8328513  14.8227472  42.6489707  66.1812642  15.3393346
  42.9412681  66.7417700  14.6205712  43.1588327  66.4741203  16.0946505
  43.2501314  48.0504384  16.2285965  43.5560191  47.1901747  15.9411880
  43.9753919  48.6422004  16.0284959  29.5425670  58.4535070  14.6167563
  29.3450070  57.8604431  13.8918629  28.9872334  58.1487281  15.3343501
  37.5222394  58.3458177  16.7362156  37.5771004  57.3932013  16.6604632
  36.7113596  58.5017616  17.2203454  38.6713588  62.2738300   7.9740439
  38.2333018  61.5574159   7.5146076  39.4124029  62.5014415   7.4125530
  35.4614754  56.9635237  14.4952535  34.6482619  57.2629407  14.9017727
  35.9573748  56.5690925  15.2127017  37.6123332  66.9592993  16.4286799
  37.5699511  67.1853840  15.4995331  38.5286031  66.7256368  16.5772601
  46.7886703  60.5495497  14.0316758  46.6504601  60.7397093  13.1037947
  46.4322921  61.3114880  14.4884809  34.9528829  54.5353592  20.1113770
  35.5928208  54.3942351  19.4136733  34.1206359  54.2488105  19.7352372
  35.7289133  63.8356022  16.2248762  36.5229731  63.3406343  16.0231337
  35.0180825  63.3073886  15.8616468  40.5483977  66.2174118  20.5761130
  40.6020999  66.7865054  21.3438846  39.6798758  66.3876003  20.2115167
  32.0371896  57.9799104  12.3008515  31.1069484  57.9183560  12.5178477
  32.1329368  57.4575057  11.5045156  31.9557445  54.5053917  14.8886756
  32.2164262  55.4199250  14.7795917  32.7774617  54.0378360  15.0383369
  33.4282370  55.9191674  22.0585581  34.1005424  55.7109036  21.4098230
  32.6012157  55.7213760  21.6190813  39.3307942  52.5453615  24.0751242
  38.6835857  53.2443565  23.9815718  40.1008958  52.9789759  24.4427490
  38.3060409  64.4085044  19.9046599  38.1671494  64.0403829  20.7772537
  37.5175005  64.9232684  19.7330557  38.9008561  69.5094141  11.2472136
  39.0760316  69.0382184  12.0617758  38.2141349  70.1359907  11.4753396
  39.8565624  63.7866647  17.2935437  39.5215456  63.7467417  18.1893087
  39.3569569  63.1211363  16.8205847  33.8309868  59.1934277  22.8188018
  33.6929666  58.4614516  23.4199557  34.7414791  59.1043177  22.5372206
  42.7924815  61.1322682   7.5672497  42.1753986  60.4069510   7.4705549
  42.3241304  61.8932042   7.2239571  36.4592168  58.9054237  22.3071698
  37.1691787  58.2647429  22.2658316  36.4161476  59.1567131  23.2297879
  35.1721102  55.8919454  24.1267337  34.6358459  55.4410193  24.7788934
  34.5837811  56.0265363  23.3837802  33.4669646  72.6583504  18.0211996
  33.7066244  73.2902028  18.6991014  32.6238842  72.3071544  18.3077355
  34.5823361  55.3508106   6.6893801  33.7052828  55.2296907   6.3256048
  35.0581114  54.5594184   6.4372690  26.1025501  60.1385266  16.7835308
  26.7896541  59.8246996  16.1956323  25.9473630  61.0426630  16.5102559
  30.9060224  55.0275462  21.2120332  30.8218412  54.4201132  20.4770742
  30.0842930  55.5184480  21.2129828  37.9797508  68.4662626  20.4253500
  37.9067679  69.2717598  20.9372804  37.5374901  68.6654592  19.6001521
  37.7687287  67.7034396  13.9356321  36.9854809  68.2456076  14.0294546
  38.4680032  68.2208376  14.3350563  41.0783937  53.5129026  16.5790527
  41.5752637  52.7598988  16.2591597  40.3070919  53.5493342  16.0133736
  40.4396191  68.3649460  22.5811659  41.1524163  68.9996925  22.5087560
  39.9486220  68.4613326  21.7651660  42.1613718  62.2700713  14.1528950
  41.2269997  62.3902175  13.9833655  42.3390387  61.3673180  13.8888960
  37.6618906  55.6546409  16.3062211  37.2916694  55.1017449  16.9943117
  38.1577999  55.0504542  15.7537211  45.5486269  58.1118032  14.6878984
  46.0146722  58.9446024  14.6139287  45.9993770  57.6463014  15.3924243
  35.4908105  66.1143904  23.4017229  36.1917564  66.7480387  23.5546624
  35.0203220  66.4558635  22.6412869  43.6162501  64.4561853  11.6865136
  43.8922344  64.3418448  12.5959010  42.7466999  64.0579338  11.6477309
  43.5202932  50.4798619  18.7269886  42.6066012  50.7102846  18.8952093
  43.9496034  50.5637063  19.5783918  40.2516565  68.7048204  15.3297950
  40.4338959  67.8869860  15.7925702  41.0749551  68.9215897  14.8922840
  40.5858730  67.6316389  12.5912998  41.1146497  67.1208844  11.9783161
  40.8486950  67.3158920  13.4558532  31.0875823  65.6480259  20.3348332
  31.6729260  64.9023947  20.4676236  30.8900661  65.9584215  21.2184996
  33.9414478  68.6831506  15.3510774  33.2724853  69.1677634  14.8674814
  33.8027348  68.9300727  16.2654153  25.6793478  58.2185859  19.0552775
  25.7177577  57.6849450  19.8489893  25.1733770  57.6921064  18.4363752
  38.0819747  70.7175250  21.9493433  38.6338055  70.8806871  22.7142518
  38.4225940  71.3079687  21.2773458  33.0584240  53.0650399  22.5515317
  33.1225566  53.9265230  22.1392715  32.9951360  52.4524401  21.8187676
  32.5336512  55.1373532  26.1988352  33.1608551  54.7550609  26.8125876
  31.6764431  54.9187734  26.5644044  29.3102055  56.9449961  12.1306707
  29.6055496  56.0360639  12.0773760  28.4090091  56.9237701  11.8087709
  41.2188134  68.6657225  18.9357115  41.0939273  67.8646965  18.4268060
  41.8767225  69.1603419  18.4471085  32.8396302  55.0205958  18.1134255
  32.1182888  55.6341925  17.9741728  33.6289558  55.5563722  18.0350901
  43.2823042  66.4666245  20.5636665  42.3353378  66.3471596  20.4914992
  43.6305815  65.5788743  20.6462926  35.6422616  52.3560384  24.3874907
  36.1657017  52.6022681  25.1501216  35.4234949  53.1880419  23.9678044
  31.0389897  54.6264059  12.2546032  30.7102603  53.7461438  12.0721138
  31.3929267  54.5711727  13.1422421  40.2869476  66.2618961  16.7641017
  40.1394438  65.3335669  16.9448587  41.1122969  66.2839052  16.2798092
  34.1531720  54.9137029  12.6221509  34.4927792  55.4422950  11.9000118
  34.6003840  55.2517435  13.3980076  43.8903597  67.0847520  17.8505890
  44.8150145  66.8790382  17.7130341  43.7218901  66.8363921  18.7595231
  36.8475161  53.2974079  22.0724577  36.5071981  52.4981892  22.4745257
  36.1414167  53.5975790  21.5001411  37.4991632  50.3823392  20.5251900
  38.3217702  49.9083870  20.4030791  37.7429696  51.1613875  21.0250587
  36.1399867  53.4111650  10.8214802  36.8608229  53.7892903  10.3178519
  35.5165171  54.1300527  10.9249780  40.2830990  54.1156799  11.7573134
  40.4994604  54.9981437  11.4561963  39.8025057  53.7243012  11.0278776
  35.0230211  57.0742512  18.3343879  34.8774792  57.3882815  19.2268161
  34.5455415  57.6927413  17.7814778  36.8826594  54.0645060  18.3824769
  36.8688163  53.1686154  18.0457067  37.5999022  54.0715724  19.0163055
  38.7352725  54.4982401  20.4277896  38.4770503  55.4199471  20.4262227
  38.2037765  54.1012835  21.1178360  43.6798914  67.6033188  13.2067981
  43.8535791  67.0379610  12.4541834  44.1727805  68.4034083  13.0247471
  29.4975873  59.6147857  21.2731540  28.9529341  60.3907665  21.4051815
  30.3755223  59.9618661  21.1150662  36.2863490  52.9459441  13.6512339
  36.4079401  52.0176087  13.8503226  35.9965532  52.9598127  12.7390654
  39.1554680  50.6314351  16.7879059  39.1776377  50.6953684  15.8331038
  39.5722739  49.7918860  16.9819565  49.5338305  60.3669611  14.8258281
  49.9769451  59.6176936  14.4277404  48.6564815  60.3579747  14.4432013
  44.6674086  66.9199952  10.3064880  45.3624991  67.5406645  10.5252194
  45.0097236  66.0695303  10.5817258  30.2841895  58.7417753  24.1661697
  29.5423631  58.8900388  24.7526328  29.9634640  59.0026019  23.3028447
  46.5665509  64.3699658  11.8352211  47.0916833  64.7086930  11.1101531
  46.4787862  63.4346673  11.6515345  38.2285558  68.2833731  23.9642087
  38.5372684  68.0382878  24.8364787  39.0261040  68.4880370  23.4760957
  38.2506170  70.4371641  16.1947464  37.8111160  69.9448020  16.8880320
  39.0014287  69.8944609  15.9539539  30.7298509  66.6283182  16.1972092
  31.5556529  66.3286954  15.8170735  30.3792561  65.8590804  16.6461880
  35.6980042  65.9809650  18.2669765  35.0760051  65.3180355  17.9671993
  36.3684909  66.0070782  17.5843413  28.9307114  64.5469508  17.1561025
  28.0939022  64.1191683  16.9745027  28.9030759  64.7401951  18.0931817
  35.7704570  54.4591438  27.8602271  35.8192725  55.3353561  27.4780041
  36.3127084  53.9168831  27.2873915  35.2593549  64.5313573  11.7428226
  35.4081669  65.2149038  11.0894899  36.0659992  64.5118663  12.2577682
  49.0771169  61.8374849  17.2180729  49.9118061  62.2764653  17.3818289
  49.2130298  61.3613502  16.3988975  33.0146182  60.5578751  12.7489295
  32.7692224  59.6541081  12.9469505  33.1842097  60.5595901  11.8068773
  40.7042892  51.4302427  22.1314050  41.2224836  52.1663454  21.8060539
  40.3498025  51.7366421  22.9660810  32.2841830  56.2907108  10.2475456
  31.5911074  56.3651463   9.5915492  32.0393581  55.5267452  10.7696973
  40.9555486  47.8502710  17.6514947  41.2357240  47.1825899  18.2775374
  41.7406093  48.0431805  17.1389611  38.7588955  67.0261704   9.2139973
  38.1862922  67.6451891   8.7610445  39.3321748  67.5761065   9.7479895
  41.9786214  67.3098854  10.3448556  42.9116887  67.2444416  10.5481431
  41.8909427  68.1455121   9.8863088  44.6074231  66.6264724   7.3052503
  44.5287863  66.2924588   8.1988261  45.4283898  67.1186492   7.3043976
  39.1435753  58.3622516   6.5556026  40.0894858  58.2328725   6.6244444
  38.7649998  57.6237178   7.0325454  45.1157638  50.0278522  16.5182918
  44.9182459  49.7193611  17.4026250  45.7257343  50.7540161  16.6480848
  37.3278670  56.2872493   6.4910911  36.4210126  55.9905606   6.5673625
  37.6054651  55.9902311   5.6245197  28.2456611  57.6078856  16.9409957
  27.9259395  56.7544164  16.6484331  27.6990039  57.8227434  17.6967925
  32.0236518  60.3241297  20.6579464  32.2422528  61.2558405  20.6767498
  32.4362292  59.9649272  21.4434268  38.9440736  50.8309383  12.6455152
  38.1341464  50.4856468  13.0210398  39.6325153  50.5216926  13.2342764
  40.8731284  49.9087429  14.2679449  41.4262323  50.3282883  14.9269472
  41.1101371  48.9823177  14.3102405  36.8964383  55.8974503  30.0482213
  36.7961110  56.8468860  29.9794304  36.6785926  55.5692742  29.1758283
  36.0977455  53.1459428   6.6322890  36.9596619  53.4714326   6.8918708
  36.2827799  52.3590924   6.1195956  28.1144871  61.2281768  18.9103079
  27.4208342  60.8135721  18.3973033  28.8617862  61.2702304  18.3136498
  44.2510091  52.0187955  13.7758113  43.6708760  52.6772759  13.3936166
  43.9846024  51.1965299  13.3645531  42.7013658  51.4193012  15.9779434
  43.2013436  51.5309547  15.1693752  43.3449266  51.1154065  16.6180242
  36.7595654  59.3271642  28.8647275  36.2762735  60.1272002  29.0711164
  36.8456593  59.3379587  27.9114719  30.0281613  61.1600022  16.7869094
  30.0052301  61.2587709  15.8350977  30.3382250  62.0065172  17.1086260
  32.6868991  63.2176177  20.9015708  33.6412245  63.1860119  20.8345640
  32.4881515  62.7566800  21.7165934  33.2768373  61.7877293  23.4686506
  34.0961262  62.2821371  23.4921343  33.5505181  60.8709261  23.4404074
  43.0334969  54.1788045  12.8314462  42.1460824  54.4637696  12.6134656
  43.4488958  54.0181808  11.9841738  46.3849505  54.2034566  16.5468801
  47.1609896  54.6931018  16.8193418  45.6597640  54.6292620  17.0040670
  31.0419220  68.7595796  17.9185906  30.9073688  67.9996197  17.3523904
  30.6251282  69.4836696  17.4514695  42.1778183  63.9432720   6.9262481
  42.8814033  64.1482722   7.5420137  41.4540832  64.5109481   7.1911565
  43.0075993  59.6942581  13.0464752  42.9511194  60.1511132  12.2072384
  43.5604336  58.9333265  12.8687594  46.8180799  55.4832313  13.8714871
  46.5617733  55.0828948  14.7023079  46.1933667  56.1976107  13.7465010
  51.1293137  58.2228386  16.3786163  50.5692695  58.2921575  17.1517725
  50.5236640  58.0469371  15.6585659  34.1988346  69.6565113  18.1304349
  34.0820730  70.6010546  18.0283039  33.3780792  69.3538675  18.5190148
  44.0864880  64.3815249   8.9760942  44.9210484  63.9496447   8.7938416
  43.9249223  64.2097262   9.9037836  43.7410772  60.8847362  10.3417281
  43.6859576  60.7191634   9.4005725  43.1156828  61.5923395  10.4979471
  28.5303287  56.1215426  24.1678703  29.1762151  55.6114380  24.6565928
  28.3220438  56.8584108  24.7422128  37.0506898  50.3855471   9.9202599
  37.0385568  51.3297311  10.0770870  37.9430320  50.2025617   9.6262060
  35.2242860  70.3093375  21.3460277  36.1270106  70.3416985  21.6626772
  34.9980230  69.3793826  21.3606613  36.9796462  69.0624362  18.0070356
  36.0292093  69.0626223  17.8934728  37.2828948  68.3157096  17.4906391
  40.8659017  46.9798248  14.1748536  40.0991413  46.4256734  14.3205218
  41.2769722  47.0520117  15.0362688  32.8700778  53.2683044  28.2653717
  33.7332240  52.9119848  28.4757042  32.2966189  52.9296938  28.9529122
  52.7149155  74.8984900  19.0716118  53.3527565  74.7791647  18.3679458
  52.5969998  75.8465744  19.1304070  49.5238862  74.8512328  19.0077643
  49.1857373  74.7353393  18.1198178  50.3928630  74.4503493  18.9878649
  45.3825677  76.7047804  14.9974534  44.8190542  76.6137741  14.2290822
  45.2678072  75.8847709  15.4777026  50.0058645  76.0047180  24.9663849
  49.9947285  75.6099978  24.0944352  50.1679284  75.2713252  25.5597620
  42.9290109  78.1998996  17.8358754  43.7211401  77.8589821  17.4205054
  43.1686759  78.3093971  18.7560908  44.8880863  77.4607909  10.7076133
  45.6611739  76.9136896  10.5689009  45.2406262  78.3252159  10.9190595
  46.7265906  78.7884292  23.9143032  46.4355772  79.6929922  23.7989699
  47.3622890  78.8300819  24.6287102  47.6522113  76.1661140  20.5044392
  48.2485685  75.9417162  19.7901355  47.7097084  75.4245886  21.1069840
  52.2690424  72.6236354  16.1469326  53.0553513  72.2055777  15.7959743
  52.5329128  73.5282446  16.3150975  57.6698851  72.5611587  17.0502305
  58.4024023  71.9910804  17.2840134  56.9138207  72.1733187  17.4908810
  46.9443430  75.5228681  10.5418958  46.8279688  74.8473585  11.2100042
  47.0545690  75.0361055   9.7251111  49.2874971  74.9838828  14.2465647
  48.9233178  74.4569449  14.9578569  50.1442087  74.5937298  14.0732133
  55.1924271  66.2733161  21.5096913  54.8607596  67.1428572  21.2858128
  54.5969885  65.9569445  22.1890944  48.9280458  70.0128728   9.2426996
  49.0954860  70.8808965   9.6097467  48.7377627  70.1756010   8.3188285
  51.6855791  78.4745707  20.9092826  51.3856514  79.3770746  20.8008633
  51.3406850  78.2077890  21.7613979  45.1368272  74.9259504  16.9429531
  44.2118769  74.7935718  17.1507222  45.3852685  75.7053723  17.4399473
  55.0852935  70.9928247  18.5890263  54.1769812  70.9243656  18.2949024
  55.0340530  71.4700192  19.4172089  48.9069678  72.4686386  10.2273663
  48.7869304  72.9143436  11.0659143  48.2122267  72.8171703   9.6687201
  42.4977083  74.5692777  17.7773320  42.6269464  74.8227256  18.6912731
  41.8174535  75.1620485  17.4577975  49.1593800  72.4117893  26.5325161
  48.3827134  72.9711813  26.5228025  49.7984363  72.8974676  27.0540031
  56.9514581  69.1944686  20.3668137  56.3088961  69.4877219  19.7207932
  56.4469510  69.0797606  21.1721334  47.4140173  75.2203346  26.0943128
  48.1554857  75.7588390  25.8177951  46.7077158  75.8469635  26.2514680
  52.8895512  77.3632487  24.6915289  53.2978868  76.9214897  23.9469922
  52.1672774  76.7885114  24.9449482  49.2426582  72.3005093  22.0648846
  50.0887778  72.7244507  22.2083495  49.1825220  71.6438718  22.7587409
  53.2124327  77.9233677  18.4467578  52.5833189  78.0879391  17.7443646
  52.8249989  78.3375287  19.2178542  52.3926028  69.9609462  23.7230020
  52.1486960  70.7151522  23.1864296  52.6685958  70.3394809  24.5577267
  54.3464490  76.5048074  22.4007285  54.5581386  77.1479834  21.7241667
  54.2994239  75.6710391  21.9329216  51.9490719  69.1165895  19.3043858
  51.0875198  69.4147148  19.5960595  51.9753154  69.3336294  18.3724890
  48.7652289  77.6608085  15.7117663  49.2290634  77.9395788  14.9222286
  48.5009087  76.7591530  15.5290754  45.6576370  77.2079567  18.6497426
  46.2277727  77.6366835  18.0114911  46.2484482  76.9262152  19.3481612
  47.7021175  73.7831238  12.5207228  48.4045218  74.2352281  12.9881155
  47.3701803  73.1415057  13.1487122  46.1501536  72.3742994  26.8958438
  45.5200197  73.0559275  27.1293835  46.0437624  72.2626076  25.9511576
  41.4446509  72.0414790  17.8224362  40.6545563  72.2972319  17.3464473
  41.9357756  72.8563128  17.9276402  55.4610318  79.3820030  20.5729643
  56.2827762  78.9800217  20.2912324  55.4572721  79.2788264  21.5245759
  43.3961254  72.4059370  14.7807839  42.5992418  72.5178064  15.2991334
  43.1686846  72.7446022  13.9148729  49.2266922  78.9304073  22.7290353
  49.2911354  79.3924480  23.5648525  48.5177846  78.3001438  22.8572663
  39.7284212  72.2945281  20.2539353  39.9792250  73.1792291  20.5196929
  40.2643760  72.1149882  19.4814445  63.5516311  75.7258778  16.9214614
  62.7980020  75.1566176  16.7658619  63.6863853  75.6921443  17.8685249
  42.3944337  78.1147618  13.1697259  42.9068857  78.9090869  13.3202823
  43.0467050  77.4173909  13.1030860  44.2039222  81.2313375  15.2520012
  44.3805850  82.1531339  15.0640996  44.9996055  80.9171794  15.6814392
  48.3450240  68.0921639  26.8503945  49.0859954  68.6928792  26.7708408
  48.5768163  67.3499277  26.2921988  43.4891578  73.2778007  25.1282175
  43.3745093  72.3763264  25.4289274  42.6336096  73.5241703  24.7766992
  50.5683416  81.2195747  26.7269676  50.1247270  80.4332125  26.4090580
  51.2300629  81.4074897  26.0613566  45.3270537  82.7491548  21.2530354
  45.8777962  82.6208612  20.4807348  44.4882013  83.0486437  20.9025247
  52.6664654  81.4998547  24.7551077  52.6483129  82.3207428  24.2631346
  53.5884574  81.3752622  24.9801218  49.1237708  79.0142676  25.5974585
  49.6566045  78.2530964  25.3673893  48.5951789  78.7216328  26.3398740
  52.2907403  64.1202742  21.1268227  51.9471672  65.0104384  21.0507338
  52.6586366  63.9304400  20.2637812  40.3593254  76.4436273  13.9456829
  41.1968476  76.8533281  13.7290537  40.5371521  75.5035715  13.9157023
  49.8404797  68.9561054  14.6925901  48.9846393  68.5667905  14.5131539
  50.2531749  69.0353015  13.8325686  51.3703943  66.4907397  19.0917460
  50.8668739  66.4537533  18.2785266  51.6634550  67.4000140  19.1514117
  47.6146829  66.5746127  18.0983642  48.4799826  66.3788936  17.7389532
  47.6824338  66.3456479  19.0252999  52.0443989  71.9838445  11.4600443
  51.7394125  72.2984595  12.3110587  52.9974431  72.0619865  11.5027776
  50.4890421  78.1428669  13.1093397  49.9611782  77.4081428  12.7966635
  49.9877924  78.9203345  12.8633366  55.4683267  76.3377689  18.2260444
  54.8106941  77.0276951  18.3140572  56.2723666  76.7274121  18.5694430
  45.2209148  68.8048335  15.4700009  45.7952900  68.5823517  14.7373202
  45.8080131  68.8737030  16.2228610  54.2788726  74.6922062  16.2764385
  54.7920607  75.3252054  16.7786095  54.9289950  74.0923257  15.9107745
  45.5478736  70.8352796   9.4895894  44.7116048  71.1727483   9.8105169
  45.4083505  70.7001776   8.5523031  47.5231816  65.6789584  14.1975078
  46.8696228  65.3638601  13.5731693  47.4812290  65.0565324  14.9234901
  50.7569556  72.1671517  18.5222726  49.8392118  72.3886464  18.3644414
  51.1729700  72.2417828  17.6634433  51.5404604  73.5662933  13.6525406
  52.2876423  74.0784330  13.3432528  51.8096194  73.2446986  14.5129800
  53.9883441  70.6020049  15.6344195  53.2506198  70.0897436  15.9654438
  54.2410215  70.1620431  14.8227472  54.0895069  63.3796301  16.2285965
  54.3953946  62.5193665  15.9411880  54.8147674  63.9713922  16.0284959
  40.3819425  73.7826988  14.6167563  40.1843825  73.1896349  13.8918629
  39.8266089  73.4779198  15.3343501  48.3616148  73.6750094  16.7362156
  48.4164758  72.7223931  16.6604632  47.5507350  73.8309534  17.2203454
  46.3008508  72.2927154  14.4952535  45.4876374  72.5921325  14.9017727
  46.7967503  71.8982843  15.2127017  48.4517086  82.2884911  16.4286799
  48.4093265  82.5145757  15.4995331  49.3679785  82.0548286  16.5772601
  51.8982720  72.7568979  23.3267429  52.2532108  72.9840452  24.1861894
  52.5454851  73.0887355  22.7044684  45.7922583  69.8645510  20.1113770
  46.4321962  69.7234269  19.4136733  44.9600114  69.5780023  19.7352372
  57.6549837  77.9463942  19.0428029  58.0886343  77.8539231  19.8911083
  58.3681417  77.9221442  18.4048045  46.5682887  79.1647940  16.2248762
  47.3623486  78.6698260  16.0231337  45.8574579  78.6365803  15.8616468
  51.3877732  81.5466036  20.5761130  51.4414754  82.1156972  21.3438846
  50.5192513  81.7167921  20.2115167  42.8765651  73.3091022  12.3008515
  41.9463239  73.2475477  12.5178477  42.9723123  72.7866975  11.5045156
  42.7951200  69.8345835  14.8886756  43.0558017  70.7491168  14.7795917
  43.6168372  69.3670277  15.0383369  44.2676125  71.2483592  22.0585581
  44.9399178  71.0400954  21.4098230  43.4405911  71.0505678  21.6190813
  58.5165386  77.9887642  21.5760915  58.7101276  78.8933453  21.8220189
  58.4166004  77.5295061  22.4099500  50.1701697  67.8745533  24.0751242
  49.5229612  68.5735482  23.9815718  50.9402712  68.3081677  24.4427490
  53.5780495  78.1394385  27.1501795  53.4266001  77.9104937  26.2331879
  53.5685174  79.0964986  27.1633140  50.3465831  75.7126298  22.1348062
  51.2757891  75.8637457  21.9617029  49.9256861  75.8010319  21.2796708
  49.1454163  79.7376962  19.9046599  49.0065249  79.3695747  20.7772537
  48.3568759  80.2524602  19.7330557  50.6959378  79.1158565  17.2935437
  50.3609211  79.0759335  18.1893087  50.1963324  78.4503281  16.8205847
  44.6703622  74.5226195  22.8188018  44.5323420  73.7906434  23.4199557
  45.5808546  74.4335095  22.5372206  47.2985923  74.2346154  22.3071698
  48.0085541  73.5939346  22.2658316  47.2555231  74.4859049  23.2297879
  55.2872702  81.1713508  25.2278277  55.2285248  80.4872728  24.5608860
  55.6892220  81.9132498  24.7758903  46.0114857  71.2211372  24.1267337
  45.4752214  70.7702111  24.7788934  45.4231565  71.3557281  23.3837802
  44.3063400  87.9875421  18.0211996  44.5459999  88.6193946  18.6991014
  43.4632597  87.6363461  18.3077355  45.4217116  70.6800024   6.6893801
  44.5446582  70.5588824   6.3256048  45.8974869  69.8886102   6.4372690
  55.2890109  79.1353091  23.4592257  54.4016888  78.7979013  23.5818656
  55.8588660  78.4036123  23.6961022  36.9419256  75.4677183  16.7835308
  37.6290296  75.1538913  16.1956323  36.7867385  76.3718548  16.5102559
  41.7453978  70.3567380  21.2120332  41.6612167  69.7493049  20.4770742
  40.9236684  70.8476398  21.2129828  48.8191262  83.7954544  20.4253500
  48.7461434  84.6009515  20.9372804  48.3768655  83.9946510  19.6001521
  51.9177692  68.8420943  16.5790527  52.4146391  68.0890906  16.2591597
  51.1464673  68.8785260  16.0133736  59.7707449  74.5461309  18.2208818
  59.7597326  75.4286024  17.8502751  58.9024829  74.1932860  18.0263355
  51.2789946  83.6941378  22.5811659  51.9917918  84.3288843  22.5087560
  50.7879974  83.7905244  21.7651660  53.0007473  77.5992631  14.1528950
  52.0663751  77.7194093  13.9833655  53.1784141  76.6965097  13.8888960
  48.5012661  70.9838326  16.3062211  48.1310448  70.4309367  16.9943117
  48.9971753  70.3796460  15.7537211  56.3880024  73.4409950  14.6878984
  56.8540476  74.2737941  14.6139287  56.8387524  72.9754931  15.3924243
  46.3301859  81.4435821  23.4017229  47.0311319  82.0772304  23.5546624
  45.8596974  81.7850553  22.6412869  54.3596687  65.8090537  18.7269886
  53.4459766  66.0394764  18.8952093  54.7889788  65.8928981  19.5783918
  54.1303145  73.9980429  21.2269780  53.4774595  74.2456336  20.5722232
  54.5083525  73.1844567  20.8932257  50.1790718  74.7400240  27.7135817
  49.5031355  74.6394369  28.3838192  51.0018352  74.5839454  28.1771814
  41.9269577  80.9772176  20.3348332  42.5123014  80.2315864  20.4676236
  41.7294416  81.2876133  21.2184996  44.7808233  84.0123424  15.3510774
  44.1118608  84.4969551  14.8674814  44.6421102  84.2592644  16.2654153
  36.5187232  73.5477777  19.0552775  36.5571332  73.0141367  19.8489893
  36.0127525  73.0212982  18.4363752  48.9213501  86.0467167  21.9493433
  49.4731809  86.2098789  22.7142518  49.2619695  86.6371605  21.2773458
  43.8977994  68.3942317  22.5515317  43.9619321  69.2557148  22.1392715
  43.8345115  67.7816319  21.8187676  43.3730267  70.4665450  26.1988352
  44.0002306  70.0842527  26.8125876  42.5158186  70.2479652  26.5644044
  53.7724375  80.8728425  27.8042087  54.3164279  81.4858383  27.3097042
  53.1911220  81.4308003  28.3209100  40.1495810  72.2741879  12.1306707
  40.4449251  71.3652557  12.0773760  39.2483845  72.2529618  11.8087709
  52.0581888  83.9949143  18.9357115  51.9333028  83.1938883  18.4268060
  52.7160979  84.4895336  18.4471085  43.6790057  70.3497875  18.1134255
  42.9576642  70.9633843  17.9741728  44.4683312  70.8855640  18.0350901
  54.1216797  81.7958163  20.5636665  53.1747132  81.6763514  20.4914992
  54.4699570  80.9080661  20.6462926  46.4816370  67.6852302  24.3874907
  47.0050772  67.9314598  25.1501216  46.2628703  68.5172337  23.9678044
  41.8783651  69.9555976  12.2546032  41.5496357  69.0753355  12.0721138
  42.2323022  69.9003645  13.1422421  51.1263230  81.5910879  16.7641017
  50.9788192  80.6627587  16.9448587  51.9516724  81.6130970  16.2798092
  44.9925474  70.2428946  12.6221509  45.3321547  70.7714867  11.9000118
  45.4397595  70.5809352  13.3980076  54.7297352  82.4139438  17.8505890
  55.6543899  82.2082299  17.7130341  54.5612655  82.1655839  18.7595231
  47.6868915  68.6265997  22.0724577  47.3465736  67.8273810  22.4745257
  46.9807921  68.9267708  21.5001411  48.3385387  65.7115309  20.5251900
  49.1611456  65.2375788  20.4030791  48.5823451  66.4905793  21.0250587
  46.9793621  68.7403568  10.8214802  47.7001984  69.1184821  10.3178519
  46.3558926  69.4592445  10.9249780  51.1224744  69.4448717  11.7573134
  51.3388359  70.3273355  11.4561963  50.6418812  69.0534930  11.0278776
  45.8623966  72.4034430  18.3343879  45.7168546  72.7174733  19.2268161
  45.3849169  73.0219330  17.7814778  47.7220349  69.3936978  18.3824769
  47.7081917  68.4978071  18.0457067  48.4392777  69.4007642  19.0163055
  49.5746479  69.8274318  20.4277896  49.3164257  70.7491389  20.4262227
  49.0431520  69.4304753  21.1178360  40.3369628  74.9439774  21.2731540
  39.7923096  75.7199582  21.4051815  41.2148978  75.2910579  21.1150662
  47.1257245  68.2751358  13.6512339  47.2473156  67.3468004  13.8503226
  46.8359287  68.2890044  12.7390654  49.9948435  65.9606269  16.7879059
  50.0170132  66.0245602  15.8331038  50.4116494  65.1210777  16.9819565
  41.1235650  74.0709671  24.1661697  40.3817386  74.2192306  24.7526328
  40.8028394  74.3317936  23.3028447  49.0679312  83.6125649  23.9642087
  49.3766439  83.3674796  24.8364787  49.8654794  83.8172287  23.4760957
  41.5692263  81.9575099  16.1972092  42.3950283  81.6578871  15.8170735
  41.2186315  81.1882722  16.6461880  46.5373797  81.3101568  18.2669765
  45.9153806  80.6472273  17.9671993  47.2078664  81.3362699  17.5843413
  39.7700868  79.8761426  17.1561025  38.9332777  79.4483600  16.9745027
  39.7424514  80.0693869  18.0931817  46.6098324  69.7883356  27.8602271
  46.6586480  70.6645478  27.4780041  47.1520838  69.2460749  27.2873915
  57.0953170  80.3324479  27.1403408  56.3048713  80.3148618  26.6007908
  56.8586524  80.8712773  27.8952445  57.2151045  77.1816945  24.4536137
  57.2649050  77.0166953  25.3951660  57.1064968  76.3144204  24.0634018
  54.5054807  73.1647873  25.7695444  55.4064670  73.0254338  25.4779442
  54.5802782  73.3302328  26.7093621  48.8397613  70.5414728  24.6148630
  47.9700922  70.8348294  24.3431219  49.0757093  71.1255173  25.3355894
  58.7169242  79.6013887  24.6978159  58.4254050  79.9643867  25.5341620
  58.1041373  78.8880895  24.5191491  59.9164924  77.1666767  17.2180729
  60.7511815  77.6056571  17.3818289  60.0524053  76.6905420  16.3988975
  56.9656430  74.7246501  23.1658217  57.4410551  74.9174148  22.3577068
  56.0421995  74.7805687  22.9201600  43.8539937  75.8870669  12.7489295
  43.6085978  74.9832999  12.9469505  44.0235851  75.8887819  11.8068773
  51.5436646  66.7594345  22.1314050  52.0618590  67.4955372  21.8060539
  51.1891779  67.0658338  22.9660810  43.1235584  71.6199026  10.2475456
  42.4304829  71.6943381   9.5915492  42.8787336  70.8559370  10.7696973
  51.7949241  63.1794627  17.6514947  52.0750994  62.5117817  18.2775374
  52.5799847  63.3723723  17.1389611  55.6658099  71.6012261  21.3986522
  56.6175522  71.7010359  21.4198746  55.4961549  70.8090530  21.9084607
  53.6872478  68.6867845  21.5845923  53.0922410  68.9672857  20.8892412
  53.4022175  69.1761746  22.3562664  58.1446177  74.8218381  20.5128822
  58.1122497  73.8834382  20.6988506  58.7546800  74.9002418  19.7794647
  58.2940665  71.6129425  20.5587105  57.7779714  70.8287881  20.3717034
  59.1780614  71.2848141  20.7233624  55.9551392  65.3570440  16.5182918
  55.7576213  65.0485528  17.4026250  56.5651098  66.0832079  16.6480848
  63.9622727  75.8834388  19.6534859  64.6926115  75.6219676  20.2142562
  63.3529672  75.1463110  19.6936927  62.0438024  74.0242251  20.2509310
  61.3171187  73.8898216  19.6425801  61.6285311  74.3319079  21.0566028
  49.8668200  77.7432180  28.0156683  50.7871210  77.9210779  28.2096729
  49.8317783  76.7988226  27.8636382  39.0850365  72.9370774  16.9409957
  38.7653149  72.0836082  16.6484331  38.5383793  73.1519352  17.6967925
  42.8630273  75.6533215  20.6579464  43.0816282  76.5850323  20.6767498
  43.2756046  75.2941189  21.4434268  49.7834490  66.1601300  12.6455152
  48.9735219  65.8148385  13.0210398  50.4718907  65.8508844  13.2342764
  51.7125039  65.2379347  14.2679449  52.2656077  65.6574800  14.9269472
  51.9495125  64.3115095  14.3102405  47.7358138  71.2266421  30.0482213
  47.6354865  72.1760778  29.9794304  47.5179680  70.8984660  29.1758283
  46.9371209  68.4751346   6.6322890  47.7990373  68.8006244   6.8918708
  47.1221553  67.6882842   6.1195956  38.9538625  76.5573685  18.9103079
  38.2602097  76.1427638  18.3973033  39.7011616  76.5994222  18.3136498
  55.0903846  67.3479872  13.7758113  54.5102515  68.0064676  13.3936166
  54.8239778  66.5257217  13.3645531  53.5407412  66.7484930  15.9779434
  54.0407191  66.8601464  15.1693752  54.1843020  66.4445983  16.6180242
  47.5989408  74.6563560  28.8647275  47.1156490  75.4563920  29.0711164
  47.6850347  74.6671504  27.9114719  40.8675368  76.4891939  16.7869094
  40.8446056  76.5879626  15.8350977  41.1776004  77.3357090  17.1086260
  43.5262745  78.5468094  20.9015708  44.4805999  78.5152037  20.8345640
  43.3275269  78.0858718  21.7165934  44.1162128  77.1169210  23.4686506
  44.9355017  77.6113289  23.4921343  44.3898935  76.2001178  23.4404074
  53.8728724  69.5079963  12.8314462  52.9854579  69.7929613  12.6134656
  54.2882713  69.3473726  11.9841738  57.2243260  69.5326484  16.5468801
  58.0003650  70.0222936  16.8193418  56.4991394  69.9584538  17.0040670
  59.6615819  70.2454103  17.6042741  60.2560309  70.0049839  16.8936050
  59.7342402  69.5261233  18.2316278  41.8812974  84.0887714  17.9185906
  41.7467442  83.3288115  17.3523904  41.4645037  84.8128614  17.4514695
  57.6574553  70.8124230  13.8714871  57.4011488  70.4120866  14.7023079
  57.0327422  71.5268024  13.7465010  61.9686891  73.5520304  16.3786163
  61.4086449  73.6213493  17.1517725  61.3630395  73.3761288  15.6585659
  45.0382100  84.9857031  18.1304349  44.9214484  85.9302463  18.0283039
  44.2174546  84.6830592  18.5190148  39.3697042  71.4507344  24.1678703
  40.0155905  70.9406298  24.6565928  39.1614193  72.1876026  24.7422128
  51.8950434  78.5188192  29.6670844  52.7641594  78.6928844  29.3057479
  51.4157186  79.3382608  29.5446573  47.8900652  65.7147389   9.9202599
  47.8779322  66.6589229  10.0770870  48.7824074  65.5317534   9.6262060
  46.0636614  85.6385293  21.3460277  46.9663861  85.6708903  21.6626772
  45.8373984  84.7085744  21.3606613  47.8190216  84.3916279  18.0070356
  46.8685847  84.3918141  17.8934728  48.1222702  83.6449014  17.4906391
  51.7052772  62.3090165  14.1748536  50.9385168  61.7548652  14.3205218
  52.1163477  62.3812034  15.0362688  60.8452399  91.3339097  24.9663849
  60.8341040  90.9391896  24.0944352  61.0073039  90.6005170  25.5597620
  66.0318026  81.6025079  21.5096913  65.7001351  82.4720490  21.2858128
  65.4363639  81.2861363  22.1890944  59.9987555  87.7409810  26.5325161
  59.2220889  88.3003731  26.5228025  60.6378118  88.2266593  27.0540031
  58.2533927  90.5495264  26.0943128  58.9948612  91.0880308  25.8177951
  57.5470913  91.1761553  26.2514680  63.2319782  85.2901379  23.7230020
  62.9880714  86.0443440  23.1864296  63.5079713  85.6686727  24.5577267
  56.9895291  87.7034912  26.8958438  56.3593951  88.3851193  27.1293835
  56.8831379  87.5917994  25.9511576  50.5677966  87.6237199  20.2539353
  50.8186005  88.5084208  20.5196929  51.1037515  87.4441800  19.4814445
  56.2676034  82.0055678  29.2583689  55.8742979  81.4521876  29.9331333
  57.0842174  82.3166256  29.6490206  59.1843995  83.4213557  26.8503945
  59.9253708  84.0220710  26.7708408  59.4161917  82.6791195  26.2921988
  54.3285333  88.6069924  25.1282175  54.2138848  87.7055181  25.4289274
  53.4729850  88.8533621  24.7766992  63.1301158  79.4494660  21.1268227
  62.7865427  80.3396302  21.0507338  63.4980120  79.2596318  20.2637812
  56.6316338  85.1937427  20.1113770  57.2715717  85.0526187  19.4136733
  55.7993868  84.9071941  19.7352372  55.1069879  86.5775510  22.0585581
  55.7792933  86.3692872  21.4098230  54.2799666  86.3797596  21.6190813
  61.0095451  83.2037451  24.0751242  60.3623366  83.9027400  23.9815718
  61.7796467  83.6373594  24.4427490  55.5097377  89.8518113  22.8188018
  55.3717175  89.1198351  23.4199557  56.4202300  89.7627013  22.5372206
  58.1379677  89.5638072  22.3071698  58.8479296  88.9231264  22.2658316
  58.0948985  89.8150967  23.2297879  56.8508611  86.5503290  24.1267337
  56.3145968  86.0994028  24.7788934  56.2625320  86.6849199  23.3837802
  52.5847733  85.6859297  21.2120332  52.5005921  85.0784967  20.4770742
  51.7630439  86.1768316  21.2129828  61.0184473  90.0692158  27.7135817
  60.3425110  89.9686287  28.3838192  61.8412107  89.9131371  28.1771814
  47.3580987  88.8769694  19.0552775  47.3965086  88.3433285  19.8489893
  46.8521279  88.3504900  18.4363752  54.7371749  83.7234235  22.5515317
  54.8013075  84.5849066  22.1392715  54.6738869  83.1108236  21.8187676
  54.2124021  85.7957367  26.1988352  54.8396060  85.4134445  26.8125876
  53.3551940  85.5771569  26.5644044  57.3210125  83.0144219  24.3874907
  57.8444526  83.2606516  25.1501216  57.1022458  83.8464254  23.9678044
  58.5262670  83.9557915  22.0724577  58.1859490  83.1565728  22.4745257
  57.8201676  84.2559625  21.5001411  59.1779141  81.0407227  20.5251900
  60.0005211  80.5667705  20.4030791  59.4217205  81.8197711  21.0250587
  51.1763382  90.2731692  21.2731540  50.6316850  91.0491500  21.4051815
  52.0542732  90.6202497  21.1150662  51.9629404  89.4001588  24.1661697
  51.2211140  89.5484224  24.7526328  51.6422149  89.6609854  23.3028447
  57.4492079  85.1175273  27.8602271  57.4980234  85.9937396  27.4780041
  57.9914593  84.5752666  27.2873915  65.3448562  88.4939791  25.7695444
  66.2458424  88.3546256  25.4779442  65.4196536  88.6594246  26.7093621
  59.6791367  85.8706646  24.6148630  58.8094676  86.1640212  24.3431219
  59.9150847  86.4547091  25.3355894  62.3830401  82.0886263  22.1314050
  62.9012345  82.8247290  21.8060539  62.0285534  82.3950256  22.9660810
  60.7061955  93.0724098  28.0156683  61.6264964  93.2502697  28.2096729
  60.6711538  92.1280143  27.8636382  58.5751892  86.5558338  30.0482213
  58.4748619  87.5052695  29.9794304  58.3573434  86.2276577  29.1758283
  58.4383162  89.9855477  28.8647275  57.9550244  90.7855837  29.0711164
  58.5244102  89.9963422  27.9114719  54.9555882  92.4461128  23.4686506
  55.7748771  92.9405207  23.4921343  55.2292690  91.5293096  23.4404074
  50.2090796  86.7799262  24.1678703  50.8549660  86.2698216  24.6565928
  50.0007947  87.5167943  24.7422128  54.5488287  83.9266879  28.2653717
  55.4119749  83.5703684  28.4757042  53.9753698  83.5880774  28.9529122
  28.3271137  22.3525467  11.6909155  28.3159778  21.9578265  10.8189659
  28.4891776  21.6191540  12.2842927  25.0478398  25.1362579  10.6388339
  24.7568264  26.0408210  10.5235005  25.6835382  25.1779106  11.3532409
  30.0068283  24.8223994   7.6338133  29.7069006  25.7249033   7.5253940
  29.6619343  24.5556178   8.4859286  27.4806293  18.7596180  13.2570467
  26.7039627  19.3190100  13.2473332  28.1196856  19.2452963  13.7785338
  25.7352665  21.5681633  12.8188434  26.4767349  22.1066677  12.5423258
  25.0289650  22.1947922  12.9759986  31.2108005  23.7110774  11.4160596
  31.6191361  23.2693184  10.6715228  30.4885266  23.1363401  11.6694789
  32.6676983  22.8526361   9.1252592  32.8793878  23.4958121   8.4486973
  32.6206731  22.0188678   8.6574522  33.7822811  25.7298317   7.2974949
  34.6040254  25.3278504   7.0157631  33.7785214  25.6266551   8.2491065
  27.5479414  25.2782360   9.4535660  27.6123847  25.7402767  10.2893832
  26.8390338  24.6479725   9.5817970  28.8895908  27.5674034  13.4514982
  28.4459762  26.7810413  13.1335887  29.5513122  27.7553185  12.7858873
  30.9877146  27.8476834  11.4796384  30.9695622  28.6685715  10.9876653
  31.9097066  27.7230909  11.7046525  27.4450200  25.3620964  12.3219892
  27.9778537  24.6009252  12.0919200  26.9164281  25.0694615  13.0644046
  35.9762329  24.2942229   5.7673336  36.4098836  24.2017518   6.6156390
  36.6893910  24.2699729   5.1293352  29.7090224  27.8944323   7.3006436
  29.7627246  28.4635259   8.0684152  28.8405005  28.0646208   6.9360473
  36.8377878  24.3365929   8.3006221  37.0313769  25.2411740   8.5465496
  36.7378497  23.8773349   9.1344806  31.8992987  24.4872672  13.8747102
  31.7478494  24.2583224  12.9577185  31.8897667  25.4443274  13.8878447
  33.6085194  27.5191795  11.9523584  33.5497740  26.8351015  11.2854167
  34.0104712  28.2610785  11.5004210  33.6102601  25.4831379  10.1837563
  32.7229380  25.1457301  10.3063962  34.1801152  24.7514410  10.4206329
  27.1403754  30.1432831   7.1498807  27.0673926  30.9487803   7.6618111
  26.6981148  30.3424797   6.3246828  29.6002438  30.0419665   9.3056965
  30.3130410  30.6767130   9.2332867  29.1092467  30.1383531   8.4896967
  24.6514352  27.7914109  10.1262536  25.3523811  28.4250592  10.2791930
  24.1809466  28.1328840   9.3658175  28.5003210  21.0878527  14.4381123
  27.8243848  20.9872656  15.1083499  29.3230844  20.9317741  14.9017121
  27.2425993  32.3945455   8.6738739  27.7944301  32.5577076   9.4387825
  27.5832187  32.9849892   8.0018764  32.0936868  27.2206712  14.5287394
  32.6376772  27.8336670  14.0342349  31.5123713  27.7786290  15.0454407
  30.3794381  30.3427430   5.6602422  30.2545520  29.5417170   5.1513367
  31.0373472  30.8373623   5.1716392  32.4429289  28.1436450   7.2881972
  31.4959625  28.0241801   7.2160298  32.7912062  27.2558948   7.3708233
  33.0509844  28.7617725   4.5751197  33.9756392  28.5560586   4.4375648
  32.8825148  28.5134126   5.4840538  27.3891805  29.9603936  10.6887394
  27.6978931  29.7153083  11.5610093  28.1867287  30.1650575  10.2006264
  35.4165662  26.6802766  13.8648715  34.6261206  26.6626905  13.3253215
  35.1799017  27.2191060  14.6197752  35.5363537  23.5295232  11.1781444
  35.5861542  23.3645240  12.1196966  35.4277460  22.6622492  10.7879324
  32.8267300  19.5126161  12.4940750  33.7277162  19.3732625  12.2024748
  32.9015274  19.6780615  13.4338928  37.0381734  25.9492174  11.4223465
  36.7466542  26.3122155  12.2586926  36.4253865  25.2359182  11.2436797
  35.2868922  21.0724789   9.8903523  35.7623044  21.2652435   9.0822375
  34.3634488  21.1283974   9.6446907  42.2835219  22.2312675   6.3780165
  43.0138607  21.9697963   6.9387869  41.6742164  21.4941397   6.4182233
  40.3650516  20.3720538   6.9754616  39.6383680  20.2376503   6.3671108
  39.9497803  20.6797366   7.7811334  28.1880692  24.0910468  14.7401989
  29.1083702  24.2689067  14.9342036  28.1530275  23.1466513  14.5881689
  26.0570630  17.5744708  16.7727520  25.9567357  18.5239065  16.7039611
  25.8392172  17.2462947  15.9003590  25.9201900  21.0041847  15.5892581
  25.4368982  21.8042207  15.7956470  26.0062839  21.0149792  14.6360025
  30.2162926  24.8666479  16.3916150  31.0854086  25.0407131  16.0302785
  29.7369678  25.6860896  16.2691880  24.3849107  31.9863580   8.0705584
  25.2876353  32.0187190   8.3872079  24.1586477  31.0564031   8.0851920
  41.8755402  36.5755105   5.7961425  42.5133812  36.4561852   5.0924765
  41.7576245  37.5235949   5.8549377  38.6845108  36.5282533   5.7322950
  38.3463620  36.4123598   4.8443484  39.5534877  36.1273698   5.7123956
  34.5431924  38.3818009   1.7219841  33.9796789  38.2907946   0.9536128
  34.4284319  37.5617914   2.2022333  39.1664891  37.6817385  11.6909155
  39.1553532  37.2870183  10.8189659  39.3285531  36.9483457  12.2842927
  32.0896356  39.8769201   4.5604061  32.8817648  39.5360026   4.1450360
  32.3293006  39.9864176   5.4806214  40.1231483  42.0488977  -2.9665695
  39.4719463  42.6343057  -3.3531681  40.9175846  42.5795172  -2.9070657
  35.8872152  40.4654496  10.6388339  35.5962018  41.3700127  10.5235005
  36.5229137  40.5071024  11.3532409  36.8128359  37.8431345   7.2289699
  37.4091932  37.6187367   6.5146662  36.8703331  37.1016090   7.8315147
  41.4296671  34.3006559   2.8714633  42.2159760  33.8825982   2.5205050
  41.6935375  35.2052651   3.0396281  41.6006748  39.7379409  -2.4296710
  40.9652581  39.8114035  -1.7175806  41.2704154  40.3273008  -3.1077631
  46.8305098  34.2381792   3.7747611  47.5630270  33.6681009   4.0085441
  46.0744453  33.8503392   4.2154117  38.4481217  36.6609033   0.9710954
  38.0839425  36.1339654   1.6823875  39.3048333  36.2707502   0.7977439
  44.3530518  27.9503366   8.2342220  44.0213843  28.8198777   8.0103435
  43.7576131  27.6339650   8.9136250  40.8462038  40.1515912   7.6338133
  40.5462761  41.0540951   7.5253940  40.5013097  39.8848095   8.4859286
  34.2974519  36.6029709   3.6674837  33.3725016  36.4705923   3.8752529
  34.5458932  37.3823928   4.1644780  44.2459181  32.6698452   5.3135570
  43.3376059  32.6013861   5.0194331  44.1946777  33.1470397   6.1417396
  31.6583330  36.2462982   4.5018626  31.7875711  36.4997461   5.4158038
  30.9780781  36.8390690   4.1823281  35.8282817  46.9160232   0.6009101
  35.7506847  47.8668057   0.6797581  35.2244461  46.5706105   1.2584027
  38.3200047  34.0888098  13.2570467  37.5433381  34.6482018  13.2473332
  38.9590610  34.5744881  13.7785338  46.1120828  30.8714891   7.0913444
  45.4695208  31.1647424   6.4453239  45.6075756  30.7567811   7.8966641
  43.7660991  34.6178064  -2.2200697  44.6778848  34.8505450  -2.3952999
  43.2570638  35.2015108  -2.7825618  36.5746419  36.8973551  12.8188434
  37.3161104  37.4358595  12.5423258  35.8683405  37.5239840  12.9759986
  42.0501759  39.0402692  11.4160596  42.4585115  38.5985102  10.6715228
  41.3279021  38.4655319  11.6694789  38.4032829  33.9775298   8.7894153
  39.2494024  34.4014712   8.9328802  38.3431467  33.3208923   9.4832716
  42.3730574  39.6003882   5.1712885  41.7439436  39.7649596   4.4688953
  41.9856236  40.0145492   5.9423849  46.2519806  40.5358320   2.5257249
  45.5670844  40.9157221   1.9754282  46.3363655  41.1453647   3.2589196
  41.5532274  31.6379667  10.4475326  41.3093206  32.3921727   9.9109602
  41.8292205  32.0165014  11.2822574  43.5070737  38.1818279   9.1252592
  43.7187632  38.8250039   8.4486973  43.4600485  37.3480596   8.6574522
  41.1096966  30.7936100   6.0289164  40.2481445  31.0917353   6.3205902
  41.1359401  31.0106499   5.0970197  37.9258536  39.3378290   2.4362970
  38.3896881  39.6165993   1.6467592  37.6615334  38.4361735   2.2536061
  34.8182617  38.8849772   5.3742733  35.3883974  39.3137040   4.7360218
  35.4090729  38.6032357   6.0726919  36.8627422  35.4601443  -0.7547465
  37.5651465  35.9122486  -0.2873539  36.5308050  34.8185262  -0.1267572
  35.3107783  34.0513199  13.6203744  34.6806444  34.7329480  13.8539141
  35.2043871  33.9396281  12.6756883  30.6052756  33.7184995   4.5469669
  29.8151810  33.9742524   4.0709779  31.0964003  34.5333333   4.6521709
  44.6216565  41.0590234   7.2974949  45.4434009  40.6570422   7.0157631
  44.6178968  40.9558469   8.2491065  38.3873169  40.6074278   9.4535660
  38.4517601  41.0694685  10.2893832  37.6784092  39.9771643   9.5817970
  28.8890459  33.9715486   6.9784659  29.1398497  34.8562496   7.2442235
  29.4250007  33.7920087   6.2059751  52.7122558  37.4028983   3.6459921
  51.9586267  36.8336381   3.4903925  52.8470099  37.3691647   4.5930556
  38.1021186  42.2742385  -0.6785360  37.9666861  43.1193921  -0.2500512
  38.6430999  42.4761663  -1.4419426  34.5888526  28.3533965  15.9828995
  34.1955471  27.8000164  16.6576640  35.4054666  28.6644544  16.3735513
  31.5550584  39.7917823  -0.1057435  32.0675104  40.5861074   0.0448130
  32.2073296  39.0944114  -0.1723833  33.3645468  42.9083580   1.9765319
  33.5412097  43.8301544   1.7886302  34.1602302  42.5941999   2.4059698
  37.5056487  29.7691844  13.5749252  38.2466200  30.3698997  13.4953715
  37.7374410  29.0269482  13.0167295  32.6497825  34.9548211  11.8527482
  32.5351340  34.0533469  12.1534581  31.7942343  35.2011908  11.5012298
  39.7289663  42.8965952  13.4514982  39.2853517  42.1102330  13.1335887
  40.3906876  43.0845102  12.7858873  34.4876784  44.4261753   7.9775661
  35.0384209  44.2978817   7.2052655  33.6488260  44.7256642   7.6270554
  41.8270901  43.1768752  11.4796384  41.8089376  43.9977633  10.9876653
  42.7490821  43.0522827  11.7046525  38.2843955  40.6912881  12.3219892
  38.8172292  39.9301169  12.0919200  37.7558036  40.3986533  13.0644046
  41.4513650  25.7972947   7.8513534  41.1077919  26.6874589   7.7752644
  41.8192612  25.6074605   6.9883119  29.5199500  38.1206478   0.6702136
  30.3574722  38.5303486   0.4535844  29.6977768  37.1805920   0.6402330
  39.0011044  30.6331259   1.4171207  38.1452640  30.2438109   1.2376846
  39.4137995  30.7123220   0.5570993  40.5310190  28.1677602   5.8162767
  40.0274986  28.1307737   5.0030572  40.8240797  29.0770345   5.8759424
  36.7753076  28.2516332   4.8228949  37.6406073  28.0559141   4.4634838
  36.8430585  28.0226684   5.7498305  46.3898207  38.5413913  -1.7060858
  45.6127649  38.2025072  -2.1505696  47.0689688  38.5466536  -2.3805893
  41.2050236  33.6608650  -1.8154250  40.9000371  33.9754800  -0.9644107
  42.1580678  33.7390070  -1.7726917  39.6496668  39.8198874  -0.1661296
  39.1218029  39.0851633  -0.4788059  39.1484170  40.5973550  -0.4121328
  44.6289514  38.0147894   4.9505750  43.9713188  38.7047156   5.0385879
  45.4329913  38.4044326   5.2939737  43.4394972  36.3692267   3.0009692
  43.9526854  37.0022259   3.5031402  44.0896196  35.7693462   2.6353052
  40.7017347  46.3476591  -4.2429637  40.0279045  46.6508288  -3.6344679
  41.0883169  47.1505671  -4.5924180  39.9175803  33.8441722   5.2468033
  38.9998365  34.0656669   5.0889721  40.3335947  33.9188033   4.3879740
  40.7010851  35.2433138   0.3770713  41.4482670  35.7554535   0.0677835
  40.9702441  34.9217191   1.2375106  38.9737501  37.7391679  -2.6402333
  38.0648720  37.4550712  -2.5429863  39.0032585  38.1590757  -3.4999026
  44.2056769  41.3498268   1.1288835  43.7519096  40.5089178   1.1854025
  43.5750735  41.9859667   1.4663615  43.1489688  32.2790254   2.3589502
  42.4112445  31.7667641   2.6899745  43.4016462  31.8390636   1.5472779
  42.6489708  43.1874765   2.0638653  42.9412682  43.7479822   1.3451018
  43.1588328  43.4803326   2.8191812  43.2501315  25.0566506   2.9531271
  43.5560192  24.1963870   2.6657186  43.9753920  25.6484127   2.7530265
  37.5222395  35.3520299   3.4607462  37.5771005  34.3994136   3.3849939
  36.7113597  35.5079739   3.9448761  35.4614755  33.9697359   1.2197841
  34.6482621  34.2691530   1.6263033  35.9573749  33.5753048   1.9372324
  37.6123333  43.9655116   3.1532106  37.5699512  44.1915962   2.2240638
  38.5286032  43.7318491   3.3017907  41.0588967  34.4339184  10.0512735
  41.4138355  34.6610657  10.9107201  41.7061098  34.7657560   9.4289991
  46.7886704  37.5557620   0.7562064  46.6504602  37.7459215  -0.1716747
  46.4322923  38.3177002   1.2130115  34.9528830  31.5415715   6.8359076
  35.5928209  31.4004474   6.1382040  34.1206360  31.2550228   6.4597678
  46.8156083  39.6234147   5.7673336  47.2492590  39.5309436   6.6156390
  47.5287664  39.5991647   5.1293352  35.7289134  40.8418145   2.9494069
  36.5229732  40.3468465   2.7476644  35.0180826  40.3136008   2.5861774
  40.5483978  43.2236241   7.3006436  40.6021001  43.7927177   8.0684152
  39.6798760  43.3938126   6.9360473  33.4282372  32.9253797   8.7830888
  34.1005425  32.7171159   8.1343537  32.6012158  32.7275883   8.3436120
  47.6771633  39.6657847   8.3006221  47.8707523  40.5703658   8.5465496
  47.5772251  39.2065266   9.1344806  39.3307944  29.5515738  10.7996548
  38.6835859  30.2505687  10.7061025  40.1008959  29.9851882  11.1672797
  42.7386742  39.8164590  13.8747102  42.5872248  39.5875142  12.9577185
  42.7291421  40.7735191  13.8878447  39.5072078  37.3896503   8.8593368
  40.4364138  37.5407662   8.6862336  39.0863108  37.4780523   8.0042015
  38.3060410  41.4147167   6.6291906  38.1671496  41.0465951   7.5017844
  37.5175006  41.9294807   6.4575864  38.9008562  46.5156264  -2.0282558
  39.0760317  46.0444307  -1.2136935  38.2141350  47.1422030  -1.8001297
  39.8565625  40.7928770   4.0180744  39.5215458  40.7529540   4.9138394
  39.3569571  40.1273486   3.5451154  33.8309869  36.1996400   9.5433325
  33.6929667  35.4676639  10.1444864  34.7414792  36.1105300   9.2617513
  36.4592170  35.9116359   9.0317004  37.1691788  35.2709551   8.9903623
  36.4161478  36.1629254   9.9543185  44.4478948  42.8483712  11.9523584
  44.3891494  42.1642933  11.2854167  44.8498467  43.5902702  11.5004210
  35.1721104  32.8981577  10.8512644  34.6358461  32.4472315  11.5034240
  34.5837812  33.0327486  10.1083108  33.4669647  49.6645626   4.7457303
  33.7066245  50.2964150   5.4236321  32.6238844  49.3133666   5.0322662
  44.4496356  40.8123296  10.1837563  43.5623134  40.4749218  10.3063962
  45.0194907  40.0806328  10.4206329  26.1025503  37.1447388   3.5080615
  26.7896542  36.8309118   2.9201630  25.9473631  38.0488753   3.2347866
  30.9060225  32.0337585   7.9365638  30.8218414  31.4263254   7.2016048
  30.0842931  32.5246603   7.9375135  37.9797509  45.4724749   7.1498807
  37.9067680  46.2779720   7.6618111  37.5374902  45.6716715   6.3246828
  37.7687289  44.7096519   0.6601628  36.9854810  45.2518199   0.7539853
  38.4680034  45.2270498   1.0595869  41.0783939  30.5191148   3.3035833
  41.5752638  29.7661111   2.9836904  40.3070920  30.5555465   2.7379043
  48.9313696  36.2231514   4.9454125  48.9203572  37.1056229   4.5748058
  48.0631076  35.8703065   4.7508662  40.4396192  45.3711583   9.3056965
  41.1524165  46.0059048   9.2332867  39.9486221  45.4675449   8.4896967
  42.1613719  39.2762835   0.8774257  41.2269998  39.3964298   0.7078961
  42.3390388  38.3735302   0.6134267  37.6618907  32.6608531   3.0307518
  37.2916695  32.1079572   3.7188424  38.1578000  32.0566665   2.4782518
  45.5486271  35.1180155   1.4124291  46.0146723  35.9508146   1.3384594
  45.9993771  34.6525136   2.1169549  35.4908106  43.1206026  10.1262536
  36.1917565  43.7542509  10.2791930  35.0203221  43.4620758   9.3658175
  43.6162502  41.4623976  -1.5889557  43.8922346  41.3480571  -0.6795683
  42.7467001  41.0641461  -1.6277384  43.5202933  27.4860742   5.4515192
  42.6066013  27.7164969   5.6197399  43.9496035  27.5699186   6.3029225
  43.2909392  35.6750634   7.9515086  42.6380842  35.9226541   7.2967539
  43.6689772  34.8614772   7.6177564  40.2516566  45.7110327   2.0543257
  40.4338960  44.8931983   2.5171009  41.0749552  45.9278019   1.6168147
  40.5858731  44.6378512  -0.6841695  41.1146498  44.1270967  -1.2971533
  40.8486951  44.3221042   0.1803838  39.3396965  36.4170445  14.4381123
  38.6637602  36.3164574  15.1083499  40.1624599  36.2609658  14.9017121
  31.0875824  42.6542381   7.0593639  31.6729261  41.9086069   7.1921543
  30.8900663  42.9646338   7.9430303  33.9414479  45.6893629   2.0756081
  33.2724855  46.1739756   1.5920121  33.8027349  45.9362849   2.9899460
  25.6793479  35.2247982   5.7798082  25.7177578  34.6911572   6.5735200
  25.1733772  34.6983187   5.1609059  38.0819748  47.7237372   8.6738739
  38.6338056  47.8868994   9.4387825  38.4225941  48.3141810   8.0018764
  33.0584241  30.0712522   9.2760624  33.1225568  30.9327353   8.8638022
  32.9951361  29.4586524   8.5432983  32.5336514  32.1435655  12.9233658
  33.1608552  31.7612732  13.5371183  31.6764432  31.9249856  13.2889351
  42.9330622  42.5498630  14.5287394  43.4770526  43.1628588  14.0342349
  42.3517467  43.1078208  15.0454407  41.2188135  45.6719348   5.6602422
  41.0939275  44.8709088   5.1513367  41.8767226  46.1665541   5.1716392
  32.8396303  32.0268080   4.8379562  32.1182889  32.6404048   4.6987035
  33.6289559  32.5625845   4.7596208  43.2823044  43.4728368   7.2881972
  42.3353379  43.3533719   7.2160298  43.6305817  42.5850866   7.3708233
  35.6422617  29.3622507  11.1120214  36.1657019  29.6084803  11.8746523
  35.4234950  30.1942542  10.6923351  40.2869477  43.2681084   3.4886324
  40.1394439  42.3397791   3.6693894  41.1122970  43.2901175   3.0043399
  43.8903599  44.0909643   4.5751197  44.8150146  43.8852504   4.4375648
  43.7218902  43.8426044   5.4840538  36.8475162  30.3036202   8.7969884
  36.5071982  29.5044015   9.1990564  36.1414168  30.6037913   8.2246717
  37.4991634  27.3885514   7.2497207  38.3217703  26.9145992   7.1276097
  37.7429697  28.1675998   7.7495893  35.0230213  34.0804635   5.0589186
  34.8774793  34.3944938   5.9513467  34.5455416  34.6989535   4.5060084
  36.8826595  31.0707183   5.1070075  36.8688164  30.1748276   4.7702373
  37.5999024  31.0777847   5.7408361  38.7352726  31.5044523   7.1523203
  38.4770504  32.4261594   7.1507533  38.2037766  31.1074958   7.8423667
  43.6798915  44.6095310  -0.0686712  43.8535792  44.0441733  -0.8212859
  44.1727806  45.4096205  -0.2507222  29.4975875  36.6209979   7.9976847
  28.9529343  37.3969787   8.1297121  30.3755225  36.9680784   7.8395968
  39.1554682  27.6376474   3.5124365  39.1776379  27.7015807   2.5576345
  39.5722741  26.7980982   3.7064871  49.5338306  37.3731733   1.5503588
  49.9769452  36.6239058   1.1522711  48.6564816  37.3641870   1.1677320
  44.6674087  43.9262075  -2.9689814  45.3624992  44.5468767  -2.7502499
  45.0097238  43.0757426  -2.6937436  30.2841897  35.7479876  10.8907004
  29.5423633  35.8962511  11.4771634  29.9634641  36.0088141  10.0273753
  46.5665510  41.3761780  -1.4402483  47.0916835  41.7149053  -2.1653163
  46.4787863  40.4408795  -1.6239348  38.2285559  45.2895854  10.6887394
  38.5372686  45.0445001  11.5610093  39.0261041  45.4942492  10.2006264
  38.2506171  47.4433763   2.9192770  37.8111162  46.9510142   3.6125627
  39.0014288  46.9006731   2.6784846  30.7298510  43.6345304   2.9217398
  31.5556530  43.3349076   2.5416042  30.3792562  42.8652927   3.3707187
  35.6980043  42.9871773   4.9915072  35.0760053  42.3242478   4.6917300
  36.3684910  43.0132904   4.3088720  28.9307115  41.5531631   3.8806332
  28.0939024  41.1253805   3.6990333  28.9030761  41.7464074   4.8177123
  35.7704571  31.4653561  14.5847578  35.8192726  32.3415683  14.2025348
  36.3127085  30.9230954  14.0119221  46.2559417  42.0094684  13.8648715
  45.4654960  41.9918823  13.3253215  46.0192771  42.5482977  14.6197752
  46.3757292  38.8587150  11.1781444  46.4255297  38.6937158  12.1196966
  46.2671215  37.9914409  10.7879324  35.2593550  41.5375696  -1.5326467
  35.4081671  42.2211160  -2.1859795  36.0659994  41.5180786  -1.0177012
  43.6661054  34.8418078  12.4940750  44.5670917  34.7024543  12.2024748
  43.7409029  35.0072533  13.4338928  38.0003859  32.2184933  11.3393937
  37.1307169  32.5118499  11.0676525  38.2363340  32.8025378  12.0601200
  47.8775488  41.2784092  11.4223465  47.5860297  41.6414072  12.2586926
  47.2647620  40.5651100  11.2436797  49.0771171  38.8436971   3.9426035
  49.9118062  39.2826776   4.1063596  49.2130300  38.3675625   3.1234281
  46.1262677  36.4016706   9.8903523  46.6016798  36.5944353   9.0822375
  45.2028242  36.4575892   9.6446907  40.7042893  28.4364550   8.8559357
  41.2224837  29.1725577   8.5305846  40.3498026  28.7428543   9.6906116
  40.9555487  24.8564832   4.3760254  41.2357241  24.1888021   5.0020680
  41.7406094  25.0493928   3.8634918  38.7588956  44.0323826  -4.0614720
  38.1862923  44.6514013  -4.5144248  39.3321749  44.5823188  -3.5274798
  44.8264346  33.2782466   8.1231829  45.7781769  33.3780564   8.1444053
  44.6567796  32.4860735   8.6329913  42.8478725  30.3638050   8.3091230
  42.2528657  30.6443062   7.6137718  42.5628422  30.8531951   9.0807971
  41.9786216  44.3160976  -2.9306138  42.9116889  44.2506538  -2.7273262
  41.8909428  45.1517243  -3.3891605  44.6074232  43.6326847  -5.9702190
  44.5287864  43.2986710  -5.0766432  45.4283899  44.1248615  -5.9710718
  47.3052423  36.4988586   7.2374128  47.2728744  35.5604587   7.4233812
  47.9153047  36.5772623   6.5039953  47.4546912  33.2899630   7.2832412
  46.9385961  32.5058086   7.0962340  48.3386860  32.9618346   7.4478931
  45.1157639  27.0340645   3.2428224  44.9182460  26.7255733   4.1271556
  45.7257344  27.7602284   3.3726154  53.1228973  37.5604593   6.3780165
  53.8532362  37.2989881   6.9387869  52.5135919  36.8233315   6.4182233
  51.2044270  35.7012456   6.9754616  50.4777434  35.5668420   6.3671108
  50.7891557  36.0089284   7.7811334  39.0274447  39.4202385  14.7401989
  39.9477456  39.5980984  14.9342036  38.9924030  38.4758431  14.5881689
  28.2456612  34.6140979   3.6655264  27.9259396  33.7606287   3.3729638
  27.6990040  34.8289557   4.4213231  32.0236519  37.3303420   7.3824771
  32.2422529  38.2620528   7.4012804  32.4362293  36.9711394   8.1679574
  36.8964385  32.9036626  16.7727520  36.7961112  33.8530983  16.7039611
  36.6785927  32.5754865  15.9003590  28.1144872  38.2343890   5.6348386
  27.4208343  37.8197843   5.1218340  28.8617863  38.2764427   5.0381805
  44.2510093  29.0250077   0.5003420  43.6708762  29.6834881   0.1181472
  43.9846025  28.2027422   0.0890837  42.7013659  28.4255135   2.7024740
  43.2013437  28.5371669   1.8939059  43.3449267  28.1216188   3.3425549
  36.7595655  36.3333764  15.5892581  36.2762736  37.1334125  15.7956470
  36.8456594  36.3441709  14.6360025  30.0281614  38.1662144   3.5114401
  30.0052302  38.2649831   2.5596284  30.3382251  39.0127295   3.8331567
  32.6868992  40.2238299   7.6261015  33.6412246  40.1922241   7.5590947
  32.4881516  39.7628923   8.4411241  33.2768374  38.7939415  10.1931813
  34.0961263  39.2883494  10.2166650  33.5505182  37.8771383  10.1649380
  43.0334971  31.1850168  -0.4440232  42.1460826  31.4699818  -0.6620037
  43.4488960  31.0243931  -1.2912955  46.3849507  31.2096688   3.2714107
  47.1609897  31.6993141   3.5438724  45.6597641  31.6354743   3.7285977
  48.8222065  31.9224308   4.3288048  49.4166556  31.6820044   3.6181356
  48.8948649  31.2031438   4.9561584  31.0419221  45.7657919   4.6431213
  30.9073689  45.0058320   4.0769211  30.6251283  46.4898819   4.1760002
  42.1778184  40.9494842  -6.3492212  42.8814034  41.1544845  -5.7334556
  41.4540833  41.5171604  -6.0843128  43.0075994  36.7004703  -0.2289942
  42.9511196  37.1573255  -1.0682309  43.5604337  35.9395388  -0.4067099
  46.8180800  32.4894435   0.5960178  46.5617734  32.0891071   1.4268386
  46.1933668  33.2038229   0.4710317  51.1293138  35.2290509   3.1031469
  50.5692696  35.2983698   3.8763031  50.5236641  35.0531493   2.3830965
  34.1988347  46.6627236   4.8549655  34.0820731  47.6072668   4.7528346
  33.3780793  46.3600797   5.2435455  44.0864881  41.3877371  -4.2993752
  44.9210485  40.9558570  -4.4816277  43.9249224  41.2159385  -3.3716857
  43.7410774  37.8909485  -2.9337412  43.6859577  37.7253756  -3.8748968
  43.1156829  38.5985518  -2.7775223  28.5303289  33.1277549  10.8924010
  29.1762152  32.6176503  11.3811235  28.3220440  33.8646231  11.4667435
  41.0556681  40.1958397  16.3916150  41.9247840  40.3699049  16.0302785
  40.5763432  41.0152813  16.2691880  35.2242861  47.3155498   8.0705584
  36.1270108  47.3479108   8.3872079  34.9980231  46.3855949   8.0851920
  36.9796463  46.0686484   4.7315663  36.0292094  46.0688346   4.6180035
  37.2828949  45.3219219   4.2151697  32.8700780  30.2745166  14.9899024
  33.7332241  29.9181971  15.2002349  32.2966190  29.9359061  15.6774428
  52.7149157  51.9047022   5.7961425  53.3527567  51.7853770   5.0924765
  52.5969999  52.8527866   5.8549377  49.5238863  51.8574451   5.7322950
  49.1857374  51.7415515   4.8443484  50.3928631  51.4565616   5.7123956
  45.3825679  53.7109927   1.7219841  44.8190544  53.6199864   0.9536128
  45.2678074  52.8909831   2.2022333  50.0058646  53.0109302  11.6909155
  49.9947287  52.6162101  10.8189659  50.1679285  52.2775375  12.2842927
  42.9290110  55.2061119   4.5604061  43.7211402  54.8651943   4.1450360
  43.1686761  55.3156094   5.4806214  44.8880864  54.4670032  -2.5678560
  45.6611740  53.9199019  -2.7065684  45.2406263  55.3314281  -2.3564099
  46.7265907  55.7946414  10.6388339  46.4355773  56.6992045  10.5235005
  47.3622891  55.8362942  11.3532409  47.6522114  53.1723263   7.2289699
  48.2485686  52.9479285   6.5146662  47.7097085  52.4308008   7.8315147
  52.2690425  49.6298476   2.8714633  53.0553514  49.2117900   2.5205050
  52.5329129  50.5344569   3.0396281  57.6698852  49.5673710   3.7747611
  58.4024024  48.9972926   4.0085441  56.9138208  49.1795310   4.2154117
  46.9443431  52.5290804  -2.7335735  46.8279689  51.8535707  -2.0654651
  47.0545691  52.0423178  -3.5503582  49.2874972  51.9900951   0.9710954
  48.9233179  51.4631572   1.6823875  50.1442088  51.5999420   0.7977439
  55.1924273  43.2795284   8.2342220  54.8607597  44.1490695   8.0103435
  54.5969886  42.9631568   8.9136250  48.9280459  47.0190851  -4.0327698
  49.0954861  47.8871087  -3.6657226  48.7377628  47.1818132  -4.9566408
  51.6855792  55.4807830   7.6338133  51.3856515  56.3832868   7.5253940
  51.3406852  55.2140013   8.4859286  45.1368274  51.9321626   3.6674837
  44.2118770  51.7997841   3.8752529  45.3852687  52.7115846   4.1644780
  55.0852936  47.9990370   5.3135570  54.1769813  47.9305778   5.0194331
  55.0340532  48.4762315   6.1417396  48.9069680  49.4748508  -3.0481031
  48.7869305  49.9205559  -2.2095550  48.2122268  49.8233826  -3.6067493
  42.4977085  51.5754900   4.5018626  42.6269466  51.8289379   5.4158038
  41.8174536  52.1682608   4.1823281  49.1593802  49.4180015  13.2570467
  48.3827136  49.9773936  13.2473332  49.7984365  49.9036798  13.7785338
  56.9514582  46.2006808   7.0913444  56.3088962  46.4939341   6.4453239
  56.4469511  46.0859729   7.8966641  47.4140174  52.2265469  12.8188434
  48.1554858  52.7650513  12.5423258  46.7077159  52.8531758  12.9759986
  52.8895514  54.3694609  11.4160596  53.2978870  53.9277020  10.6715228
  52.1672775  53.7947237  11.6694789  49.2426584  49.3067216   8.7894153
  50.0887779  49.7306630   8.9328802  49.1825221  48.6500840   9.4832716
  53.2124328  54.9295800   5.1712885  52.5833191  55.0941514   4.4688953
  52.8249990  55.3437409   5.9423849  52.3926029  46.9671584  10.4475326
  52.1486961  47.7213645   9.9109602  52.6685959  47.3456932  11.2822574
  54.3464492  53.5110197   9.1252592  54.5581387  54.1541957   8.4486973
  54.2994240  52.6772513   8.6574522  51.9490721  46.1228017   6.0289164
  51.0875200  46.4209271   6.3205902  51.9753155  46.3398416   5.0970197
  48.7652290  54.6670208   2.4362970  49.2290636  54.9457911   1.6467592
  48.5009088  53.7653653   2.2536061  45.6576371  54.2141689   5.3742733
  46.2277728  54.6428958   4.7360218  46.2484483  53.9324274   6.0726919
  47.7021176  50.7893360  -0.7547465  48.4045219  51.2414404  -0.2873539
  47.3701805  50.1477179  -0.1267572  46.1501538  49.3805117  13.6203744
  45.5200198  50.0621398  13.8539141  46.0437626  49.2688199  12.6756883
  41.4446510  49.0476913   4.5469669  40.6545564  49.3034442   4.0709779
  41.9357757  49.8625251   4.6521709  55.4610320  56.3882152   7.2974949
  56.2827763  55.9862339   7.0157631  55.4572723  56.2850386   8.2491065
  43.3961255  49.4121492   1.5053145  42.5992419  49.5240186   2.0236641
  43.1686848  49.7508144   0.6394036  49.2266923  55.9366195   9.4535660
  49.2911356  56.3986603  10.2893832  48.5177847  55.3063560   9.5817970
  39.7284213  49.3007403   6.9784659  39.9792252  50.1854413   7.2442235
  40.2643761  49.1212005   6.2059751  63.5516313  52.7320901   3.6459921
  62.7980021  52.1628299   3.4903925  63.6863854  52.6983565   4.5930556
  45.4282280  43.6825883  15.9828995  45.0349226  43.1292081  16.6576640
  46.2448421  43.9936461  16.3735513  42.3944338  55.1209741  -0.1057435
  42.9068859  55.9152991   0.0448130  43.0467051  54.4236031  -0.1723833
  44.2039223  58.2375497   1.9765319  44.3805851  59.1593462   1.7886302
  44.9996056  57.9233916   2.4059698  48.3450241  45.0983762  13.5749252
  49.0859955  45.6990915  13.4953715  48.5768164  44.3561400  13.0167295
  43.4891579  50.2840129  11.8527482  43.3745095  49.3825386  12.1534581
  42.6336097  50.5303826  11.5012298  50.5683417  58.2257869  13.4514982
  50.1247271  57.4394248  13.1335887  51.2300631  58.4137020  12.7858873
  45.3270538  59.7553671   7.9775661  45.8777963  59.6270734   7.2052655
  44.4882014  60.0548560   7.6270554  52.6664655  58.5060669  11.4796384
  52.6483131  59.3269550  10.9876653  53.5884575  58.3814745  11.7046525
  49.1237709  56.0204799  12.3219892  49.6566046  55.2593087  12.0919200
  48.5951790  55.7278451  13.0644046  52.2907404  41.1264865   7.8513534
  51.9471674  42.0166507   7.7752644  52.6586367  40.9366522   6.9883119
  40.3593255  53.4498395   0.6702136  41.1968477  53.8595404   0.4535844
  40.5371523  52.5097837   0.6402330  49.8404798  45.9623177   1.4171207
  48.9846394  45.5730027   1.2376846  50.2531750  46.0415138   0.5570993
  51.3703945  43.4969520   5.8162767  50.8668740  43.4599655   5.0030572
  51.6634552  44.4062263   5.8759424  47.6146831  43.5808250   4.8228949
  48.4799827  43.3851058   4.4634838  47.6824340  43.3518601   5.7498305
  52.0443990  48.9900568  -1.8154250  51.7394126  49.3046717  -0.9644107
  52.9974432  49.0681988  -1.7726917  50.4890422  55.1490791  -0.1661296
  49.9611784  54.4143551  -0.4788059  49.9877925  55.9265468  -0.4121328
  55.4683268  53.3439812   4.9505750  54.8106943  54.0339073   5.0385879
  56.2723667  53.7336244   5.2939737  45.2209150  45.8110458   2.1945316
  45.7952902  45.5885639   1.4618508  45.8080132  45.8799152   2.9473917
  54.2788727  51.6984185   3.0009692  54.7920609  52.3314176   3.5031402
  54.9289951  51.0985380   2.6353052  45.5478737  47.8414919  -3.7858799
  44.7116049  48.1789605  -3.4649525  45.4083506  47.7063898  -4.7231662
  47.5231817  42.6851707   0.9220385  46.8696230  42.3700724   0.2977000
  47.4812292  42.0627447   1.6480208  50.7569558  49.1733640   5.2468033
  49.8392119  49.3948587   5.0889721  51.1729701  49.2479951   4.3879740
  51.5404606  50.5725056   0.3770713  52.2876424  51.0846453   0.0677835
  51.8096195  50.2509108   1.2375106  53.9883443  47.6082172   2.3589502
  53.2506199  47.0959558   2.6899745  54.2410216  47.1682554   1.5472779
  54.0895070  40.3858424   2.9531271  54.3953947  39.5255787   2.6657186
  54.8147675  40.9776044   2.7530265  40.3819426  50.7889111   1.3412869
  40.1843826  50.1958471   0.6163936  39.8266090  50.4841321   2.0588808
  48.3616150  50.6812217   3.4607462  48.4164760  49.7286053   3.3849939
  47.5507352  50.8371656   3.9448761  46.3008510  49.2989277   1.2197841
  45.4876375  49.5983447   1.6263033  46.7967504  48.9044966   1.9372324
  48.4517088  59.2947034   3.1532106  48.4093266  59.5207880   2.2240638
  49.3679786  59.0610408   3.3017907  51.8982721  49.7631101  10.0512735
  52.2532109  49.9902574  10.9107201  52.5454853  50.0949478   9.4289991
  45.7922584  46.8707632   6.8359076  46.4321964  46.7296391   6.1382040
  44.9600115  46.5842146   6.4597678  57.6549838  54.9526064   5.7673336
  58.0886345  54.8601353   6.6156390  58.3681419  54.9283565   5.1293352
  46.5682888  56.1710063   2.9494069  47.3623487  55.6760383   2.7476644
  45.8574581  55.6427926   2.5861774  51.3877733  58.5528158   7.3006436
  51.4414755  59.1219095   8.0684152  50.5192514  58.7230043   6.9360473
  42.8765652  50.3153145  -0.9746179  41.9463240  50.2537600  -0.7576216
  42.9723124  49.7929097  -1.7709537  42.7951201  46.8407957   1.6132063
  43.0558018  47.7553291   1.5041224  43.6168373  46.3732400   1.7628676
  44.2676126  48.2545715   8.7830888  44.9399180  48.0463077   8.1343537
  43.4405913  48.0567801   8.3436120  58.5165387  54.9949765   8.3006221
  58.7101278  55.8995575   8.5465496  58.4166006  54.5357184   9.1344806
  50.1701698  44.8807655  10.7996548  49.5229613  45.5797605  10.7061025
  50.9402714  45.3143799  11.1672797  53.5780496  55.1456508  13.8747102
  53.4266003  54.9167059  12.9577185  53.5685176  56.1027109  13.8878447
  50.3465833  52.7188420   8.8593368  51.2757893  52.8699580   8.6862336
  49.9256863  52.8072441   8.0042015  49.1454164  56.7439085   6.6291906
  49.0065250  56.3757869   7.5017844  48.3568761  57.2586724   6.4575864
  50.6959379  56.1220687   4.0180744  50.3609212  56.0821457   4.9138394
  50.1963325  55.4565403   3.5451154  44.6703623  51.5288317   9.5433325
  44.5323421  50.7968556  10.1444864  45.5808547  51.4397218   9.2617513
  47.2985924  51.2408277   9.0317004  48.0085543  50.6001469   8.9903623
  47.2555232  51.4921172   9.9543185  55.2872703  58.1775630  11.9523584
  55.2285249  57.4934850  11.2854167  55.6892221  58.9194620  11.5004210
  46.0114858  48.2273495  10.8512644  45.4752215  47.7764233  11.5034240
  45.4231567  48.3619404  10.1083108  44.3063402  64.9937544   4.7457303
  44.5460000  65.6256068   5.4236321  43.4632598  64.6425584   5.0322662
  45.4217117  47.6862146  -6.5860892  44.5446583  47.5650947  -6.9498646
  45.8974870  46.8948224  -6.8382004  55.2890110  56.1415214  10.1837563
  54.4016889  55.8041136  10.3063962  55.8588661  55.4098245  10.4206329
  36.9419257  52.4739306   3.5080615  37.6290297  52.1601036   2.9201630
  36.7867386  53.3780670   3.2347866  41.7453979  47.3629502   7.9365638
  41.6612168  46.7555172   7.2016048  40.9236686  47.8538521   7.9375135
  48.8191263  60.8016666   7.1498807  48.7461435  61.6071638   7.6618111
  48.3768657  61.0008632   6.3246828  51.9177693  45.8483066   3.3035833
  52.4146393  45.0953028   2.9836904  51.1464675  45.8847383   2.7379043
  59.7707451  51.5523431   4.9454125  59.7597327  52.4348147   4.5748058
  58.9024830  51.1994982   4.7508662  51.2789947  60.7003500   9.3056965
  51.9917919  61.3350965   9.2332867  50.7879976  60.7967366   8.4896967
  53.0007474  54.6054753   0.8774257  52.0663753  54.7256216   0.7078961
  53.1784142  53.7027220   0.6134267  48.5012662  47.9900449   3.0307518
  48.1310449  47.4371489   3.7188424  48.9971754  47.3858582   2.4782518
  56.3880025  50.4472072   1.4124291  56.8540477  51.2800064   1.3384594
  56.8387526  49.9817054   2.1169549  46.3301860  58.4497944  10.1262536
  47.0311320  59.0834427  10.2791930  45.8596975  58.7912675   9.3658175
  54.3596688  42.8152659   5.4515192  53.4459768  43.0456886   5.6197399
  54.7889789  42.8991103   6.3029225  54.1303146  51.0042551   7.9515086
  53.4774597  51.2518459   7.2967539  54.5083526  50.1906690   7.6177564
  50.1790719  51.7462362  14.4381123  49.5031356  51.6456492  15.1083499
  51.0018353  51.5901576  14.9017121  41.9269579  57.9834299   7.0593639
  42.5123015  57.2377987   7.1921543  41.7294417  58.2938256   7.9430303
  44.7808234  61.0185546   2.0756081  44.1118609  61.5031674   1.5920121
  44.6421103  61.2654767   2.9899460  36.5187233  50.5539899   5.7798082
  36.5571333  50.0203490   6.5735200  36.0127526  50.0275105   5.1609059
  48.9213502  63.0529290   8.6738739  49.4731810  63.2160911   9.4387825
  49.2619696  63.6433728   8.0018764  43.8977996  45.4004440   9.2760624
  43.9619322  46.2619271   8.8638022  43.8345116  44.7878441   8.5432983
  43.3730268  47.4727572  12.9233658  44.0002307  47.0904650  13.5371183
  42.5158187  47.2541774  13.2889351  53.7724377  57.8790547  14.5287394
  54.3164281  58.4920506  14.0342349  53.1911222  58.4370126  15.0454407
  40.1495811  49.2804001  -1.1447987  40.4449252  48.3714680  -1.1980933
  39.2483847  49.2591741  -1.4666984  52.0581890  61.0011265   5.6602422
  51.9333029  60.2001005   5.1513367  52.7160981  61.4957459   5.1716392
  43.6790058  47.3559998   4.8379562  42.9576644  47.9695966   4.6987035
  44.4683314  47.8917763   4.7596208  54.1216798  58.8020285   7.2881972
  53.1747134  58.6825637   7.2160298  54.4699571  57.9142784   7.3708233
  46.4816371  44.6914424  11.1120214  47.0050773  44.9376721  11.8746523
  46.2628705  45.5234459  10.6923351  41.8783652  46.9618099  -1.0208662
  41.5496359  46.0815478  -1.2033556  42.2323023  46.9065768  -0.1332272
  51.1263231  58.5973002   3.4886324  50.9788194  57.6689709   3.6693894
  51.9516725  58.6193092   3.0043399  44.9925476  47.2491069  -0.6533184
  45.3321548  47.7776990  -1.3754576  45.4397596  47.5871475   0.1225383
  54.7297353  59.4201560   4.5751197  55.6543901  59.2144422   4.4375648
  54.5612657  59.1717962   5.4840538  47.6868916  45.6328120   8.7969884
  47.3465737  44.8335933   9.1990564  46.9807923  45.9329830   8.2246717
  48.3385388  42.7177432   7.2497207  49.1611458  42.2437910   7.1276097
  48.5823452  43.4967916   7.7495893  46.9793623  45.7465690  -2.4539891
  47.7001985  46.1246943  -2.9576174  46.3558927  46.4654567  -2.3504913
  51.1224746  46.4510839  -1.5181559  51.3388360  47.3335477  -1.8192731
  50.6418813  46.0597053  -2.2475917  45.8623967  49.4096553   5.0589186
  45.7168548  49.7236856   5.9513467  45.3849171  50.0281453   4.5060084
  47.7220350  46.3999101   5.1070075  47.7081919  45.5040194   4.7702373
  48.4392778  46.4069764   5.7408361  49.5746481  46.8336441   7.1523203
  49.3164258  47.7553511   7.1507533  49.0431521  46.4366875   7.8423667
  40.3369629  51.9501897   7.9976847  39.7923097  52.7261705   8.1297121
  41.2148979  52.2972701   7.8395968  47.1257246  45.2813481   0.3757645
  47.2473157  44.3530127   0.5748533  46.8359288  45.2952167  -0.5364039
  49.9948436  42.9668391   3.5124365  50.0170133  43.0307724   2.5576345
  50.4116495  42.1272900   3.7064871  41.1235651  51.0771793  10.8907004
  40.3817387  51.2254429  11.4771634  40.8028395  51.3380059  10.0273753
  49.0679314  60.6187771  10.6887394  49.3766440  60.3736918  11.5610093
  49.8654796  60.8234410  10.2006264  41.5692265  58.9637222   2.9217398
  42.3950285  58.6640994   2.5416042  41.2186317  58.1944844   3.3707187
  46.5373798  58.3163690   4.9915072  45.9153807  57.6534395   4.6917300
  47.2078665  58.3424822   4.3088720  39.7700870  56.8823548   3.8806332
  38.9332778  56.4545723   3.6990333  39.7424515  57.0755992   4.8177123
  46.6098325  46.7945478  14.5847578  46.6586481  47.6707601  14.2025348
  47.1520840  46.2522871  14.0119221  57.0953171  57.3386601  13.8648715
  56.3048715  57.3210740  13.3253215  56.8586526  57.8774895  14.6197752
  57.2151046  54.1879068  11.1781444  57.2649051  54.0229075  12.1196966
  57.1064969  53.3206327  10.7879324  54.5054808  50.1709996  12.4940750
  55.4064671  50.0316461  12.2024748  54.5802783  50.3364451  13.4338928
  48.8397614  47.5476851  11.3393937  47.9700923  47.8410417  11.0676525
  49.0757094  48.1317296  12.0601200  58.7169243  56.6076009  11.4223465
  58.4254051  56.9705990  12.2586926  58.1041374  55.8943018  11.2436797
  59.9164925  54.1728889   3.9426035  60.7511817  54.6118693   4.1063596
  60.0524054  53.6967542   3.1234281  56.9656431  51.7308624   9.8903523
  57.4410553  51.9236270   9.0822375  56.0421997  51.7867810   9.6446907
  43.8539938  52.8932791  -0.5265399  43.6085980  51.9895121  -0.3285188
  44.0235852  52.8949942  -1.4685921  51.5436648  43.7656468   8.8559357
  52.0618592  44.5017494   8.5305846  51.1891780  44.0720461   9.6906116
  43.1235585  48.6261149  -3.0279237  42.4304830  48.7005504  -3.6839201
  42.8787337  47.8621492  -2.5057720  51.7949242  40.1856750   4.3760254
  52.0750996  39.5179939   5.0020680  52.5799849  40.3785846   3.8634918
  55.6658100  48.6074384   8.1231829  56.6175523  48.7072482   8.1444053
  55.4961551  47.8152653   8.6329913  53.6872480  45.6929967   8.3091230
  53.0922412  45.9734980   7.6137718  53.4022176  46.1823868   9.0807971
  58.1446178  51.8280504   7.2374128  58.1122498  50.8896504   7.4233812
  58.7546802  51.9064540   6.5039953  58.2940666  48.6191547   7.2832412
  57.7779715  47.8350004   7.0962340  59.1780615  48.2910264   7.4478931
  55.9551393  42.3632563   3.2428224  55.7576214  42.0547651   4.1271556
  56.5651099  43.0894202   3.3726154  63.9622728  52.8896511   6.3780165
  64.6926116  52.6281799   6.9387869  63.3529673  52.1525233   6.4182233
  62.0438025  51.0304373   6.9754616  61.3171188  50.8960338   6.3671108
  61.6285312  51.3381202   7.7811334  49.8668201  54.7494303  14.7401989
  50.7871211  54.9272902  14.9342036  49.8317784  53.8050348  14.5881689
  39.0850366  49.9432897   3.6655264  38.7653151  49.0898205   3.3729638
  38.5383795  50.1581475   4.4213231  42.8630274  52.6595338   7.3824771
  43.0816284  53.5912445   7.4012804  43.2756048  52.3003312   8.1679574
  49.7834492  43.1663423  -0.6299541  48.9735220  42.8210508  -0.2544295
  50.4718909  42.8570967  -0.0411929  51.7125040  42.2441470   0.9924756
  52.2656079  42.6636923   1.6514779  51.9495126  41.3177218   1.0347712
  47.7358139  48.2328543  16.7727520  47.6354866  49.1822900  16.7039611
  47.5179681  47.9046782  15.9003590  46.9371211  45.4813468  -6.6431803
  47.7990375  45.8068367  -6.3835986  47.1221555  44.6944964  -7.1558737
  38.9538626  53.5635808   5.6348386  38.2602098  53.1489761   5.1218340
  39.7011617  53.6056345   5.0381805  55.0903847  44.3541995   0.5003420
  54.5102516  45.0126799   0.1181472  54.8239780  43.5319339   0.0890837
  53.5407413  43.7547053   2.7024740  54.0407192  43.8663587   1.8939059
  54.1843021  43.4508105   3.3425549  47.5989409  51.6625682  15.5892581
  47.1156491  52.4626042  15.7956470  47.6850348  51.6733627  14.6360025
  40.8675369  53.4954062   3.5114401  40.8446057  53.5941749   2.5596284
  41.1776005  54.3419213   3.8331567  43.5262747  55.5530217   7.6261015
  44.4806000  55.5214159   7.5590947  43.3275270  55.0920841   8.4411241
  44.1162129  54.1231333  10.1931813  44.9355018  54.6175412  10.2166650
  44.3898937  53.2063301  10.1649380  53.8728725  46.5142085  -0.4440232
  52.9854580  46.7991736  -0.6620037  54.2882714  46.3535849  -1.2912955
  57.2243261  46.5388606   3.2714107  58.0003651  47.0285059   3.5438724
  56.4991395  46.9646660   3.7285977  59.6615820  47.2516225   4.3288048
  60.2560311  47.0111961   3.6181356  59.7342404  46.5323356   4.9561584
  41.8812976  61.0949836   4.6431213  41.7467443  60.3350237   4.0769211
  41.4645038  61.8190736   4.1760002  57.6574555  47.8186353   0.5960178
  57.4011489  47.4182989   1.4268386  57.0327423  48.5330147   0.4710317
  61.9686893  50.5582426   3.1031469  61.4086451  50.6275616   3.8763031
  61.3630396  50.3823411   2.3830965  45.0382101  61.9919153   4.8549655
  44.9214486  62.9364586   4.7528346  44.2174548  61.6892715   5.2435455
  39.3697043  48.4569467  10.8924010  40.0155907  47.9468421  11.3811235
  39.1614194  49.1938148  11.4667435  51.8950435  55.5250314  16.3916150
  52.7641595  55.6990967  16.0302785  51.4157187  56.3444731  16.2691880
  47.8900654  42.7209511  -3.3552094  47.8779323  43.6651351  -3.1983823
  48.7824075  42.5379657  -3.6492633  46.0636616  62.6447415   8.0705584
  46.9663862  62.6771026   8.3872079  45.8373986  61.7147866   8.0851920
  47.8190218  61.3978402   4.7315663  46.8685849  61.3980263   4.6180035
  48.1222704  60.6511136   4.2151697  51.7052773  39.3152288   0.8993843
  50.9385169  38.7610775   1.0450525  52.1163478  39.3874157   1.7607994
  43.7094534  45.6037084  14.9899024  44.5725996  45.2473889  15.2002349
  43.1359945  45.2650979  15.6774428  60.8452400  68.3401220  11.6909155
  60.8341041  67.9454018  10.8189659  61.0073040  67.6067293  12.2842927
  66.0318027  58.6087201   8.2342220  65.7001352  59.4782612   8.0103435
  65.4363640  58.2923485   8.9136250  59.9987556  64.7471933  13.2570467
  59.2220890  65.3065853  13.2473332  60.6378119  65.2328716  13.7785338
  58.2533928  67.5557386  12.8188434  58.9948613  68.0942430  12.5423258
  57.5470914  68.1823675  12.9759986  63.2319783  62.2963502  10.4475326
  62.9880715  63.0505563   9.9109602  63.5079714  62.6748850  11.2822574
  56.9895292  64.7097035  13.6203744  56.3593953  65.3913315  13.8539141
  56.8831380  64.5980116  12.6756883  50.5677968  64.6299321   6.9784659
  50.8186006  65.5146331   7.2442235  51.1037516  64.4503923   6.2059751
  56.2676035  59.0117800  15.9828995  55.8742980  58.4583999  16.6576640
  57.0842175  59.3228379  16.3735513  59.1843996  60.4275680  13.5749252
  59.9253709  61.0282833  13.4953715  59.4161919  59.6853317  13.0167295
  54.3285334  65.6132047  11.8527482  54.2138849  64.7117304  12.1534581
  53.4729852  65.8595744  11.5012298  63.1301159  56.4556783   7.8513534
  62.7865428  57.3458424   7.7752644  63.4980121  56.2658440   6.9883119
  56.6316339  62.1999550   6.8359076  57.2715718  62.0588309   6.1382040
  55.7993869  61.9134063   6.4597678  55.1069881  63.5837632   8.7830888
  55.7792934  63.3754994   8.1343537  54.2799667  63.3859718   8.3436120
  61.0095453  60.2099573  10.7996548  60.3623368  60.9089523  10.7061025
  61.7796468  60.6435717  11.1672797  55.5097378  66.8580235   9.5433325
  55.3717176  66.1260474  10.1444864  56.4202301  66.7689135   9.2617513
  58.1379679  66.5700194   9.0317004  58.8479297  65.9293387   8.9903623
  58.0948987  66.8213089   9.9543185  56.8508613  63.5565412  10.8512644
  56.3145970  63.1056151  11.5034240  56.2625321  63.6911321  10.1083108
  52.5847734  62.6921420   7.9365638  52.5005923  62.0847090   7.2016048
  51.7630440  63.1830438   7.9375135  61.0184474  67.0754280  14.4381123
  60.3425111  66.9748409  15.1083499  61.8412108  66.9193494  14.9017121
  47.3580988  65.8831817   5.7798082  47.3965087  65.3495408   6.5735200
  46.8521281  65.3567022   5.1609059  54.7371750  60.7296357   9.2760624
  54.8013077  61.5911188   8.8638022  54.6738870  60.1170359   8.5432983
  54.2124023  62.8019490  12.9233658  54.8396061  62.4196567  13.5371183
  53.3551941  62.5833692  13.2889351  57.3210126  60.0206342  11.1120214
  57.8444528  60.2668639  11.8746523  57.1022459  60.8526377  10.6923351
  58.5262671  60.9620037   8.7969884  58.1859491  60.1627850   9.1990564
  57.8201677  61.2621748   8.2246717  59.1779143  58.0469350   7.2497207
  60.0005212  57.5729828   7.1276097  59.4217206  58.8259833   7.7495893
  51.1763384  67.2793815   7.9976847  50.6316852  68.0553623   8.1297121
  52.0542734  67.6264619   7.8395968  51.9629406  66.4063711  10.8907004
  51.2211142  66.5546346  11.4771634  51.6422150  66.6671977  10.0273753
  57.4492080  62.1237396  14.5847578  57.4980235  62.9999519  14.2025348
  57.9914594  61.5814789  14.0119221  65.3448563  65.5001914  12.4940750
  66.2458426  65.3608378  12.2024748  65.4196537  65.6656368  13.4338928
  59.6791368  62.8768768  11.3393937  58.8094678  63.1702334  11.0676525
  59.9150849  63.4609213  12.0601200  62.3830402  59.0948385   8.8559357
  62.9012346  59.8309412   8.5305846  62.0285535  59.4012379   9.6906116
  60.7061956  70.0786221  14.7401989  61.6264965  70.2564820  14.9342036
  60.6711539  69.1342266  14.5881689  58.5751894  63.5620461  16.7727520
  58.4748621  64.5114818  16.7039611  58.3573436  63.2338700  15.9003590
  58.4383164  66.9917600  15.5892581  57.9550245  67.7917960  15.7956470
  58.5244103  67.0025545  14.6360025  54.9555883  69.4523251  10.1931813
  55.7748772  69.9467329  10.2166650  55.2292691  68.5355219  10.1649380
  50.2090798  63.7861384  10.8924010  50.8549661  63.2760338  11.3811235
  50.0007949  64.5230066  11.4667435  62.7344190  70.8542232  16.3916150
  63.6035349  71.0282884  16.0302785  62.2550941  71.6736649  16.2691880
  54.5488289  60.9329001  14.9899024  55.4119750  60.5765806  15.2002349
  53.9753699  60.5942896  15.6774428  50.0058647  30.0171425  -1.5845538
  49.9947288  29.6224223  -2.4565035  50.1679287  29.2837498  -0.9911767
  46.7265908  32.8008537  -2.6366354  46.4355774  33.7054168  -2.7519688
  47.3622893  32.8425064  -1.9222285  51.6855793  32.4869952  -5.6416561
  51.3856516  33.3894991  -5.7500753  51.3406853  32.2202135  -4.7895408
  49.1593803  26.4242138  -0.0184226  48.3827137  26.9836058  -0.0281361
  49.7984366  26.9098921   0.5030644  47.4140175  29.2327591  -0.4566259
  48.1554860  29.7712635  -0.7331435  46.7077161  29.8593880  -0.2994707
  52.8895515  31.3756732  -1.8594097  53.2978871  30.9339142  -2.6039465
  52.1672776  30.8009359  -1.6059905  54.3464493  30.5172319  -4.1502101
  54.5581388  31.1604079  -4.8267720  54.2994241  29.6834636  -4.6180171
  55.4610321  33.3944275  -5.9779744  56.2827765  32.9924462  -6.2597062
  55.4572724  33.2912509  -5.0263628  49.2266924  32.9428318  -3.8219033
  49.2911357  33.4048725  -2.9860862  48.5177848  32.3125683  -3.6936724
  50.5683418  35.2319992   0.1760289  50.1247273  34.4456371  -0.1418807
  51.2300632  35.4199143  -0.4895820  52.6664656  35.5122792  -1.7958310
  52.6483132  36.3331673  -2.2878041  53.5884577  35.3876867  -1.5708169
  49.1237711  33.0266921  -0.9534801  49.6566047  32.2655210  -1.1835493
  48.5951792  32.7340573  -0.2110647  57.6549839  31.9588187  -7.5081358
  58.0886346  31.8663476  -6.6598304  58.3681420  31.9345687  -8.1461342
  51.3877734  35.5590281  -5.9748257  51.4414756  36.1281217  -5.2070541
  50.5192515  35.7292166  -6.3394220  58.5165389  32.0011887  -4.9748472
  58.7101279  32.9057698  -4.7289197  58.4166007  31.5419307  -4.1409887
  53.5780497  32.1518630   0.5992408  53.4266004  31.9229182  -0.3177508
  53.5685177  33.1089232   0.6123753  55.2872704  35.1837753  -1.3231110
  55.2285250  34.4996973  -1.9900527  55.6892222  35.9256743  -1.7750484
  55.2890111  33.1477337  -3.0917130  54.4016890  32.8103258  -2.9690731
  55.8588662  32.4160368  -2.8548365  48.8191265  37.8078789  -6.1255887
  48.7461436  38.6133761  -5.6136582  48.3768658  38.0070755  -6.9507865
  51.2789948  37.7065623  -3.9697728  51.9917920  38.3413088  -4.0421827
  50.7879977  37.8029489  -4.7857726  46.3301862  35.4560067  -3.1492157
  47.0311321  36.0896549  -2.9962763  45.8596977  35.7974798  -3.9096518
  50.1790721  28.7524485   1.1626430  49.5031358  28.6518614   1.8328805
  51.0018355  28.5963699   1.6262427  48.9213504  40.0591412  -4.6015954
  49.4731812  40.2223034  -3.8366869  49.2619697  40.6495850  -5.2735929
  53.7724378  34.8852670   1.2532700  54.3164282  35.4982628   0.7587655
  53.1911223  35.4432248   1.7699713  52.0581891  38.0073388  -7.6152272
  51.9333030  37.2063128  -8.1241326  52.7160982  38.5019581  -8.1038302
  54.1216799  35.8082408  -5.9872722  53.1747135  35.6887759  -6.0594395
  54.4699572  34.9204906  -5.9046460  54.7297354  36.4263683  -8.7003497
  55.6543902  36.2206544  -8.8379046  54.5612658  36.1780084  -7.7914155
  49.0679315  37.6249894  -2.5867300  49.3766441  37.3799041  -1.7144600
  49.8654797  37.8296533  -3.0748429  57.0953172  34.3448724   0.5894022
  56.3048716  34.3272863   0.0498521  56.8586527  34.8837018   1.3443058
  57.2151047  31.1941190  -2.0973250  57.2649052  31.0291198  -1.1557727
  57.1064971  30.3268449  -2.4875369  54.5054810  27.1772118  -0.7813943
  55.4064672  27.0378583  -1.0729945  54.5802784  27.3426573   0.1584234
  58.7169244  33.6138132  -1.8531228  58.4254052  33.9768113  -1.0167767
  58.1041375  32.9005140  -2.0317896  56.9656432  28.7370747  -3.3851170
  57.4410554  28.9298393  -4.1932319  56.0421998  28.7929932  -3.6307787
  49.8668203  31.7556425   1.4647296  50.7871212  31.9335024   1.6587343
  49.8317786  30.8112471   1.3126995  47.7358140  25.2390666   3.4972826
  47.6354867  26.1885023   3.4284917  47.5179683  24.9108905   2.6248896
  47.5989411  28.6687805   2.3137888  47.1156492  29.4688165   2.5201777
  47.6850350  28.6795750   1.3605332  51.8950437  32.5312437   3.1161457
  52.7641596  32.7053089   2.7548092  51.4157188  33.3506854   2.9937186
  46.0636617  39.6509538  -5.2049109  46.9663864  39.6833148  -4.8882614
  45.8373987  38.7209989  -5.1902774  60.8452402  45.3463343  -1.5845538
  60.8341042  44.9516141  -2.4565035  61.0073041  44.6129415  -0.9911767
  59.9987557  41.7534056  -0.0184226  59.2220891  42.3127976  -0.0281361
  60.6378120  42.2390839   0.5030644  58.2533930  44.5619509  -0.4566259
  58.9948614  45.1004553  -0.7331435  57.5470915  45.1885798  -0.2994707
  63.2319785  39.3025625  -2.8279367  62.9880717  40.0567685  -3.3645091
  63.5079715  39.6810972  -1.9932120  56.9895293  41.7159157   0.3449051
  56.3593954  42.3975438   0.5784448  56.8831381  41.6042239  -0.5997811
  50.5677969  41.6361444  -6.2970034  50.8186007  42.5208454  -6.0312458
  51.1037517  41.4566045  -7.0694942  56.2676036  36.0179923   2.7074302
  55.8742982  35.4646122   3.3821946  57.0842176  36.3290502   3.0980820
  59.1843997  37.4337802   0.2994559  59.9253711  38.0344955   0.2199021
  59.4161920  36.6915440  -0.2587399  54.3285335  42.6194169  -1.4227212
  54.2138850  41.7179427  -1.1220113  53.4729853  42.8657866  -1.7742395
  56.6316340  39.2061673  -6.4395617  57.2715719  39.0650432  -7.1372654
  55.7993871  38.9196186  -6.8157015  55.1069882  40.5899755  -4.4923806
  55.7792935  40.3817117  -5.1411157  54.2799668  40.3921841  -4.9318573
  61.0095454  37.2161696  -2.4758145  60.3623369  37.9151645  -2.5693668
  61.7796469  37.6497840  -2.1081897  55.5097379  43.8642358  -3.7321369
  55.3717177  43.1322597  -3.1309830  56.4202303  43.7751258  -4.0137181
  58.1379680  43.5762317  -4.2437689  58.8479298  42.9355509  -4.2851071
  58.0948988  43.8275212  -3.3211508  56.8508614  40.5627535  -2.4242049
  56.3145971  40.1118273  -1.7720453  56.2625322  40.6973444  -3.1671585
  52.5847735  39.6983543  -5.3389055  52.5005924  39.0909212  -6.0738645
  51.7630441  40.1892561  -5.3379559  61.0184475  44.0816403   1.1626430
  60.3425112  43.9810532   1.8328805  61.8412109  43.9255616   1.6262427
  47.3580989  42.8893939  -7.4956612  47.3965089  42.3557530  -6.7019493
  46.8521282  42.3629145  -8.1145634  54.7371751  37.7358480  -3.9994069
  54.8013078  38.5973311  -4.4116672  54.6738872  37.1232482  -4.7321711
  54.2124024  39.8081613  -0.3521035  54.8396063  39.4258690   0.2616489
  53.3551943  39.5895814   0.0134658  57.3210127  37.0268465  -2.1634480
  57.8444529  37.2730761  -1.4008170  57.1022460  37.8588499  -2.5831342
  58.5262672  37.9682160  -4.4784809  58.1859493  37.1689973  -4.0764129
  57.8201678  38.2683871  -5.0507976  59.1779144  35.0531472  -6.0257486
  60.0005213  34.5791950  -6.1478596  59.4217208  35.8321956  -5.5258800
  51.1763385  44.2855937  -5.2777846  50.6316853  45.0615745  -5.1457572
  52.0542735  44.6326742  -5.4358725  51.9629407  43.4125834  -2.3847690
  51.2211143  43.5608469  -1.7983059  51.6422151  43.6734099  -3.2480940
  57.4492081  39.1299518   1.3092885  57.4980237  40.0061641   0.9270654
  57.9914595  38.5876912   0.7364528  65.3448564  42.5064036  -0.7813943
  66.2458427  42.3670501  -1.0729945  65.4196539  42.6718491   0.1584234
  59.6791370  39.8830891  -1.9360757  58.8094679  40.1764457  -2.2078168
  59.9150850  40.4671336  -1.2153493  62.3830403  36.1010508  -4.4195336
  62.9012347  36.8371535  -4.7448848  62.0285536  36.4074501  -3.5848577
  60.7061957  47.0848343   1.4647296  61.6264967  47.2626942   1.6587343
  60.6711540  46.1404388   1.3126995  58.5751895  40.5682584   3.4972826
  58.4748622  41.5176941   3.4284917  58.3573437  40.2400822   2.6248896
  58.4383165  43.9979722   2.3137888  57.9550247  44.7980083   2.5201777
  58.5244104  44.0087667   1.3605332  54.9555885  46.4585373  -3.0822881
  55.7748774  46.9529452  -3.0588043  55.2292692  45.5417341  -3.1105313
  50.2090799  40.7923507  -2.3830684  50.8549662  40.2822461  -1.8943458
  50.0007950  41.5292189  -1.8087258  62.7344191  47.8604354   3.1161457
  63.6035351  48.0345007   2.7548092  62.2550943  48.6798771   2.9937186
  54.5488290  37.9391124   1.7144331  55.4119751  37.5827929   1.9247655
  53.9753701  37.6005019   2.4019735   3.4730077  64.8965629  30.3256995
   4.2055249  64.3264846  30.5594825   2.7169433  64.5087229  30.7663501
   0.9955498  58.6087203  34.7851604   0.6638822  59.4782614  34.5612819
   0.4001111  58.2923487  35.4645634   2.7545807  61.5298728  33.6422828
   2.1120188  61.8231261  32.9962622   2.2500736  61.4151648  34.4476024
   2.8944785  71.1942157  29.0766632   2.2095823  71.5741059  28.5263666
   2.9788634  71.8037484  29.8098580   1.2641545  71.7174072  33.8484333
   2.0858988  71.3154259  33.5667015   1.2603948  71.6142306  34.8000449
   9.3547538  68.0612820  30.1969305   8.6011246  67.4920218  30.0413309
   9.4895079  68.0275485  31.1439939   3.0323186  69.1997750  24.8448526
   2.2552629  68.8608910  24.4003688   3.7114667  69.2050373  24.1703491
   1.2714493  68.6731731  31.5015134   0.6138168  69.3630993  31.5895263
   2.0754892  69.0628163  31.8449120   3.4311683  68.2141457  27.3071448
   3.2929582  68.4043053  26.3792637   3.0747902  68.9760839  27.7639499
   3.4581063  70.2817984  32.3182719   3.8917570  70.1893273  33.1665773
   4.1712644  70.2575484  31.6802735   4.3196612  70.3241684  34.8515605
   4.5132503  71.2287495  35.0974880   4.2197231  69.8649103  35.6854190
   1.0903928  73.5067550  38.5032967   1.0316474  72.8226770  37.8363550
   1.4923446  74.2486540  38.0513593   5.5738676  66.8815351  31.4963509
   5.5628552  67.7640066  31.1257442   4.7056055  66.5286902  31.3018046
   2.1911250  65.7763992  27.9633675   2.6571702  66.6091983  27.8893977
   2.6418751  65.3108973  28.6678933   0.5328578  74.7493480  31.1260580
   1.4575126  74.5436341  30.9885031   0.3643882  74.5009881  32.0349922
   6.1763286  68.0315570  28.1012971   6.6194432  67.2822895  27.7032095
   5.2989796  68.0225707  27.7186703   3.2090490  72.0345617  25.1106901
   3.7341814  72.3732890  24.3856221   3.1212843  71.0992633  24.9270035
   2.8984396  72.6678521  40.4158099   2.1079940  72.6502660  39.8762598
   2.6617751  73.2066815  41.1707135   3.0182271  69.5170987  37.7290827
   3.0680276  69.3520995  38.6706350   2.9096194  68.6498246  37.3388708
   4.5200468  71.9367929  37.9732849   4.2285276  72.2997909  38.8096310
   3.9072599  71.2234937  37.7946181   5.7196150  69.5020809  30.4935419
   6.5543042  69.9410613  30.6572979   5.8555279  69.0259462  29.6743665
   2.7687656  67.0600543  36.4412907   3.2441778  67.2528190  35.6331758
   1.8453222  67.1159729  36.1956290   1.4689325  63.9366304  34.6741212
   2.4206748  64.0364401  34.6953436   1.2992776  63.1444572  35.1839297
   3.9477403  67.1572423  33.7883512   3.9153723  66.2188424  33.9743196
   4.5578027  67.2356460  33.0549337   4.0971891  63.9483467  33.8341795
   3.5810940  63.1641923  33.6471724   4.9811840  63.6202183  33.9988315
   1.7582618  57.6924482  29.7937608   1.5607440  57.3839570  30.6780940
   2.3682324  58.4186121  29.9235538   9.7653953  68.2188430  32.9289549
  10.4957341  67.9573718  33.4897252   9.1560898  67.4817152  32.9691617
   7.8469250  66.3596293  33.5264000   7.1202414  66.2252258  32.9180492
   7.4316537  66.6673121  34.3320718   3.0274486  61.8680526  29.8223491
   3.8034876  62.3576978  30.0948108   2.3022620  62.2938580  30.2795361
   5.4647045  62.5808145  30.8797432   6.0591536  62.3403881  30.1690740
   5.5373629  61.8615275  31.5070968   3.4605780  63.1478272  27.1469561
   3.2042714  62.7474908  27.9777769   2.8358648  63.8622066  27.0219701
   7.7718118  65.8874346  29.6540853   7.2117676  65.9567535  30.4272415
   7.1661621  65.7115330  28.9340349  14.3123832  80.2257547  30.3256995
  15.0449004  79.6556763  30.5594825  13.5563187  79.8379147  30.7663501
  11.8349252  73.9379121  34.7851604  11.5032577  74.8074532  34.5612819
  11.2394865  73.6215405  35.4645634  11.7277915  78.6574207  31.8644954
  10.8194793  78.5889615  31.5703715  11.6765511  79.1346152  32.6926779
  13.5939562  76.8590645  33.6422828  12.9513942  77.1523179  32.9962622
  13.0894490  76.7443566  34.4476024   9.0351008  77.6255422  36.9984710
   8.7911940  78.3797482  36.4618986   9.3110939  78.0040769  37.8331957
   8.5915700  76.7811855  32.5798548   7.7300179  77.0793108  32.8715285
   8.6178135  76.9982253  31.6479580   2.0707260  74.3409720  42.5338379
   1.6774205  73.7875918  43.2086023   2.8873400  74.6520298  42.9244897
   4.9875221  75.7567599  40.1258636   5.7284934  76.3574752  40.0463098
   5.2193144  75.0145237  39.5676678   8.9332384  71.7848702  34.4022917
   8.5896653  72.6750344  34.3262028   9.3011346  71.5950360  33.5392502
   6.4829778  76.6207014  27.9680591   5.6271374  76.2313864  27.7886230
   6.8956729  76.6998975  27.1080376   8.0128924  74.1553357  32.3672151
   7.5093720  74.1183492  31.5539956   8.3059531  75.0646100  32.4268807
   4.2571810  74.2392087  31.3738332   5.1224807  74.0434896  31.0144222
   4.3249319  74.0102439  32.3007689   4.1656797  73.3435544  27.4729769
   3.5121209  73.0284561  26.8486383   4.1237271  72.7211284  28.1989592
  10.6308422  78.2666009  28.9098886   9.8931179  77.7543395  29.2409128
  10.8835196  77.8266391  28.0982163  10.7320050  71.0442261  29.5040655
  11.0378926  70.1839625  29.2166570  11.4572654  71.6359881  29.3039649
   6.8126678  75.5391493  37.3505932   6.1654593  76.2381442  37.2570409
   7.5827693  75.9727636  37.7182180   8.5602673  76.5066903  29.8545217
   9.0571372  75.7536865  29.5346287   7.7889654  76.5431220  29.2888426
  11.0021667  73.4736497  32.0024576  10.0884747  73.7040723  32.1706783
  11.4314769  73.5574941  32.8538608   3.1241351  75.3498262  37.6629597
   3.6475753  75.5960558  38.4255907   2.9053684  76.1818296  37.2432735
   4.3293896  76.2911957  35.3479268   3.9890716  75.4919770  35.7499948
   3.6232902  76.5913667  34.7756101   4.9810368  73.3761269  33.8006591
   5.8036437  72.9021747  33.6785481   5.2248431  74.1551753  34.3005277
   7.7649725  77.1094676  25.0327825   7.9813340  77.9919314  24.7316653
   7.2843792  76.7180890  24.3033467   3.7682225  75.9397318  26.9267029
   3.8898137  75.0113964  27.1257917   3.4784268  75.9536004  26.0145344
   6.6373416  73.6252228  30.0633749   6.6595113  73.6891562  29.1085728
   7.0541475  72.7856737  30.2574255   8.1861627  74.4240305  35.4068741
   8.7043571  75.1601332  35.0815229   7.8316760  74.7304298  36.2415500
   8.4374221  70.8440587  30.9269637   8.7175975  70.1763776  31.5530064
   9.2224828  71.0369683  30.4144301  12.3083080  79.2658221  34.6741212
  13.2600503  79.3656319  34.6953436  12.1386530  78.4736490  35.1839297
  10.3297459  76.3513804  34.8600613   9.7347391  76.6318817  34.1647102
  10.0447156  76.8407705  35.6317354  14.9365646  79.2775384  33.8341795
  14.4204695  78.4933841  33.6471724  15.8205594  78.9494101  33.9988315
  12.5976373  73.0216400  29.7937608  12.4001194  72.7131488  30.6780940
  13.2076078  73.7478039  29.9235538   6.4259471  73.8247260  25.9209843
   5.6160200  73.4794345  26.2965089   7.1143888  73.5154804  26.5097454
   8.3550019  72.9025307  27.5434139   8.9081058  73.3220760  28.2024162
   8.5920106  71.9761055  27.5857095  11.7328827  75.0125832  27.0512804
  11.1527496  75.6710636  26.6690856  11.4664759  74.1903177  26.6400221
  10.1832393  74.4130890  29.2534124  10.6832171  74.5247424  28.4448443
  10.8268001  74.1091942  29.8934932  10.5153705  77.1725922  26.1069152
   9.6279560  77.4575573  25.8889347  10.9307694  77.0119686  25.2596429
  13.8668241  77.1972443  29.8223491  14.6428631  77.6868896  30.0948108
  13.1416375  77.6230497  30.2795361  16.3040799  77.9100063  30.8797432
  16.8985290  77.6695798  30.1690740  16.3767383  77.1907193  31.5070968
  14.2999534  78.4770190  27.1469561  14.0436468  78.0766826  27.9777769
  13.6752402  79.1913984  27.0219701  18.6111872  81.2166263  29.6540853
  18.0511430  81.2859453  30.4272415  18.0055375  81.0407248  28.9340349
   4.5325633  73.3793349  23.1957290   4.5204303  74.3235188  23.3525560
   5.4249055  73.1963494  22.9016751   8.3477753  69.9736125  27.4503226
   7.5810148  69.4194612  27.5959909   8.7588458  70.0457994  28.3117378
   3.4730078  41.9027752  17.0502302   4.2055250  41.3326968  17.2840131
   2.7169434  41.5149352  17.4908807   0.9955499  35.6149326  21.5096910
   0.6638824  36.4844737  21.2858125   0.4001112  35.2985610  22.1890941
   2.7545809  38.5360850  20.3668134   2.1120189  38.8293383  19.7207929
   2.2500737  38.4213771  21.1721331   2.8944786  48.2004280  15.8011939
   2.2095825  48.5803181  15.2508972   2.9788636  48.8099606  16.5343887
   1.2641546  48.7236194  20.5729640   2.0858990  48.3216381  20.2912321
   1.2603949  48.6204428  21.5245755   9.3547539  45.0674943  16.9214611
   8.6011247  44.4982341  16.7658616   9.4895080  45.0337607  17.8685246
   3.0323187  46.2059873  11.5693833   2.2552630  45.8671032  11.1248995
   3.7114668  46.2112496  10.8948798   1.2714494  45.6793854  18.2260441
   0.6138169  46.3693115  18.3140569   2.0754894  46.0690286  18.5694427
   3.4311685  45.2203579  14.0316755   3.2929583  45.4105175  13.1037944
   3.0747903  45.9822962  14.4884806   3.4581064  47.2880106  19.0428026
   3.8917571  47.1955395  19.8911080   4.1712645  47.2637607  18.4048042
   4.3196614  47.3303807  21.5760911   4.5132504  48.2349617  21.8220186
   4.2197232  46.8711226  22.4099496   1.0903929  50.5129672  25.2278274
   1.0316475  49.8288892  24.5608857   1.4923447  51.2548662  24.7758900
   5.5738677  43.8877473  18.2208815   5.5628553  44.7702189  17.8502748
   4.7056056  43.5349024  18.0263352   2.1911251  42.7826114  14.6878981
   2.6571704  43.6154106  14.6139284   2.6418752  42.3171096  15.3924240
   0.5328579  51.7555602  17.8505887   1.4575127  51.5498464  17.7130338
   0.3643883  51.5072004  18.7595228   6.1763287  45.0377693  14.8258278
   6.6194433  44.2885018  14.4277401   5.2989797  45.0287829  14.4432010
   3.2090491  49.0407740  11.8352207   3.7341815  49.3795013  11.1101527
   3.1212844  48.1054755  11.6515342   2.8984397  49.6740644  27.1403405
   2.1079941  49.6564782  26.6007905   2.6617752  50.2128937  27.8952442
   3.0182272  46.5233110  24.4536134   3.0680277  46.3583117  25.3951657
   2.9096196  45.6560369  24.0634015   4.5200469  48.9430051  24.6978155
   4.2285278  49.3060032  25.5341616   3.9072600  48.2297060  24.5191488
   5.7196152  46.5082931  17.2180726   6.5543043  46.9472735  17.3818286
   5.8555280  46.0321584  16.3988971   2.7687657  44.0662666  23.1658213
   3.2441779  44.2590312  22.3577065   1.8453223  44.1221852  22.9201597
   1.4689326  40.9428426  21.3986519   2.4206749  41.0426524  21.4198743
   1.2992777  40.1506695  21.9084603   3.9477404  44.1634546  20.5128819
   3.9153724  43.2250547  20.6988503   4.5578028  44.2418583  19.7794644
   4.0971893  40.9545589  20.5587102   3.5810941  40.1704046  20.3717031
   4.9811841  40.6264306  20.7233621   1.7582620  34.6986605  16.5182915
   1.5607441  34.3901693  17.4026247   2.3682325  35.4248244  16.6480844
   9.7653954  45.2250553  19.6534855  10.4957343  44.9635841  20.2142559
   9.1560900  44.4879275  19.6936923   7.8469251  43.3658415  20.2509307
   7.1202415  43.2314380  19.6425798   7.4316538  43.6735244  21.0566025
   3.0274488  38.8742648  16.5468798   3.8034878  39.3639101  16.8193414
   2.3022622  39.3000702  17.0040667   5.4647046  39.5870267  17.6042738
   6.0591537  39.3466003  16.8936047   5.5373630  38.8677398  18.2316275
   3.4605781  40.1540395  13.8714868   3.2042715  39.7537031  14.7023076
   2.8358649  40.8684189  13.7465007   7.7718119  42.8936468  16.3786159
   7.2117677  42.9629658  17.1517722   7.1661622  42.7177453  15.6585656
   9.3574137  59.5692982  19.0716115   9.9952547  59.4499730  18.3679455
   9.2394980  60.5173826  19.1304067   6.1663844  59.5220410  19.0077640
   5.8282355  59.4061475  18.1198175   7.0353612  59.1211575  18.9878646
   6.6483627  60.6755262  24.9663845   6.6372267  60.2808060  24.0944349
   6.8104266  59.9421335  25.5597617   3.3690888  63.4592374  23.9143029
   3.0780754  64.3638005  23.7989696   4.0047872  63.5008901  24.6287099
   4.2947095  60.8369222  20.5044389   4.8910667  60.6125245  19.7901352
   4.3522066  60.0953968  21.1069837   8.9115406  57.2944436  16.1469323
   9.6978495  56.8763859  15.7959740   9.1754110  58.1990528  16.3150972
  14.3123833  57.2319669  17.0502302  15.0449005  56.6618886  17.2840131
  13.5563189  56.8441270  17.4908807   5.9299953  59.6546911  14.2465644
   5.5658160  59.1277532  14.9578566   6.7867069  59.2645380  14.0732130
  11.8349253  50.9441243  21.5096910  11.5032578  51.8136654  21.2858125
  11.2394867  50.6277527  22.1890941   8.3280773  63.1453789  20.9092823
   8.0281496  64.0478828  20.8008630   7.9831832  62.8785973  21.7613976
   1.7793254  59.5967586  16.9429528   0.8543751  59.4643800  17.1507219
   2.0277668  60.3761805  17.4399470  11.7277917  55.6636330  18.5890260
  10.8194794  55.5951738  18.2949021  11.6765512  56.1408274  19.4172086
   5.8018782  57.0825975  26.5325158   5.0252116  57.6419895  26.5228022
   6.4409345  57.5682758  27.0540028  13.5939563  53.8652768  20.3668134
  12.9513943  54.1585301  19.7207929  13.0894492  53.7505688  21.1721331
  11.2479727  57.6115941  11.0553994  12.1597583  57.8443328  10.8801691
  10.7389374  58.1952985  10.4929072   4.0565155  59.8911429  26.0943125
   4.7979839  60.4296472  25.8177948   3.3502140  60.5177717  26.2514676
   9.5320494  62.0340569  24.6915286   9.9403850  61.5922979  23.9469919
   8.8097756  61.4593196  24.9449479   5.8851564  56.9713176  22.0648843
   6.7312760  57.3952589  22.2083492   5.8250202  56.3146800  22.7587406
   9.8549309  62.5941760  18.4467575   9.2258171  62.7587474  17.7443643
   9.4674971  63.0083369  19.2178539  13.7338541  63.5296197  15.8011939
  13.0489579  63.9095099  15.2508972  13.8182390  64.1391524  16.5343887
   9.0351010  54.6317544  23.7230017   8.7911942  55.3859605  23.1864292
   9.3110940  55.0102892  24.5577264  10.9889472  61.1756156  22.4007282
  11.2006368  61.8187916  21.7241663  10.9419221  60.3418473  21.9329212
   8.5915701  53.7873977  19.3043854   7.7300180  54.0855231  19.5960592
   8.6178136  54.0044376  18.3724887   5.4077271  62.3316168  15.7117660
   5.8715616  62.6103871  14.9222283   5.1434069  61.4299612  15.5290751
   2.3001352  61.8787649  18.6497423   2.8702709  62.3074918  18.0114908
   2.8909464  61.5970234  19.3481609   2.7926518  57.0451077  26.8958435
   2.1625179  57.7267358  27.1293832   2.6862606  56.9334158  25.9511573
  12.1035300  64.0528112  20.5729640  12.9252744  63.6508299  20.2912321
  12.0997703  63.9496346  21.5245755   5.8691904  63.6012155  22.7290350
   5.9336336  64.0632562  23.5648522   5.1602828  62.9709520  22.8572660
  20.1941293  60.3966860  16.9214611  19.4405002  59.8274258  16.7658616
  20.3288835  60.3629525  17.8685246   2.0707261  51.3471843  29.2583686
   1.6774207  50.7938041  29.9331330   2.8873402  51.6582421  29.6490203
   4.9875222  52.7629722  26.8503942   5.7284936  53.3636875  26.7708405
   5.2193145  52.0207359  26.2921985   7.2108398  65.8903829  26.7269673
   6.7672252  65.1040208  26.4090577   7.8725612  66.0782980  26.0613563
   9.3089636  66.1706629  24.7551074   9.2908111  66.9915510  24.2631343
  10.2309556  66.0460704  24.9801215   5.7662690  63.6850759  25.5974582
   6.2991027  62.9239047  25.3673890   5.2376771  63.3924410  26.3398737
   8.9332385  48.7910825  21.1268224   8.5896655  49.6812466  21.0507335
   9.3011348  48.6012482  20.2637809   6.4829779  53.6269136  14.6925897
   5.6271375  53.2375987  14.5131536   6.8956731  53.7061097  13.8325683
   8.0128926  51.1615480  19.0917457   7.5093721  51.1245615  18.2785263
   8.3059532  52.0708222  19.1514114   4.2571811  51.2454209  18.0983639
   5.1224808  51.0497018  17.7389528   4.3249320  51.0164561  19.0252996
  13.8716942  61.5351790  11.5693833  13.0946385  61.1962950  11.1248995
  14.5508423  61.5404413  10.8948798   8.6868971  56.6546528  11.4600440
   8.3819107  56.9692677  12.3110583   9.6399413  56.7327948  11.5027773
  12.1108249  61.0085772  18.2260441  11.4531923  61.6985033  18.3140569
  12.9148648  61.3982204  18.5694427   1.8634130  53.4756417  15.4700006
   2.4377882  53.2531599  14.7373199   2.4505113  53.5445112  16.2228607
  10.9213708  59.3630144  16.2764382  11.4345589  59.9960136  16.7786092
  11.5714932  58.7631340  15.9107742   4.1656798  50.3497666  14.1975075
   3.5121211  50.0346683  13.5731690   4.1237272  49.7273407  14.9234898
   7.3994539  56.8379600  18.5222723   6.4817100  57.0594547  18.3644411
   7.8154682  56.9125910  17.6634430   8.1829586  58.2371015  13.6525403
   8.9301405  58.7492413  13.3432525   8.4521176  57.9155068  14.5129797
  11.6875504  64.3436146  14.4043525  11.2337831  63.5027056  14.4608715
  11.0569471  64.9797544  14.7418305  10.6308423  55.2728132  15.6344192
   9.8931180  54.7605518  15.9654435  10.8835197  54.8328513  14.8227469
  10.1308443  66.1812642  15.3393343  10.4231418  66.7417700  14.6205709
  10.6407064  66.4741203  16.0946502  10.7320051  48.0504384  16.2285962
  11.0378928  47.1901747  15.9411877  11.4572656  48.6422004  16.0284956
   5.0041131  58.3458177  16.7362153   5.0589740  57.3932013  16.6604629
   4.1932333  58.5017616  17.2203451   2.9433490  56.9635237  14.4952532
   2.1301356  57.2629407  14.9017724   3.4392485  56.5690925  15.2127014
   8.5407702  57.4277061  23.3267425   8.8957090  57.6548534  24.1861891
   9.1879833  57.7595438  22.7044681  14.2705439  60.5495497  14.0316755
  14.1323338  60.7397093  13.1037944  13.9141658  61.3114880  14.4884806
   2.4347565  54.5353592  20.1113767   3.0746945  54.3942351  19.4136730
   1.6025096  54.2488105  19.7352369  14.2974819  62.6172024  19.0428026
  14.7311325  62.5247313  19.8911080  15.0106399  62.5929524  18.4048042
   8.0302714  66.2174118  20.5761127   8.0839736  66.7865054  21.3438843
   7.1617495  66.3876003  20.2115164  15.1590368  62.6595725  21.5760911
  15.3526258  63.5641535  21.8220186  15.0590986  62.2003144  22.4099496
   6.8126679  52.5453615  24.0751239   6.1654594  53.2443565  23.9815715
   7.5827694  52.9789759  24.4427487  10.2205477  62.8102467  27.1501792
  10.0690983  62.5813019  26.2331876  10.2110156  63.7673069  27.1633137
   6.9890813  60.3834380  22.1348058   7.9182873  60.5345540  21.9617026
   6.5681843  60.4718401  21.2796705   5.7879145  64.4085044  19.9046596
   5.6490231  64.0403829  20.7772534   4.9993741  64.9232684  19.7330554
   7.3384360  63.7866647  17.2935434   7.0034193  63.7467417  18.1893084
   6.8388306  63.1211363  16.8205844   1.3128604  59.1934277  22.8188015
   1.1748402  58.4614516  23.4199554   2.2233528  59.1043177  22.5372203
   3.9410905  58.9054237  22.3071695   4.6510523  58.2647429  22.2658313
   3.8980213  59.1567131  23.2297875  11.9297684  65.8421590  25.2278274
  11.8710230  65.1580810  24.5608857  12.3317202  66.5840580  24.7758900
   2.6539839  55.8919454  24.1267334   2.1177196  55.4410193  24.7788931
   2.0656547  56.0265363  23.3837799  11.9315091  63.8061174  23.4592254
  11.0441870  63.4687096  23.5818652  12.5013642  63.0744205  23.6961019
   5.4616244  68.4662626  20.4253497   5.3886416  69.2717598  20.9372801
   5.0193637  68.6654592  19.6001518   8.5602674  53.5129026  16.5790524
   9.0571373  52.7598988  16.2591594   7.7889655  53.5493342  16.0133733
  16.4132431  59.2169391  18.2208815  16.4022308  60.0994107  17.8502748
  15.5449811  58.8640942  18.0263352   7.9214928  68.3649460  22.5811655
   8.6342900  68.9996925  22.5087557   7.4304956  68.4613326  21.7651657
   9.6432455  62.2700713  14.1528947   8.7088733  62.3902175  13.9833651
   9.8209123  61.3673180  13.8888957   5.1437643  55.6546409  16.3062208
   4.7735430  55.1017449  16.9943114   5.6396735  55.0504542  15.7537208
  13.0305006  58.1118032  14.6878981  13.4965458  58.9446024  14.6139284
  13.4812506  57.6463014  15.3924240   2.9726841  66.1143904  23.4017226
   3.6736301  66.7480387  23.5546620   2.5021956  66.4558635  22.6412866
  11.0021669  50.4798619  18.7269883  10.0884749  50.7102846  18.8952090
  11.4314770  50.5637063  19.5783915  10.7728127  58.6688511  21.2269777
  10.1199577  58.9164419  20.5722229  11.1508507  57.8552649  20.8932254
   6.8215700  59.4108322  27.7135814   6.1456337  59.3102451  28.3838189
   7.6443334  59.2547536  28.1771811   5.5638483  70.7175250  21.9493430
   6.1156791  70.8806871  22.7142515   5.9044677  71.3079687  21.2773455
   0.5402976  53.0650399  22.5515314   0.6044303  53.9265230  22.1392712
   0.4770097  52.4524401  21.8187673  10.4149357  65.5436507  27.8042084
  10.9589261  66.1566465  27.3097039   9.8336202  66.1016086  28.3209097
   8.7006870  68.6657225  18.9357112   8.5758010  67.8646965  18.4268057
   9.3585962  69.1603419  18.4471082  10.7641779  66.4666245  20.5636662
   9.8172114  66.3471596  20.4914989  11.1124552  65.5788743  20.6462923
   3.1241352  52.3560384  24.3874904   3.6475754  52.6022681  25.1501213
   2.9053685  53.1880419  23.9678041   7.7688212  66.2618961  16.7641014
   7.6213175  65.3335669  16.9448584   8.5941706  66.2839052  16.2798089
  11.3722334  67.0847520  17.8505887  12.2968881  66.8790382  17.7130338
  11.2037637  66.8363921  18.7595228   4.3293897  53.2974079  22.0724574
   3.9890718  52.4981892  22.4745254   3.6232903  53.5975790  21.5001408
   4.9810369  50.3823392  20.5251897   5.8036438  49.9083870  20.4030788
   5.2248433  51.1613875  21.0250584   7.7649726  54.1156799  11.7573131
   7.9813341  54.9981437  11.4561960   7.2843794  53.7243012  11.0278773
   2.5048948  57.0742512  18.3343876   2.3593529  57.3882815  19.2268158
   2.0274151  57.6927413  17.7814775   4.3645331  54.0645060  18.3824766
   4.3506899  53.1686154  18.0457064   5.0817759  54.0715724  19.0163052
   6.2171461  54.4982401  20.4277893   5.9589239  55.4199471  20.4262223
   5.6856502  54.1012835  21.1178357   3.7682227  52.9459441  13.6512336
   3.8898138  52.0176087  13.8503223   3.4784269  52.9598127  12.7390651
   6.6373417  50.6314351  16.7879056   6.6595114  50.6953684  15.8331035
   7.0541476  49.7918860  16.9819562  17.0157041  60.3669611  14.8258278
  17.4588187  59.6176936  14.4277401  16.1383552  60.3579747  14.4432010
  14.0484246  64.3699658  11.8352207  14.5735570  64.7086930  11.1101527
  13.9606598  63.4346673  11.6515342   5.7104294  68.2833731  23.9642084
   6.0191421  68.0382878  24.8364784   6.5079776  68.4880370  23.4760954
   3.2523306  54.4591438  27.8602268   3.3011462  55.3353561  27.4780038
   3.7945820  53.9168831  27.2873912  13.7378152  65.0032561  27.1403405
  12.9473696  64.9856700  26.6007905  13.5011506  65.5420855  27.8952442
  13.8576027  61.8525028  24.4536134  13.9074032  61.6875035  25.3951657
  13.7489950  60.9852287  24.0634015  11.1479789  57.8355956  25.7695441
  12.0489652  57.6962420  25.4779438  11.2227764  58.0010410  26.7093618
   5.4822595  55.2122810  24.6148627   4.6125904  55.5056376  24.3431215
   5.7182075  55.7963255  25.3355891  15.3594224  64.2721969  24.6978155
  15.0679032  64.6351950  25.5341616  14.7466355  63.5588977  24.5191488
  16.5589906  61.8374849  17.2180726  17.3936797  62.2764653  17.3818286
  16.6949035  61.3613502  16.3988971  13.6081412  59.3954584  23.1658213
  14.0835534  59.5882230  22.3577065  12.6846977  59.4513770  22.9201597
   8.1861628  51.4302427  22.1314047   8.7043572  52.1663454  21.8060536
   7.8316761  51.7366421  22.9660806   8.4374223  47.8502710  17.6514944
   8.7175976  47.1825899  18.2775370   9.2224830  48.0431805  17.1389608
  12.3083081  56.2720344  21.3986519  13.2600504  56.3718441  21.4198743
  12.1386531  55.4798612  21.9084603  10.3297460  53.3575927  21.5845920
   9.7347393  53.6380940  20.8892409  10.0447157  53.8469828  22.3562661
  14.7871159  59.4926463  20.5128819  14.7547479  58.5542464  20.6988503
  15.3971782  59.5710500  19.7794644  14.9365647  56.2837507  20.5587102
  14.4204696  55.4995964  20.3717031  15.8205596  55.9556224  20.7233621
  12.5976374  50.0278522  16.5182915  12.4001195  49.7193611  17.4026247
  13.2076080  50.7540161  16.6480844  20.6047709  60.5542470  19.6534855
  21.3351097  60.2927758  20.2142559  19.9954654  59.8171192  19.6936923
  18.6863006  58.6950333  20.2509307  17.9596169  58.5606298  19.6425798
  18.2710293  59.0027162  21.0566025   6.5093182  62.4140263  28.0156680
   7.4296192  62.5918862  28.2096726   6.4742765  61.4696308  27.8636379
   6.4259472  50.8309383  12.6455149   5.6160201  50.4856468  13.0210395
   7.1143889  50.5216926  13.2342761   8.3550021  49.9087429  14.2679446
   8.9081059  50.3282883  14.9269469   8.5920107  48.9823177  14.3102402
   4.3783120  55.8974503  30.0482210   4.2779847  56.8468860  29.9794301
   4.1604662  55.5692742  29.1758280  11.7328828  52.0187955  13.7758110
  11.1527497  52.6772759  13.3936163  11.4664761  51.1965299  13.3645528
  10.1832394  51.4193012  15.9779430  10.6832173  51.5309547  15.1693749
  10.8268002  51.1154065  16.6180239   4.2414390  59.3271642  28.8647271
   3.7581472  60.1272002  29.0711160   4.3275329  59.3379587  27.9114715
   0.7587110  61.7877293  23.4686503   1.5779999  62.2821371  23.4921340
   1.0323917  60.8709261  23.4404070  10.5153706  54.1788045  12.8314458
   9.6279561  54.4637696  12.6134653  10.9307695  54.0181808  11.9841735
  13.8668242  54.2034566  16.5468798  14.6428632  54.6931018  16.8193414
  13.1416376  54.6292620  17.0040667  16.3040801  54.9162185  17.6042738
  16.8985291  54.6757921  16.8936047  16.3767384  54.1969316  18.2316275
  10.4894730  59.6942581  13.0464749  10.4329931  60.1511132  12.2072381
  11.0423072  58.9333265  12.8687591  14.2999536  55.4832313  13.8714868
  14.0436470  55.0828948  14.7023076  13.6752404  56.1976107  13.7465007
  18.6111873  58.2228386  16.3786159  18.0511431  58.2921575  17.1517722
  18.0055377  58.0469371  15.6585656  11.2229509  60.8847362  10.3417278
  11.1678313  60.7191634   9.4005722  10.5975564  61.5923395  10.4979467
   8.5375416  63.1896274  29.6670841   9.4066576  63.3636926  29.3057475
   8.0582168  64.0090691  29.5446570   4.5325634  50.3855471   9.9202596
   4.5204304  51.3297311  10.0770867   5.4249056  50.2025617   9.6262057
   8.3477754  46.9798248  14.1748533   7.5810150  46.4256734  14.3205215
   8.7588459  47.0520117  15.0362685  20.1967892  74.8984900  19.0716115
  20.8346302  74.7791647  18.3679455  20.0788735  75.8465744  19.1304067
  17.0057598  74.8512328  19.0077640  16.6676110  74.7353393  18.1198175
  17.8747366  74.4503493  18.9878646  17.4877381  76.0047180  24.9663845
  17.4766022  75.6099978  24.0944349  17.6498021  75.2713252  25.5597617
  14.2084642  78.7884292  23.9143029  13.9174508  79.6929922  23.7989696
  14.8441627  78.8300819  24.6287099  15.1340849  76.1661140  20.5044389
  15.7304421  75.9417162  19.7901352  15.1915821  75.4245886  21.1069837
  19.7509160  72.6236354  16.1469323  20.5372250  72.2055777  15.7959740
  20.0147865  73.5282446  16.3150972  25.1517587  72.5611587  17.0502302
  25.8842759  71.9910804  17.2840131  24.3956943  72.1733187  17.4908807
  16.7693707  74.9838828  14.2465644  16.4051914  74.4569449  14.9578566
  17.6260823  74.5937298  14.0732130  22.6743008  66.2733161  21.5096910
  22.3426333  67.1428572  21.2858125  22.0788621  65.9569445  22.1890941
  19.1674527  78.4745707  20.9092823  18.8675250  79.3770746  20.8008630
  18.8225587  78.2077890  21.7613976  12.6187009  74.9259504  16.9429528
  11.6937505  74.7935718  17.1507219  12.8671422  75.7053723  17.4399470
  22.5671671  70.9928247  18.5890260  21.6588548  70.9243656  18.2949021
  22.5159267  71.4700192  19.4172086  16.6412537  72.4117893  26.5325158
  15.8645871  72.9711813  26.5228022  17.2803100  72.8974676  27.0540028
  24.4333318  69.1944686  20.3668134  23.7907698  69.4877219  19.7207929
  23.9288246  69.0797606  21.1721331  22.0873481  72.9407859  11.0553994
  22.9991337  73.1735246  10.8801691  21.5783128  73.5244903  10.4929072
  14.8958909  75.2203346  26.0943125  15.6373594  75.7588390  25.8177948
  14.1895895  75.8469635  26.2514676  20.3714249  77.3632487  24.6915286
  20.7797605  76.9214897  23.9469919  19.6491510  76.7885114  24.9449479
  16.7245319  72.3005093  22.0648843  17.5706514  72.7244507  22.2083492
  16.6643957  71.6438718  22.7587406  20.6943063  77.9233677  18.4467575
  20.0651926  78.0879391  17.7443643  20.3068726  78.3375287  19.2178539
  24.5732295  78.8588115  15.8011939  23.8883334  79.2387016  15.2508972
  24.6576145  79.4683442  16.5343887  19.8744764  69.9609462  23.7230017
  19.6305696  70.7151522  23.1864292  20.1504695  70.3394809  24.5577264
  21.8283227  76.5048074  22.4007282  22.0400122  77.1479834  21.7241663
  21.7812975  75.6710391  21.9329212  19.4309456  69.1165895  19.3043854
  18.5693935  69.4147148  19.5960592  19.4571891  69.3336294  18.3724887
  16.2471025  77.6608085  15.7117660  16.7109371  77.9395788  14.9222283
  15.9827823  76.7591530  15.5290751  13.1395106  77.2079567  18.6497423
  13.7096463  77.6366835  18.0114908  13.7303218  76.9262152  19.3481609
  13.6320273  72.3742994  26.8958435  13.0018934  73.0559275  27.1293832
  13.5256361  72.2626076  25.9511573  22.9429055  79.3820030  20.5729640
  23.7646499  78.9800217  20.2912321  22.9391458  79.2788264  21.5245755
  16.7085658  78.9304073  22.7290350  16.7730091  79.3924480  23.5648522
  15.9996582  78.3001438  22.8572660   7.2102948  72.2945281  20.2539350
   7.4610987  73.1792291  20.5196926   7.7462497  72.1149882  19.4814441
  31.0335048  75.7258778  16.9214611  30.2798756  75.1566176  16.7658616
  31.1682589  75.6921443  17.8685246  12.9101016  66.6763760  29.2583686
  12.5167961  66.1229959  29.9331330  13.7267156  66.9874339  29.6490203
  15.8268977  68.0921639  26.8503942  16.5678690  68.6928792  26.7708405
  16.0586899  67.3499277  26.2921985  10.9710315  73.2778007  25.1282172
  10.8563830  72.3763264  25.4289271  10.1154832  73.5241703  24.7766989
  18.0502152  81.2195747  26.7269673  17.6066007  80.4332125  26.4090577
  18.7119366  81.4074897  26.0613563  20.1483390  81.4998547  24.7551074
  20.1301866  82.3207428  24.2631343  21.0703311  81.3752622  24.9801215
  16.6056445  79.0142676  25.5974582  17.1384781  78.2530964  25.3673890
  16.0770526  78.7216328  26.3398737  19.7726140  64.1202742  21.1268224
  19.4290409  65.0104384  21.0507335  20.1405102  63.9304400  20.2637809
  17.3223533  68.9561054  14.6925897  16.4665130  68.5667905  14.5131536
  17.7350485  69.0353015  13.8325683  18.8522680  66.4907397  19.0917457
  18.3487476  66.4537533  18.2785263  19.1453287  67.4000140  19.1514114
  15.0965566  66.5746127  18.0983639  15.9618563  66.3788936  17.7389528
  15.1643075  66.3456479  19.0252996  24.7110696  76.8643708  11.5693833
  23.9340139  76.5254867  11.1248995  25.3902177  76.8696331  10.8948798
  19.5262725  71.9838445  11.4600440  19.2212861  72.2984595  12.3110583
  20.4793168  72.0619865  11.5027773  22.9502003  76.3377689  18.2260441
  22.2925678  77.0276951  18.3140569  23.7542403  76.7274121  18.5694427
  12.7027885  68.8048335  15.4700006  13.2771637  68.5823517  14.7373199
  13.2898867  68.8737030  16.2228607  21.7607462  74.6922062  16.2764382
  22.2739344  75.3252054  16.7786092  22.4108686  74.0923257  15.9107742
  15.0050553  65.6789584  14.1975075  14.3514965  65.3638601  13.5731690
  14.9631027  65.0565324  14.9234898  18.2388293  72.1671517  18.5222723
  17.3210854  72.3886464  18.3644411  18.6548437  72.2417828  17.6634430
  19.0223341  73.5662933  13.6525403  19.7695160  74.0784330  13.3432525
  19.2914930  73.2446986  14.5129797  22.5269258  79.6728063  14.4043525
  22.0731585  78.8318973  14.4608715  21.8963225  80.3089462  14.7418305
  21.4702178  70.6020049  15.6344192  20.7324935  70.0897436  15.9654435
  21.7228951  70.1620431  14.8227469  20.9702198  81.5104560  15.3393343
  21.2625172  82.0709617  14.6205709  21.4800818  81.8033121  16.0946502
  21.5713805  63.3796301  16.2285962  21.8772682  62.5193665  15.9411877
  22.2966410  63.9713922  16.0284956  15.8434885  73.6750094  16.7362153
  15.8983495  72.7223931  16.6604629  15.0326087  73.8309534  17.2203451
  13.7827245  72.2927154  14.4952532  12.9695110  72.5921325  14.9017724
  14.2786239  71.8982843  15.2127014  19.3801457  72.7568979  23.3267425
  19.7350844  72.9840452  24.1861891  20.0273588  73.0887355  22.7044681
  25.1099194  75.8787415  14.0316755  24.9717092  76.0689011  13.1037944
  24.7535412  76.6406797  14.4884806  13.2741320  69.8645510  20.1113767
  13.9140699  69.7234269  19.4136730  12.4418850  69.5780023  19.7352369
  25.1368573  77.9463942  19.0428026  25.5705080  77.8539231  19.8911080
  25.8500154  77.9221442  18.4048042  11.7494861  71.2483592  22.0585578
  12.4217915  71.0400954  21.4098227  10.9224648  71.0505678  21.6190810
  25.9984123  77.9887642  21.5760911  26.1920013  78.8933453  21.8220186
  25.8984741  77.5295061  22.4099496  17.6520433  67.8745533  24.0751239
  17.0048348  68.5735482  23.9815715  18.4221449  68.3081677  24.4427487
  21.0599231  78.1394385  27.1501792  20.9084738  77.9104937  26.2331876
  21.0503911  79.0964986  27.1633137  17.8284568  75.7126298  22.1348058
  18.7576628  75.8637457  21.9617026  17.4075598  75.8010319  21.2796705
  16.6272900  79.7376962  19.9046596  16.4883985  79.3695747  20.7772534
  15.8387496  80.2524602  19.7330554  18.1778115  79.1158565  17.2935434
  17.8427947  79.0759335  18.1893084  17.6782060  78.4503281  16.8205844
  12.1522359  74.5226195  22.8188015  12.0142157  73.7906434  23.4199554
  13.0627282  74.4335095  22.5372203  14.7804659  74.2346154  22.3071695
  15.4904278  73.5939346  22.2658313  14.7373968  74.4859049  23.2297875
  22.7691438  81.1713508  25.2278274  22.7103984  80.4872728  24.5608857
  23.1710956  81.9132498  24.7758900  13.4933593  71.2211372  24.1267334
  12.9570950  70.7702111  24.7788931  12.9050302  71.3557281  23.3837799
  22.7708845  79.1353091  23.4592254  21.8835624  78.7979013  23.5818652
  23.3407396  78.4036123  23.6961019   9.2272715  70.3567380  21.2120329
   9.1430903  69.7493049  20.4770739   8.4055421  70.8476398  21.2129825
  19.3996428  68.8420943  16.5790524  19.8965128  68.0890906  16.2591594
  18.6283410  68.8785260  16.0133733  27.2526186  74.5461309  18.2208815
  27.2416062  75.4286024  17.8502748  26.3843565  74.1932860  18.0263352
  20.4826209  77.5992631  14.1528947  19.5482488  77.7194093  13.9833651
  20.6602878  76.6965097  13.8888957  15.9831397  70.9838326  16.3062208
  15.6129185  70.4309367  16.9943114  16.4790490  70.3796460  15.7537208
  23.8698760  73.4409950  14.6878981  24.3359213  74.2737941  14.6139284
  24.3206261  72.9754931  15.3924240  21.8415423  65.8090537  18.7269883
  20.9278503  66.0394764  18.8952090  22.2708525  65.8928981  19.5783915
  21.6121882  73.9980429  21.2269777  20.9593332  74.2456336  20.5722229
  21.9902262  73.1844567  20.8932254  17.6609455  74.7400240  27.7135814
  16.9850092  74.6394369  28.3838189  18.4837089  74.5839454  28.1771811
  11.3796731  68.3942317  22.5515314  11.4438057  69.2557148  22.1392712
  11.3163851  67.7816319  21.8187673  10.8549003  70.4665450  26.1988349
  11.4821042  70.0842527  26.8125873   9.9976922  70.2479652  26.5644041
  21.2543112  80.8728425  27.8042084  21.7983016  81.4858383  27.3097039
  20.6729957  81.4308003  28.3209097  11.1608793  70.3497875  18.1134252
  10.4395379  70.9633843  17.9741725  11.9502049  70.8855640  18.0350898
  21.6035533  81.7958163  20.5636662  20.6565869  81.6763514  20.4914989
  21.9518306  80.9080661  20.6462923  13.9635107  67.6852302  24.3874904
  14.4869508  67.9314598  25.1501213  13.7447440  68.5172337  23.9678041
  18.6081967  81.5910879  16.7641014  18.4606929  80.6627587  16.9448584
  19.4335460  81.6130970  16.2798089  22.2116088  82.4139438  17.8505887
  23.1362636  82.2082299  17.7130338  22.0431392  82.1655839  18.7595228
  15.1687652  68.6265997  22.0724574  14.8284472  67.8273810  22.4745254
  14.4626658  68.9267708  21.5001408  15.8204124  65.7115309  20.5251897
  16.6430193  65.2375788  20.4030788  16.0642187  66.4905793  21.0250584
  18.6043481  69.4448717  11.7573131  18.8207095  70.3273355  11.4561960
  18.1237548  69.0534930  11.0278773  13.3442702  72.4034430  18.3343876
  13.1987283  72.7174733  19.2268158  12.8667906  73.0219330  17.7814775
  15.2039085  69.3936978  18.3824766  15.1900654  68.4978071  18.0457064
  15.9211513  69.4007642  19.0163052  17.0565216  69.8274318  20.4277893
  16.7982994  70.7491389  20.4262223  16.5250256  69.4304753  21.1178357
   7.8188364  74.9439774  21.2731537   7.2741833  75.7199582  21.4051812
   8.6967714  75.2910579  21.1150659  14.6075981  68.2751358  13.6512336
  14.7291892  67.3468004  13.8503223  14.3178023  68.2890044  12.7390651
  17.4767171  65.9606269  16.7879056  17.4988868  66.0245602  15.8331035
  17.8935230  65.1210777  16.9819562  27.8550796  75.6961528  14.8258278
  28.2981942  74.9468853  14.4277401  26.9777306  75.6871665  14.4432010
   8.6054386  74.0709671  24.1661694   7.8636122  74.2192306  24.7526324
   8.2847131  74.3317936  23.3028443  24.8878000  79.6991575  11.8352207
  25.4129324  80.0378848  11.1101527  24.8000353  78.7638591  11.6515342
  14.0917061  69.7883356  27.8602268  14.1405216  70.6645478  27.4780038
  14.6339575  69.2460749  27.2873912  24.5771906  80.3324479  27.1403405
  23.7867450  80.3148618  26.6007905  24.3405261  80.8712773  27.8952442
  24.6969781  77.1816945  24.4536134  24.7467786  77.0166953  25.3951657
  24.5883705  76.3144204  24.0634015  21.9873544  73.1647873  25.7695441
  22.8883407  73.0254338  25.4779438  22.0621518  73.3302328  26.7093618
  16.3216349  70.5414728  24.6148627  15.4519658  70.8348294  24.3431215
  16.5575829  71.1255173  25.3355891  26.1987978  79.6013887  24.6978155
  25.9072786  79.9643867  25.5341616  25.5860109  78.8880895  24.5191488
  27.3983661  77.1666767  17.2180726  28.2330552  77.6056571  17.3818286
  27.5342789  76.6905420  16.3988971  24.4475166  74.7246501  23.1658213
  24.9229288  74.9174148  22.3577065  23.5240732  74.7805687  22.9201597
  19.0255383  66.7594345  22.1314047  19.5437327  67.4955372  21.8060536
  18.6710516  67.0658338  22.9660806  19.2767977  63.1794627  17.6514944
  19.5569731  62.5117817  18.2775370  20.0618584  63.3723723  17.1389608
  23.1476835  71.6012261  21.3986519  24.0994258  71.7010359  21.4198743
  22.9780286  70.8090530  21.9084603  21.1691215  68.6867845  21.5845920
  20.5741147  68.9672857  20.8892409  20.8840912  69.1761746  22.3562661
  25.6264913  74.8218381  20.5128819  25.5941233  73.8834382  20.6988503
  26.2365537  74.9002418  19.7794644  25.7759402  71.6129425  20.5587102
  25.2598450  70.8287881  20.3717031  26.6599350  71.2848141  20.7233621
  23.4370129  65.3570440  16.5182915  23.2394950  65.0485528  17.4026247
  24.0469834  66.0832079  16.6480844  31.4441463  75.8834388  19.6534855
  32.1744852  75.6219676  20.2142559  30.8348409  75.1463110  19.6936923
  29.5256760  74.0242251  20.2509307  28.7989924  73.8898216  19.6425798
  29.1104047  74.3319079  21.0566025  17.3486937  77.7432180  28.0156680
  18.2689946  77.9210779  28.2096726  17.3136520  76.7988226  27.8636379
  10.3449009  75.6533215  20.6579461  10.5635019  76.5850323  20.6767495
  10.7574783  75.2941189  21.4434265  17.2653227  66.1601300  12.6455149
  16.4553955  65.8148385  13.0210395  17.9537644  65.8508844  13.2342761
  19.1943775  65.2379347  14.2679446  19.7474814  65.6574800  14.9269469
  19.4313862  64.3115095  14.3102402  15.2176874  71.2266421  30.0482210
  15.1173601  72.1760778  29.9794301  14.9998417  70.8984660  29.1758280
  22.5722582  67.3479872  13.7758110  21.9921251  68.0064676  13.3936163
  22.3058515  66.5257217  13.3645528  21.0226149  66.7484930  15.9779430
  21.5225927  66.8601464  15.1693749  21.6661757  66.4445983  16.6180239
  15.0808145  74.6563560  28.8647271  14.5975226  75.4563920  29.0711160
  15.1669084  74.6671504  27.9114715  11.0081482  78.5468094  20.9015705
  11.9624736  78.5152037  20.8345637  10.8094006  78.0858718  21.7165931
  11.5980864  77.1169210  23.4686503  12.4173753  77.6113289  23.4921340
  11.8717672  76.2001178  23.4404070  21.3547460  69.5079963  12.8314458
  20.4673315  69.7929613  12.6134653  21.7701449  69.3473726  11.9841735
  24.7061996  69.5326484  16.5468798  25.4822387  70.0222936  16.8193414
  23.9810131  69.9584538  17.0040667  27.1434555  70.2454103  17.6042738
  27.7379046  70.0049839  16.8936047  27.2161139  69.5261233  18.2316275
  21.3288484  75.0234499  13.0464749  21.2723685  75.4803050  12.2072381
  21.8816827  74.2625183  12.8687591  25.1393290  70.8124230  13.8714868
  24.8830224  70.4120866  14.7023076  24.5146158  71.5268024  13.7465007
  29.4505628  73.5520304  16.3786159  28.8905186  73.6213493  17.1517722
  28.8449131  73.3761288  15.6585656  22.0623263  76.2139280  10.3417278
  22.0072067  76.0483551   9.4005722  21.4369319  76.9215313  10.4979467
   6.8515778  71.4507344  24.1678700   7.4974642  70.9406298  24.6565925
   6.6432930  72.1876026  24.7422125  19.3769171  78.5188192  29.6670841
  20.2460330  78.6928844  29.3057475  18.8975922  79.3382608  29.5446570
  15.3719389  65.7147389   9.9202596  15.3598059  66.6589229  10.0770867
  16.2642811  65.5317534   9.6262057  19.1871508  62.3090165  14.1748533
  18.4203904  61.7548652  14.3205215  19.5982213  62.3812034  15.0362685
  11.1913269  68.5974961  28.2653714  12.0544731  68.2411766  28.4757039
  10.6178680  68.2588856  28.9529118  35.9911342  87.8903505  17.0502302
  36.7236514  87.3202721  17.2840131  35.2350698  87.5025105  17.4908807
  33.5136762  81.6025079  21.5096910  33.1820087  82.4720490  21.2858125
  32.9182376  81.2861363  22.1890941  33.4065426  86.3220165  18.5890260
  32.4982303  86.2535573  18.2949021  33.3553021  86.7992110  19.4172086
  35.2727072  84.5236603  20.3668134  34.6301452  84.8169136  19.7207929
  34.7682001  84.4089524  21.1721331  30.7138519  85.2901379  23.7230017
  30.4699451  86.0443440  23.1864292  30.9898449  85.6686727  24.5577264
  30.2703210  84.4457812  19.3043854  29.4087689  84.7439066  19.5960592
  30.2965645  84.6628211  18.3724887  23.7494770  82.0055678  29.2583686
  23.3561716  81.4521876  29.9331330  24.5660910  82.3166256  29.6490203
  26.6662731  83.4213557  26.8503942  27.4072445  84.0220710  26.7708405
  26.8980654  82.6791195  26.2921985  30.6119894  79.4494660  21.1268224
  30.2684163  80.3396302  21.0507335  30.9798857  79.2596318  20.2637809
  28.1617288  84.2852972  14.6925897  27.3058884  83.8959822  14.5131536
  28.5744240  84.3644933  13.8325683  29.6916434  81.8199315  19.0917457
  29.1881230  81.7829450  18.2785263  29.9847041  82.7292058  19.1514114
  25.9359320  81.9038045  18.0983639  26.8012317  81.7080853  17.7389528
  26.0036829  81.6748397  19.0252996  25.8444307  81.0081502  14.1975075
  25.1908719  80.6930519  13.5731690  25.8024781  80.3857242  14.9234898
  32.3095932  85.9311967  15.6344192  31.5718689  85.4189353  15.9654435
  32.5622706  85.4912349  14.8227469  32.4107560  78.7088219  16.2285962
  32.7166437  77.8485583  15.9411877  33.1360165  79.3005839  16.0284956
  28.4914188  83.2037451  24.0751239  27.8442103  83.9027400  23.9815715
  29.2615203  83.6373594  24.4427487  30.2390183  84.1712861  16.5790524
  30.7358882  83.4182823  16.2591594  29.4677164  84.2077178  16.0133733
  32.6809178  81.1382454  18.7269883  31.7672258  81.3686681  18.8952090
  33.1102279  81.2220899  19.5783915  24.8028861  83.0144219  24.3874904
  25.3263263  83.2606516  25.1501213  24.5841194  83.8464254  23.9678041
  26.0081406  83.9557915  22.0724574  25.6678227  83.1565728  22.4745254
  25.3020412  84.2559625  21.5001408  26.6597878  81.0407227  20.5251897
  27.4823947  80.5667705  20.4030788  26.9035942  81.8197711  21.0250584
  29.4437235  84.7740634  11.7573131  29.6600850  85.6565272  11.4561960
  28.9631303  84.3826848  11.0278773  25.4469736  83.6043276  13.6512336
  25.5685647  82.6759922  13.8503223  25.1571778  83.6181962  12.7390651
  28.3160926  81.2898186  16.7879056  28.3382623  81.3537519  15.8331035
  28.7328985  80.4502695  16.9819562  29.8649137  82.0886263  22.1314047
  30.3831081  82.8247290  21.8060536  29.5104270  82.3950256  22.9660806
  30.1161732  78.5086545  17.6514944  30.3963485  77.8409734  18.2775370
  30.9012339  78.7015641  17.1389608  33.9870590  86.9304179  21.3986519
  34.9388013  87.0302277  21.4198743  33.8174040  86.1382448  21.9084603
  32.0084969  84.0159762  21.5845920  31.4134902  84.2964775  20.8892409
  31.7234666  84.5053663  22.3562661  36.6153156  86.9421342  20.5587102
  36.0992205  86.1579799  20.3717031  37.4993105  86.6140059  20.7233621
  34.2763883  80.6862358  16.5182915  34.0788704  80.3777446  17.4026247
  34.8863589  81.4123997  16.6480844  28.1046981  81.4893218  12.6455149
  27.2947710  81.1440303  13.0210395  28.7931398  81.1800762  13.2342761
  30.0337530  80.5671265  14.2679446  30.5868568  80.9866718  14.9269469
  30.2707616  79.6407013  14.3102402  33.4116337  82.6771790  13.7758110
  32.8315006  83.3356594  13.3936163  33.1452270  81.8549134  13.3645528
  31.8619903  82.0776848  15.9779430  32.3619682  82.1893382  15.1693749
  32.5055511  81.7737900  16.6180239  32.1941215  84.8371880  12.8314458
  31.3067070  85.1221531  12.6134653  32.6095204  84.6765644  11.9841735
  35.5455751  84.8618401  16.5468798  36.3216141  85.3514854  16.8193414
  34.8203885  85.2876455  17.0040667  37.9828310  85.5746020  17.6042738
  38.5772800  85.3341756  16.8936047  38.0554893  84.8553151  18.2316275
  35.9787045  86.1416148  13.8714868  35.7223979  85.7412784  14.7023076
  35.3539913  86.8559942  13.7465007  40.2899382  88.8812221  16.3786159
  39.7298940  88.9505411  17.1517722  39.6842886  88.7053206  15.6585656
  26.2113143  81.0439306   9.9202596  26.1991813  81.9881146  10.0770867
  27.1036565  80.8609452   9.6262057  30.0265263  77.6382083  14.1748533
  29.2597659  77.0840570  14.3205215  30.4375968  77.7103952  15.0362685
   6.6483628  37.6817385  11.6909152   6.6372269  37.2870183  10.8189656
   6.8104267  36.9483457  12.2842924   3.3690889  40.4654496  10.6388336
   3.0780755  41.3700127  10.5235002   4.0047873  40.5071024  11.3532406
   8.3280774  40.1515912   7.6338130   8.0281497  41.0540951   7.5253937
   7.9831834  39.8848095   8.4859283   5.8018784  34.0888098  13.2570464
   5.0252118  34.6482018  13.2473329   6.4409347  34.5744881  13.7785334
   4.0565156  36.8973551  12.8188431   4.7979840  37.4358595  12.5423255
   3.3502141  37.5239840  12.9759983   9.5320496  39.0402692  11.4160593
   9.9403852  38.5985102  10.6715225   8.8097757  38.4655319  11.6694786
  10.9889474  38.1818279   9.1252589  11.2006369  38.8250039   8.4486970
  10.9419222  37.3480596   8.6574519  12.1035302  41.0590234   7.2974946
  12.9252745  40.6570422   7.0157628  12.0997705  40.9558469   8.2491062
   5.8691905  40.6074278   9.4535657   5.9336338  41.0694685  10.2893829
   5.1602829  39.9771643   9.5817967   7.2108399  42.8965952  13.4514979
   6.7672253  42.1102330  13.1335884   7.8725613  43.0845102  12.7858870
   9.3089637  43.1768752  11.4796381   9.2908113  43.9977633  10.9876650
  10.2309557  43.0522827  11.7046522   5.7662691  40.6912881  12.3219889
   6.2991028  39.9301169  12.0919197   5.2376773  40.3986533  13.0644043
  14.2974820  39.6234147   5.7673333  14.7311327  39.5309436   6.6156387
  15.0106401  39.5991647   5.1293349   8.0302715  43.2236241   7.3006433
   8.0839737  43.7927177   8.0684149   7.1617496  43.3938126   6.9360470
  15.1590369  39.6657847   8.3006218  15.3526260  40.5703658   8.5465493
  15.0590988  39.2065266   9.1344803  10.2205478  39.8164590  13.8747099
  10.0690985  39.5875142  12.9577182  10.2110158  40.7735191  13.8878444
  11.9297685  42.8483712  11.9523581  11.8710231  42.1642933  11.2854164
  12.3317203  43.5902702  11.5004207  11.9315092  40.8123296  10.1837560
  11.0441871  40.4749218  10.3063959  12.5013643  40.0806328  10.4206326
   5.4616245  45.4724749   7.1498803   5.3886417  46.2779720   7.6618108
   5.0193639  45.6716715   6.3246825   7.9214929  45.3711583   9.3056962
   8.6342901  46.0059048   9.2332864   7.4304958  45.4675449   8.4896964
   2.9726843  43.1206026  10.1262533   3.6736302  43.7542509  10.2791927
   2.5021958  43.4620758   9.3658172   6.8215702  36.4170445  14.4381120
   6.1456339  36.3164574  15.1083496   7.6443335  36.2609658  14.9017118
   5.5638484  47.7237372   8.6738736   6.1156792  47.8868994   9.4387822
   5.9044678  48.3141810   8.0018761  10.4149359  42.5498630  14.5287391
  10.9589263  43.1628588  14.0342346   9.8336204  43.1078208  15.0454404
   8.7006872  45.6719348   5.6602419   8.5758011  44.8709088   5.1513364
   9.3585963  46.1665541   5.1716388  10.7641780  43.4728368   7.2881969
   9.8172116  43.3533719   7.2160295  11.1124553  42.5850866   7.3708230
  11.3722335  44.0909643   4.5751194  12.2968883  43.8852504   4.4375645
  11.2037639  43.8426044   5.4840535   5.7104296  45.2895854  10.6887391
   6.0191422  45.0445001  11.5610090   6.5079778  45.4942492  10.2006261
  13.7378153  42.0094684  13.8648712  12.9473697  41.9918823  13.3253211
  13.5011508  42.5482977  14.6197749  13.8576028  38.8587150  11.1781441
  13.9074033  38.6937158  12.1196963  13.7489951  37.9914409  10.7879321
  11.1479791  34.8418078  12.4940747  12.0489653  34.7024543  12.2024745
  11.2227765  35.0072533  13.4338925  15.3594225  41.2784092  11.4223462
  15.0679033  41.6414072  12.2586923  14.7466356  40.5651100  11.2436794
  13.6081413  36.4016706   9.8903520  14.0835535  36.5944353   9.0822371
  12.6846979  36.4575892   9.6446904  20.6047710  37.5604593   6.3780162
  21.3351098  37.2989881   6.9387865  19.9954655  36.8233315   6.4182230
  18.6863007  35.7012456   6.9754613  17.9596171  35.5668420   6.3671105
  18.2710294  36.0089284   7.7811331   6.5093183  39.4202385  14.7401986
   7.4296193  39.5980984  14.9342033   6.4742766  38.4758431  14.5881686
   4.3783121  32.9036626  16.7727516   4.2779848  33.8530983  16.7039608
   4.1604663  32.5754865  15.9003587   4.2414391  36.3333764  15.5892578
   3.7581473  37.1334125  15.7956467   4.3275330  36.3441709  14.6360022
   8.5375417  40.1958397  16.3916147   9.4066577  40.3699049  16.0302782
   8.0582169  41.0152813  16.2691877  20.1967893  51.9047022   5.7961422
  20.8346303  51.7853770   5.0924762  20.0788736  52.8527866   5.8549374
  17.0057599  51.8574451   5.7322947  16.6676111  51.7415515   4.8443481
  17.8747368  51.4565616   5.7123953  17.4877382  53.0109302  11.6909152
  17.4766023  52.6162101  10.8189656  17.6498022  52.2775375  12.2842924
  14.2084643  55.7946414  10.6388336  13.9174509  56.6992045  10.5235002
  14.8441628  55.8362942  11.3532406  15.1340850  53.1723263   7.2289696
  15.7304423  52.9479285   6.5146659  15.1915822  52.4308008   7.8315144
  19.7509162  49.6298476   2.8714630  20.5372251  49.2117900   2.5205047
  20.0147866  50.5344569   3.0396278  25.1517589  49.5673710   3.7747608
  25.8842761  48.9972926   4.0085438  24.3956944  49.1795310   4.2154114
  16.7693708  51.9900951   0.9710951  16.4051916  51.4631572   1.6823872
  17.6260824  51.5999420   0.7977436  22.6743009  43.2795284   8.2342217
  22.3426334  44.1490695   8.0103432  22.0788622  42.9631568   8.9136247
  19.1674529  55.4807830   7.6338130  18.8675252  56.3832868   7.5253937
  18.8225588  55.2140013   8.4859283  12.6187010  51.9321626   3.6674834
  11.6937507  51.7997841   3.8752526  12.8671423  52.7115846   4.1644777
  22.5671672  47.9990370   5.3135567  21.6588550  47.9305778   5.0194328
  22.5159268  48.4762315   6.1417393  16.6412538  49.4180015  13.2570464
  15.8645872  49.9773936  13.2473329  17.2803101  49.9036798  13.7785334
  24.4333319  46.2006808   7.0913441  23.7907699  46.4939341   6.4453236
  23.9288247  46.0859729   7.8966638  22.0873482  49.9469981  -2.2200700
  22.9991339  50.1797368  -2.3953002  21.5783130  50.5307026  -2.7825621
  14.8958910  52.2265469  12.8188431  15.6373595  52.7650513  12.5423255
  14.1895896  52.8531758  12.9759983  20.3714250  54.3694609  11.4160593
  20.7797606  53.9277020  10.6715225  19.6491512  53.7947237  11.6694786
  16.7245320  49.3067216   8.7894150  17.5706515  49.7306630   8.9328799
  16.6643958  48.6500840   9.4832713  20.6943065  54.9295800   5.1712882
  20.0651927  55.0941514   4.4688950  20.3068727  55.3437409   5.9423846
  24.5732297  55.8650238   2.5257245  23.8883335  56.2449139   1.9754279
  24.6576146  56.4745564   3.2589193  19.8744765  46.9671584  10.4475323
  19.6305697  47.7213645   9.9109599  20.1504696  47.3456932  11.2822570
  21.8283228  53.5110197   9.1252589  22.0400123  54.1541957   8.4486970
  21.7812976  52.6772513   8.6574519  19.4309457  46.1228017   6.0289161
  18.5693936  46.4209271   6.3205899  19.4571892  46.3398416   5.0970194
  16.2471027  54.6670208   2.4362967  16.7109372  54.9457911   1.6467589
  15.9827825  53.7653653   2.2536057  13.1395108  54.2141689   5.3742730
  13.7096465  54.6428958   4.7360215  13.7303220  53.9324274   6.0726916
  13.6320274  49.3805117  13.6203741  13.0018935  50.0621398  13.8539138
  13.5256362  49.2688199  12.6756880  22.9429056  56.3882152   7.2974946
  23.7646500  55.9862339   7.0157628  22.9391459  56.2850386   8.2491062
  16.7085660  55.9366195   9.4535657  16.7730092  56.3986603  10.2893829
  15.9996584  55.3063560   9.5817967   7.2102950  49.3007403   6.9784656
   7.4610988  50.1854413   7.2442232   7.7462498  49.1212005   6.2059748
  31.0335049  52.7320901   3.6459918  30.2798758  52.1628299   3.4903922
  31.1682590  52.6983565   4.5930553  12.9101017  43.6825883  15.9828992
  12.5167962  43.1292081  16.6576637  13.7267157  43.9936461  16.3735510
  15.8268978  45.0983762  13.5749249  16.5678691  45.6990915  13.4953711
  16.0586901  44.3561400  13.0167292  10.9710316  50.2840129  11.8527479
  10.8563831  49.3825386  12.1534578  10.1154834  50.5303826  11.5012295
  18.0502154  58.2257869  13.4514979  17.6066008  57.4394248  13.1335884
  18.7119367  58.4137020  12.7858870  20.1483392  58.5060669  11.4796381
  20.1301867  59.3269550  10.9876650  21.0703312  58.3814745  11.7046522
  16.6056446  56.0204799  12.3219889  17.1384783  55.2593087  12.0919197
  16.0770527  55.7278451  13.0644043  19.7726141  41.1264865   7.8513531
  19.4290410  42.0166507   7.7752641  20.1405103  40.9366522   6.9883116
  17.3223535  45.9623177   1.4171204  16.4665131  45.5730027   1.2376843
  17.7350486  46.0415138   0.5570990  18.8522681  43.4969520   5.8162764
  18.3487477  43.4599655   5.0030569  19.1453288  44.4062263   5.8759421
  15.0965567  43.5808250   4.8228946  15.9618564  43.3851058   4.4634835
  15.1643076  43.3518601   5.7498302  24.7110698  53.8705831  -1.7060861
  23.9340140  53.5316990  -2.1505699  25.3902179  53.8758454  -2.3805896
  19.5262727  48.9900568  -1.8154253  19.2212862  49.3046717  -0.9644110
  20.4793169  49.0681988  -1.7726920  22.9502005  53.3439812   4.9505747
  22.2925679  54.0339073   5.0385876  23.7542404  53.7336244   5.2939734
  21.7607463  51.6984185   3.0009689  22.2739345  52.3314176   3.5031399
  22.4108687  51.0985380   2.6353049  18.2388294  49.1733640   5.2468029
  17.3210856  49.3948587   5.0889718  18.6548438  49.2479951   4.3879737
  19.0223342  50.5725056   0.3770710  19.7695161  51.0846453   0.0677832
  19.2914932  50.2509108   1.2375103  22.5269260  56.6790186   1.1288832
  22.0731587  55.8381096   1.1854022  21.8963226  57.3151584   1.4663612
  21.4702179  47.6082172   2.3589499  20.7324936  47.0959558   2.6899742
  21.7228953  47.1682554   1.5472776  20.9702199  58.5166683   2.0638650
  21.2625173  59.0771740   1.3451015  21.4800819  58.8095244   2.8191809
  21.5713807  40.3858424   2.9531268  21.8772683  39.5255787   2.6657183
  22.2966411  40.9776044   2.7530262  15.8434886  50.6812217   3.4607459
  15.8983496  49.7286053   3.3849936  15.0326088  50.8371656   3.9448758
  13.7827246  49.2989277   1.2197838  12.9695112  49.5983447   1.6263030
  14.2786240  48.9044966   1.9372320  19.3801458  49.7631101  10.0512732
  19.7350846  49.9902574  10.9107198  20.0273589  50.0949478   9.4289987
  25.1099195  52.8849537   0.7562061  24.9717093  53.0751133  -0.1716750
  24.7535414  53.6468920   1.2130112  13.2741321  46.8707632   6.8359073
  13.9140700  46.7296391   6.1382037  12.4418851  46.5842146   6.4597675
  25.1368574  54.9526064   5.7673333  25.5705081  54.8601353   6.6156387
  25.8500155  54.9283565   5.1293349  18.8696469  58.5528158   7.3006433
  18.9233492  59.1219095   8.0684149  18.0011251  58.7230043   6.9360470
  11.7494863  48.2545715   8.7830885  12.4217916  48.0463077   8.1343533
  10.9224649  48.0567801   8.3436117  25.9984124  54.9949765   8.3006218
  26.1920014  55.8995575   8.5465493  25.8984742  54.5357184   9.1344803
  17.6520435  44.8807655  10.7996545  17.0048350  45.5797605  10.7061022
  18.4221450  45.3143799  11.1672794  21.0599233  55.1456508  13.8747099
  20.9084739  54.9167059  12.9577182  21.0503912  56.1027109  13.8878444
  17.8284569  52.7188420   8.8593365  18.7576629  52.8699580   8.6862332
  17.4075599  52.8072441   8.0042012  16.6272901  56.7439085   6.6291903
  16.4883987  56.3757869   7.5017841  15.8387497  57.2586724   6.4575861
  18.1778116  56.1220687   4.0180741  17.8427949  56.0821457   4.9138390
  17.6782062  55.4565403   3.5451151  12.1522360  51.5288317   9.5433322
  12.0142158  50.7968556  10.1444861  13.0627283  51.4397218   9.2617509
  14.7804661  51.2408277   9.0317001  15.4904279  50.6001469   8.9903620
  14.7373969  51.4921172   9.9543182  22.7691439  58.1775630  11.9523581
  22.7103985  57.4934850  11.2854164  23.1710958  58.9194620  11.5004207
  13.4933595  48.2273495  10.8512641  12.9570952  47.7764233  11.5034237
  12.9050303  48.3619404  10.1083105  22.7708847  56.1415214  10.1837560
  21.8835625  55.8041136  10.3063959  23.3407398  55.4098245  10.4206326
   9.2272716  47.3629502   7.9365635   9.1430905  46.7555172   7.2016045
   8.4055422  47.8538521   7.9375132  16.3010000  60.8016666   7.1498803
  16.2280171  61.6071638   7.6618108  15.8587393  61.0008632   6.3246825
  19.3996430  45.8483066   3.3035830  19.8965129  45.0953028   2.9836901
  18.6283411  45.8847383   2.7379040  27.2526187  51.5523431   4.9454122
  27.2416063  52.4348147   4.5748055  26.3843567  51.1994982   4.7508659
  18.7608683  60.7003500   9.3056962  19.4736656  61.3350965   9.2332864
  18.2698712  60.7967366   8.4896964  20.4826210  54.6054753   0.8774254
  19.5482489  54.7256216   0.7078958  20.6602879  53.7027220   0.6134264
  15.9831398  47.9900449   3.0307515  15.6129186  47.4371489   3.7188421
  16.4790491  47.3858582   2.4782515  23.8698762  50.4472072   1.4124288
  24.3359214  51.2800064   1.3384591  24.3206262  49.9817054   2.1169546
  13.8120597  58.4497944  10.1262533  14.5130057  59.0834427  10.2791927
  13.3415712  58.7912675   9.3658172  21.8415424  42.8152659   5.4515189
  20.9278504  43.0456886   5.6197396  22.2708526  42.8991103   6.3029222
  21.6121883  51.0042551   7.9515083  20.9593333  51.2518459   7.2967536
  21.9902263  50.1906690   7.6177561  17.6609456  51.7462362  14.4381120
  16.9850093  51.6456492  15.1083496  18.4837090  51.5901576  14.9017118
  16.4032239  63.0529290   8.6738736  16.9550547  63.2160911   9.4387822
  16.7438432  63.6433728   8.0018761  11.3796732  45.4004440   9.2760621
  11.4438059  46.2619271   8.8638019  11.3163852  44.7878441   8.5432980
  10.8549005  47.4727572  12.9233655  11.4821043  47.0904650  13.5371180
   9.9976923  47.2541774  13.2889348  21.2543113  57.8790547  14.5287391
  21.7983017  58.4920506  14.0342346  20.6729958  58.4370126  15.0454404
  19.5400626  61.0011265   5.6602419  19.4151766  60.2001005   5.1513364
  20.1979717  61.4957459   5.1716388  11.1608794  47.3559998   4.8379559
  10.4395380  47.9695966   4.6987032  11.9502050  47.8917763   4.7596205
  21.6035535  58.8020285   7.2881969  20.6565870  58.6825637   7.2160295
  21.9518308  57.9142784   7.3708230  13.9635108  44.6914424  11.1120210
  14.4869510  44.9376721  11.8746520  13.7447441  45.5234459  10.6923348
  18.6081968  58.5973002   3.4886321  18.4606930  57.6689709   3.6693891
  19.4335461  58.6193092   3.0043396  22.2116090  59.4201560   4.5751194
  23.1362637  59.2144422   4.4375645  22.0431393  59.1717962   5.4840535
  15.1687653  45.6328120   8.7969881  14.8284473  44.8335933   9.1990561
  14.4626659  45.9329830   8.2246714  15.8204125  42.7177432   7.2497204
  16.6430194  42.2437910   7.1276094  16.0642188  43.4967916   7.7495890
  13.3442704  49.4096553   5.0589183  13.1987284  49.7236856   5.9513464
  12.8667907  50.0281453   4.5060081  15.2039086  46.3999101   5.1070072
  15.1900655  45.5040194   4.7702370  15.9211515  46.4069764   5.7408358
  17.0565217  46.8336441   7.1523200  16.7982995  47.7553511   7.1507530
  16.5250258  46.4366875   7.8423664   7.8188366  51.9501897   7.9976844
   7.2741834  52.7261705   8.1297118   8.6967716  52.2972701   7.8395965
  17.4767173  42.9668391   3.5124362  17.4988870  43.0307724   2.5576342
  17.8935232  42.1272900   3.7064868  27.8550797  52.7023651   1.5503585
  28.2981943  51.9530976   1.1522708  26.9777307  52.6933787   1.1677317
   8.6054388  51.0771793  10.8907001   7.8636124  51.2254429  11.4771631
   8.2847132  51.3380059  10.0273750  24.8878002  56.7053698  -1.4402486
  25.4129326  57.0440971  -2.1653166  24.8000354  55.7700713  -1.6239351
  16.5498050  60.6187771  10.6887391  16.8585177  60.3736918  11.5610090
  17.3473532  60.8234410  10.2006261  14.0917062  46.7945478  14.5847575
  14.1405217  47.6707601  14.2025345  14.6339576  46.2522871  14.0119218
  24.5771908  57.3386601  13.8648712  23.7867451  57.3210740  13.3253211
  24.3405262  57.8774895  14.6197749  24.6969783  54.1879068  11.1781441
  24.7467788  54.0229075  12.1196963  24.5883706  53.3206327  10.7879321
  21.9873545  50.1709996  12.4940747  22.8883408  50.0316461  12.2024745
  22.0621520  50.3364451  13.4338925  16.3216350  47.5476851  11.3393934
  15.4519660  47.8410417  11.0676522  16.5575831  48.1317296  12.0601197
  26.1987979  56.6076009  11.4223462  25.9072788  56.9705990  12.2586923
  25.5860111  55.8943018  11.2436794  27.3983662  54.1728889   3.9426032
  28.2330553  54.6118693   4.1063593  27.5342791  53.6967542   3.1234278
  24.4475168  51.7308624   9.8903520  24.9229289  51.9236270   9.0822371
  23.5240733  51.7867810   9.6446904  19.0255384  43.7656468   8.8559354
  19.5437328  44.5017494   8.5305843  18.6710517  44.0720461   9.6906113
  19.2767978  40.1856750   4.3760251  19.5569732  39.5179939   5.0020677
  20.0618585  40.3785846   3.8634914  23.1476837  48.6074384   8.1231826
  24.0994260  48.7072482   8.1444050  22.9780287  47.8152653   8.6329910
  21.1691216  45.6929967   8.3091227  20.5741148  45.9734980   7.6137715
  20.8840913  46.1823868   9.0807968  25.6264914  51.8280504   7.2374125
  25.5941235  50.8896504   7.4233809  26.2365538  51.9064540   6.5039950
  25.7759403  48.6191547   7.2832409  25.2598452  47.8350004   7.0962337
  26.6599351  48.2910264   7.4478928  23.4370130  42.3632563   3.2428221
  23.2394951  42.0547651   4.1271553  24.0469835  43.0894202   3.3726151
  31.4441464  52.8896511   6.3780162  32.1744853  52.6281799   6.9387865
  30.8348410  52.1525233   6.4182230  29.5256761  51.0304373   6.9754613
  28.7989925  50.8960338   6.3671105  29.1104048  51.3381202   7.7811331
  17.3486938  54.7494303  14.7401986  18.2689947  54.9272902  14.9342033
  17.3136521  53.8050348  14.5881686  10.3449010  52.6595338   7.3824768
  10.5635020  53.5912445   7.4012801  10.7574784  52.3003312   8.1679571
  15.2176876  48.2328543  16.7727516  15.1173603  49.1822900  16.7039608
  14.9998418  47.9046782  15.9003587  22.5722584  44.3541995   0.5003417
  21.9921253  45.0126799   0.1181469  22.3058516  43.5319339   0.0890834
  21.0226150  43.7547053   2.7024737  21.5225928  43.8663587   1.8939056
  21.6661758  43.4508105   3.3425546  15.0808146  51.6625682  15.5892578
  14.5975227  52.4626042  15.7956467  15.1669085  51.6733627  14.6360022
  11.0081483  55.5530217   7.6261012  11.9624737  55.5214159   7.5590943
  10.8094007  55.0920841   8.4411238  11.5980865  54.1231333  10.1931810
  12.4173754  54.6175412  10.2166647  11.8717673  53.2063301  10.1649377
  21.3547462  46.5142085  -0.4440235  20.4673317  46.7991736  -0.6620040
  21.7701451  46.3535849  -1.2912958  24.7061998  46.5388606   3.2714104
  25.4822388  47.0285059   3.5438721  23.9810132  46.9646660   3.7285974
  27.1434556  47.2516225   4.3288045  27.7379047  47.0111961   3.6181353
  27.2161140  46.5323356   4.9561581  21.3288485  52.0296621  -0.2289945
  21.2723687  52.4865173  -1.0682312  21.8816828  51.2687306  -0.4067102
  25.1393291  47.8186353   0.5960175  24.8830226  47.4182989   1.4268382
  24.5146159  48.5330147   0.4710314  29.4505629  50.5582426   3.1031466
  28.8905187  50.6275616   3.8763028  28.8449132  50.3823411   2.3830962
  22.0623265  53.2201402  -2.9337416  22.0072068  53.0545674  -3.8748971
  21.4369320  53.9277435  -2.7775226   6.8515780  48.4569467  10.8924007
   7.4974643  47.9468421  11.3811232   6.6432931  49.1938148  11.4667432
  19.3769172  55.5250314  16.3916147  20.2460331  55.6990967  16.0302782
  18.8975923  56.3444731  16.2691877  11.1913271  45.6037084  14.9899021
  12.0544732  45.2473889  15.2002345  10.6178681  45.2650979  15.6774425
  31.0361648  67.2338940   5.7961422  31.6740058  67.1145688   5.0924762
  30.9182490  68.1819784   5.8549374  27.8451354  67.1866368   5.7322947
  27.5069865  67.0707433   4.8443481  28.7141122  66.7857533   5.7123953
  28.3271137  68.3401220  11.6909152  28.3159778  67.9454018  10.8189656
  28.4891776  67.6067293  12.2842924  25.0478398  71.1238332  10.6388336
  24.7568264  72.0283963  10.5235002  25.6835382  71.1654859  11.3532406
  25.9734605  68.5015180   7.2289696  26.5698177  68.2771203   6.5146659
  26.0309576  67.7599926   7.8315144  30.5902916  64.9590394   2.8714630
  31.3766005  64.5409817   2.5205047  30.8541620  65.8636486   3.0396278
  35.9911343  64.8965627   3.7747608  36.7236515  64.3264844   4.0085438
  35.2350699  64.5087228   4.2154114  27.6087463  67.3192869   0.9710951
  27.2445670  66.7923490   1.6823872  28.4654579  66.9291338   0.7977436
  33.5136764  58.6087201   8.2342217  33.1820088  59.4782612   8.0103432
  32.9182377  58.2923485   8.9136247  30.0068283  70.8099747   7.6338130
  29.7069006  71.7124786   7.5253937  29.6619343  70.5431931   8.4859283
  23.4580765  67.2613544   3.6674834  22.5331261  67.1289758   3.8752526
  23.7065178  68.0407763   4.1644777  33.4065427  63.3282288   5.3135567
  32.4982304  63.2597696   5.0194328  33.3553023  63.8054232   6.1417393
  27.4806293  64.7471933  13.2570464  26.7039627  65.3065853  13.2473329
  28.1196856  65.2328716  13.7785334  35.2727073  61.5298726   7.0913441
  34.6301454  61.8231259   6.4453236  34.7682002  61.4151646   7.8966638
  25.7352665  67.5557386  12.8188431  26.4767349  68.0942430  12.5423255
  25.0289650  68.1823675  12.9759983  31.2108005  69.6986527  11.4160593
  31.6191361  69.2568937  10.6715225  30.4885266  69.1239154  11.6694786
  27.5639075  64.6359134   8.7894150  28.4100270  65.0598547   8.9328799
  27.5037712  63.9792758   9.4832713  31.5336819  70.2587718   5.1712882
  30.9045682  70.4233432   4.4688950  31.1462481  70.6729327   5.9423846
  30.7138520  62.2963502  10.4475323  30.4699452  63.0505563   9.9109599
  30.9898450  62.6748850  11.2822570  32.6676983  68.8402114   9.1252589
  32.8793878  69.4833874   8.4486970  32.6206731  68.0064431   8.6574519
  30.2703212  61.4519935   6.0289161  29.4087691  61.7501189   6.3205899
  30.2965646  61.6690334   5.0970194  27.0864781  69.9962126   2.4362967
  27.5503127  70.2749829   1.6467589  26.8221579  69.0945570   2.2536057
  23.9788862  69.5433607   5.3742730  24.5490219  69.9720876   4.7360215
  24.5696974  69.2616192   6.0726916  24.4714029  64.7097035  13.6203741
  23.8412689  65.3913315  13.8539138  24.3650117  64.5980116  12.6756880
  33.7822811  71.7174070   7.2974946  34.6040254  71.3154257   7.0157628
  33.7785214  71.6142304   8.2491062  27.5479414  71.2658113   9.4535657
  27.6123847  71.7278520  10.2893829  26.8390338  70.6355478   9.5817967
  18.0496704  64.6299321   6.9784656  18.3004743  65.5146331   7.2442232
  18.5856253  64.4503923   6.2059748  41.8728804  68.0612818   3.6459918
  41.1192512  67.4920216   3.4903922  42.0076345  68.0275483   4.5930553
  23.7494771  59.0117800  15.9828992  23.3561717  58.4583999  16.6576637
  24.5660912  59.3228379  16.3735510  26.6662732  60.4275680  13.5749249
  27.4072446  61.0282833  13.4953711  26.8980655  59.6853317  13.0167292
  21.8104070  65.6132047  11.8527479  21.6957586  64.7117304  12.1534578
  20.9548588  65.8595744  11.5012295  28.8895908  73.5549787  13.4514979
  28.4459762  72.7686166  13.1335884  29.5513122  73.7428938  12.7858870
  30.9877146  73.8352587  11.4796381  30.9695622  74.6561468  10.9876650
  31.9097066  73.7106662  11.7046522  27.4450200  71.3496717  12.3219889
  27.9778537  70.5885005  12.0919197  26.9164281  71.0570368  13.0644043
  30.6119895  56.4556783   7.8513531  30.2684165  57.3458424   7.7752641
  30.9798858  56.2658440   6.9883116  28.1617289  61.2915094   1.4171204
  27.3058885  60.9021945   1.2376843  28.5744241  61.3707055   0.5570990
  29.6916436  58.8261438   5.8162764  29.1881231  58.7891573   5.0030569
  29.9847043  59.7354180   5.8759421  25.9359322  58.9100167   4.8228946
  26.8012318  58.7142976   4.4634835  26.0036831  58.6810519   5.7498302
  30.3656481  64.3192486  -1.8154253  30.0606617  64.6338635  -0.9644110
  31.3186923  64.3973906  -1.7726920  33.7895759  68.6731730   4.9505747
  33.1319434  69.3630991   5.0385876  34.5936158  69.0628161   5.2939734
  23.5421641  61.1402375   2.1945312  24.1165393  60.9177557   1.4618505
  24.1292623  61.2091070   2.9473914  32.6001218  67.0276102   3.0009689
  33.1133100  67.6606094   3.5031399  33.2502442  66.4277298   2.6353049
  25.8444308  58.0143624   0.9220382  25.1908721  57.6992641   0.2976997
  25.8024783  57.3919365   1.6480205  29.0782049  64.5025558   5.2468029
  28.1604610  64.7240505   5.0889718  29.4942192  64.5771868   4.3879737
  29.8617097  65.9016973   0.3770710  30.6088915  66.4138371   0.0677832
  30.1308686  65.5801026   1.2375103  32.3095934  62.9374090   2.3589499
  31.5718690  62.4251476   2.6899742  32.5622707  62.4974471   1.5472776
  32.4107561  55.7150342   2.9531268  32.7166438  54.8547705   2.6657183
  33.1360166  56.3067962   2.7530262  26.6828641  66.0104135   3.4607459
  26.7377251  65.0577971   3.3849936  25.8719843  66.1663574   3.9448758
  24.6221001  64.6281194   1.2197838  23.8088866  64.9275365   1.6263030
  25.1179995  64.2336883   1.9372320  30.2195212  65.0923019  10.0512732
  30.5744600  65.3194492  10.9107198  30.8667344  65.4241396   9.4289987
  24.1135075  62.1999550   6.8359073  24.7534455  62.0588309   6.1382037
  23.2812606  61.9134063   6.4597675  35.9762329  70.2817982   5.7673333
  36.4098836  70.1893271   6.6156387  36.6893910  70.2575482   5.1293349
  29.7090224  73.8820076   7.3006433  29.7627246  74.4511012   8.0684149
  28.8405005  74.0521961   6.9360470  22.5888617  63.5837632   8.7830885
  23.2611671  63.3754994   8.1343533  21.7618404  63.3859718   8.3436117
  36.8377878  70.3241683   8.3006218  37.0313769  71.2287493   8.5465493
  36.7378497  69.8649102   9.1344803  28.4914189  60.2099573  10.7996545
  27.8442104  60.9089523  10.7061022  29.2615205  60.6435717  11.1672794
  31.8992987  70.4748425  13.8747099  31.7478494  70.2458977  12.9577182
  31.8897667  71.4319027  13.8878444  28.6678324  68.0480338   8.8593365
  29.5970384  68.1991498   8.6862332  28.2469354  68.1364359   8.0042012
  27.4666655  72.0731002   6.6291903  27.3277741  71.7049787   7.5017841
  26.6781252  72.5878642   6.4575861  29.0171870  71.4512605   4.0180741
  28.6821703  71.4113375   4.9138390  28.5175816  70.7857321   3.5451151
  22.9916114  66.8580235   9.5433322  22.8535912  66.1260474  10.1444861
  23.9021038  66.7689135   9.2617509  25.6198415  66.5700194   9.0317001
  26.3298034  65.9293387   8.9903620  25.5767723  66.8213089   9.9543182
  33.6085194  73.5067548  11.9523581  33.5497740  72.8226768  11.2854164
  34.0104712  74.2486538  11.5004207  24.3327349  63.5565412  10.8512641
  23.7964706  63.1056151  11.5034237  23.7444058  63.6911321  10.1083105
  33.6102601  71.4707132  10.1837560  32.7229380  71.1333054  10.3063959
  34.1801152  70.7390163  10.4206326  20.0666470  62.6921420   7.9365635
  19.9824659  62.0847090   7.2016045  19.2449177  63.1830438   7.9375132
  27.1403754  76.1308584   7.1498803  27.0673926  76.9363556   7.6618108
  26.6981148  76.3300550   6.3246825  30.2390184  61.1774984   3.3035830
  30.7358884  60.4244946   2.9836901  29.4677166  61.2139300   2.7379040
  38.0919942  66.8815349   4.9454122  38.0809818  67.7640065   4.5748055
  37.2237321  66.5286900   4.7508659  29.6002438  76.0295418   9.3056962
  30.3130410  76.6642883   9.2332864  29.1092467  76.1259284   8.4896964
  31.3219965  69.9346671   0.8774254  30.3876244  70.0548133   0.7078958
  31.4996633  69.0319138   0.6134264  26.8225153  63.3192367   3.0307515
  26.4522940  62.7663407   3.7188421  27.3184245  62.7150500   2.4782515
  34.7092516  65.7763990   1.4124288  35.1752968  66.6091982   1.3384591
  35.1600017  65.3108972   2.1169546  24.6514352  73.7789862  10.1262533
  25.3523811  74.4126345  10.2791927  24.1809466  74.1204593   9.3658172
  32.6809179  58.1444577   5.4515189  31.7672259  58.3748804   5.6197396
  33.1102280  58.2283021   6.3029222  28.5003210  67.0754280  14.4381120
  27.8243848  66.9748409  15.1083496  29.3230844  66.9193494  14.9017118
  27.2425993  78.3821208   8.6738736  27.7944301  78.5452829   9.4387822
  27.5832187  78.9725645   8.0018761  22.2190487  60.7296357   9.2760621
  22.2831813  61.5911188   8.8638019  22.1557607  60.1170359   8.5432980
  21.6942759  62.8019490  12.9233655  22.3214798  62.4196567  13.5371180
  20.8370678  62.5833692  13.2889348  32.0936868  73.2082465  14.5287391
  32.6376772  73.8212423  14.0342346  31.5123713  73.7662043  15.0454404
  30.3794381  76.3303183   5.6602419  30.2545520  75.5292923   5.1513364
  31.0373472  76.8249376   5.1716388  22.0002549  62.6851916   4.8379559
  21.2789135  63.2987883   4.6987032  22.7895805  63.2209680   4.7596205
  32.4429289  74.1312203   7.2881969  31.4959625  74.0117554   7.2160295
  32.7912062  73.2434701   7.3708230  24.8028862  60.0206342  11.1120210
  25.3263264  60.2668639  11.8746520  24.5841196  60.8526377  10.6923348
  29.4475722  73.9264919   3.4886321  29.3000685  72.9981627   3.6693891
  30.2729216  73.9485010   3.0043396  33.0509844  74.7493478   4.5751194
  33.9756392  74.5436339   4.4375645  32.8825148  74.5009879   5.4840535
  26.0081407  60.9620037   8.7969881  25.6678228  60.1627850   9.1990561
  25.3020414  61.2621748   8.2246714  26.6597879  58.0469350   7.2497204
  27.4823949  57.5729828   7.1276094  26.9035943  58.8259833   7.7495890
  29.4437237  61.7802757  -1.5181562  29.6600851  62.6627395  -1.8192734
  28.9631304  61.3888970  -2.2475920  24.1836458  64.7388470   5.0589183
  24.0381039  65.0528773   5.9513464  23.7061662  65.3573371   4.5060081
  26.0432841  61.7291018   5.1070072  26.0294410  60.8332112   4.7702370
  26.7605269  61.7361682   5.7408358  27.8958972  62.1628358   7.1523200
  27.6376749  63.0845429   7.1507530  27.3644012  61.7658793   7.8423664
  18.6582120  67.2793815   7.9976844  18.1135588  68.0553623   8.1297118
  19.5361470  67.6264619   7.8395965  25.4469737  60.6105399   0.3757642
  25.5685648  59.6822045   0.5748530  25.1571779  60.6244084  -0.5364042
  28.3160927  58.2960309   3.5124362  28.3382624  58.3599642   2.5576342
  28.7328986  57.4564818   3.7064868  19.4448142  66.4063711  10.8907001
  18.7029878  66.5546346  11.4771631  19.1240886  66.6671977  10.0273750
  27.3891805  75.9479689  10.6887391  27.6978931  75.7028836  11.5610090
  28.1867287  76.1526328  10.2006261  24.9310816  62.1237396  14.5847575
  24.9798972  62.9999519  14.2025345  25.4733331  61.5814789  14.0119218
  35.4165662  72.6678519  13.8648712  34.6261206  72.6502658  13.3253211
  35.1799017  73.2066813  14.6197749  35.5363537  69.5170986  11.1781441
  35.5861542  69.3520993  12.1196963  35.4277460  68.6498245  10.7879321
  32.8267300  65.5001914  12.4940747  33.7277162  65.3608378  12.2024745
  32.9015274  65.6656368  13.4338925  27.1610105  62.8768768  11.3393934
  26.2913414  63.1702334  11.0676522  27.3969585  63.4609213  12.0601197
  37.0381734  71.9367927  11.4223462  36.7466542  72.2997908  12.2586923
  36.4253865  71.2234935  11.2436794  38.2377416  69.5020807   3.9426032
  39.0724308  69.9410611   4.1063593  38.3736545  69.0259460   3.1234278
  35.2868922  67.0600542   9.8903520  35.7623044  67.2528188   9.0822371
  34.3634488  67.1159727   9.6446904  29.8649139  59.0948385   8.8559354
  30.3831083  59.8309412   8.5305843  29.5104271  59.4012379   9.6906113
  30.1161733  55.5148668   4.3760251  30.3963487  54.8471857   5.0020677
  30.9012340  55.7077763   3.8634914  33.9870591  63.9366302   8.1231826
  34.9388014  64.0364399   8.1444050  33.8174042  63.1444570   8.6329910
  32.0084971  61.0221885   8.3091227  31.4134903  61.3026898   7.6137715
  31.7234667  61.5115786   9.0807968  36.4658669  67.1572421   7.2374125
  36.4334989  66.2188422   7.4233809  37.0759293  67.2356458   6.5039950
  36.6153157  63.9483465   7.2832409  36.0992206  63.1641922   7.0962337
  37.4993106  63.6202181   7.4478928  34.2763884  57.6924480   3.2428221
  34.0788706  57.3839569   4.1271553  34.8863590  58.4186119   3.3726151
  42.2835219  68.2188428   6.3780162  43.0138607  67.9573716   6.9387865
  41.6742164  67.4817150   6.4182230  40.3650516  66.3596291   6.9754613
  39.6383680  66.2252256   6.3671105  39.9497803  66.6673119   7.7811331
  28.1880692  70.0786221  14.7401986  29.1083702  70.2564820  14.9342033
  28.1530275  69.1342266  14.5881686  21.1842765  67.9887255   7.3824768
  21.4028775  68.9204363   7.4012801  21.5968539  67.6295230   8.1679571
  28.1046983  58.4955341  -0.6299544  27.2947711  58.1502425  -0.2544298
  28.7931400  58.1862884  -0.0411933  30.0337531  57.5733387   0.9924753
  30.5868570  57.9928841   1.6514776  30.2707617  56.6469135   1.0347709
  26.0570630  63.5620461  16.7727516  25.9567357  64.5114818  16.7039608
  25.8392172  63.2338700  15.9003587  33.4116338  59.6833912   0.5003417
  32.8315007  60.3418717   0.1181469  33.1452271  58.8611257   0.0890834
  31.8619904  59.0838970   2.7024737  32.3619683  59.1955505   1.8939056
  32.5055512  58.7800023   3.3425546  25.9201900  66.9917600  15.5892578
  25.4368982  67.7917960  15.7956467  26.0062839  67.0025545  14.6360022
  21.8475238  70.8822135   7.6261012  22.8018491  70.8506077   7.5590943
  21.6487761  70.4212758   8.4411238  22.4374620  69.4523251  10.1931810
  23.2567509  69.9467329  10.2166647  22.7111428  68.5355219  10.1649377
  32.1941216  61.8434003  -0.4440235  31.3067071  62.1283653  -0.6620040
  32.6095205  61.6827766  -1.2912958  35.5455752  61.8680524   3.2714104
  36.3216142  62.3576976   3.5438721  34.8203886  62.2938578   3.7285974
  37.9828311  62.5808143   4.3288045  38.5772802  62.3403879   3.6181353
  38.0554895  61.8615274   4.9561581  35.9787046  63.1478271   0.5960175
  35.7223980  62.7474906   1.4268382  35.3539914  63.8622065   0.4710314
  40.2899384  65.8874344   3.1031466  39.7298942  65.9567533   3.8763028
  39.6842887  65.7115329   2.3830962  17.6909534  63.7861384  10.8924007
  18.3368398  63.2760338  11.3811232  17.4826685  64.5230066  11.4667432
  30.2162926  70.8542232  16.3916147  31.0854086  71.0282884  16.0302782
  29.7369678  71.6736649  16.2691877  26.2113145  58.0501429  -3.3552097
  26.1991814  58.9943269  -3.1983826  27.1036566  57.8671574  -3.6492636
  30.0265264  54.6444206   0.8993840  29.2597660  54.0902692   1.0450522
  30.4375969  54.7166074   1.7607991  22.0307025  60.9329001  14.9899021
  22.8938487  60.5765806  15.2002345  21.4572436  60.5942896  15.6774425
  39.1664891  83.6693138  11.6909152  39.1553532  83.2745936  10.8189656
  39.3285531  82.9359210  12.2842924  44.3530518  73.9379119   8.2342217
  44.0213843  74.8074530   8.0103432  43.7576131  73.6215403   8.9136247
  38.3200047  80.0763851  13.2570464  37.5433381  80.6357771  13.2473329
  38.9590610  80.5620634  13.7785334  36.5746419  82.8849304  12.8188431
  37.3161104  83.4234348  12.5423255  35.8683405  83.5115593  12.9759983
  41.5532274  77.6255420  10.4475323  41.3093206  78.3797480   9.9109599
  41.8292205  78.0040767  11.2822570  35.3107783  80.0388952  13.6203741
  34.6806444  80.7205233  13.8539138  35.2043871  79.9272034  12.6756880
  28.8890459  79.9591239   6.9784656  29.1398497  80.8438249   7.2442232
  29.4250007  79.7795840   6.2059748  34.5888526  74.3409718  15.9828992
  34.1955471  73.7875917  16.6576637  35.4054666  74.6520297  16.3735510
  37.5056487  75.7567597  13.5749249  38.2466200  76.3574750  13.4953711
  37.7374410  75.0145235  13.0167292  32.6497825  80.9423965  11.8527479
  32.5351340  80.0409222  12.1534578  31.7942343  81.1887661  11.5012295
  41.4513650  71.7848700   7.8513531  41.1077919  72.6750342   7.7752641
  41.8192612  71.5950358   6.9883116  34.9528830  77.5291468   6.8359073
  35.5928209  77.3880227   6.1382037  34.1206360  77.2425981   6.4597675
  33.4282372  78.9129550   8.7830885  34.1005425  78.7046912   8.1343533
  32.6012158  78.7151636   8.3436117  39.3307944  75.5391491  10.7996545
  38.6835859  76.2381440  10.7061022  40.1008959  75.9727635  11.1672794
  33.8309869  82.1872153   9.5433322  33.6929667  81.4552392  10.1444861
  34.7414792  82.0981053   9.2617509  36.4592170  81.8992112   9.0317001
  37.1691788  81.2585304   8.9903620  36.4161478  82.1505007   9.9543182
  35.1721104  78.8857330  10.8512641  34.6358461  78.4348069  11.5034237
  34.5837812  79.0203239  10.1083105  30.9060225  78.0213338   7.9365635
  30.8218414  77.4139007   7.2016045  30.0842931  78.5122356   7.9375132
  39.3396965  82.4046198  14.4381120  38.6637602  82.3040327  15.1083496
  40.1624599  82.2485412  14.9017118  33.0584241  76.0588275   9.2760621
  33.1225568  76.9203106   8.8638019  32.9951361  75.4462277   8.5432980
  32.5336514  78.1311408  12.9233655  33.1608552  77.7488485  13.5371180
  31.6764432  77.9125610  13.2889348  35.6422617  75.3498260  11.1120210
  36.1657019  75.5960556  11.8746520  35.4234950  76.1818295  10.6923348
  36.8475162  76.2911955   8.7969881  36.5071982  75.4919768   9.1990561
  36.1414168  76.5913666   8.2246714  37.4991634  73.3761267   7.2497204
  38.3217703  72.9021745   7.1276094  37.7429697  74.1551751   7.7495890
  29.4975875  82.6085732   7.9976844  28.9529343  83.3845540   8.1297118
  30.3755225  82.9556537   7.8395965  30.2841897  81.7355629  10.8907001
  29.5423633  81.8838264  11.4771631  29.9634641  81.9963894  10.0273750
  35.7704571  77.4529314  14.5847575  35.8192726  78.3291436  14.2025345
  36.3127085  76.9106707  14.0119218  43.6661054  80.8293831  12.4940747
  44.5670917  80.6900296  12.2024745  43.7409029  80.9948286  13.4338925
  38.0003859  78.2060686  11.3393934  37.1307169  78.4994252  11.0676522
  38.2363340  78.7901131  12.0601197  40.7042893  74.4240303   8.8559354
  41.2224837  75.1601330   8.5305843  40.3498026  74.7304296   9.6906113
  39.0274447  85.4078138  14.7401986  39.9477456  85.5856737  14.9342033
  38.9924030  84.4634184  14.5881686  36.8964385  78.8912379  16.7727516
  36.7961112  79.8406736  16.7039608  36.6785927  78.5630618  15.9003587
  36.7595655  82.3209517  15.5892578  36.2762736  83.1209878  15.7956467
  36.8456594  82.3317462  14.6360022  33.2768374  84.7815168  10.1931810
  34.0961263  85.2759247  10.2166647  33.5505182  83.8647136  10.1649377
  28.5303289  79.1153302  10.8924007  29.1762152  78.6052256  11.3811232
  28.3220440  79.8521984  11.4667432  41.0556681  86.1834150  16.3916147
  41.9247840  86.3574802  16.0302782  40.5763432  87.0028566  16.2691877
  32.8700780  76.2620919  14.9899021  33.7332241  75.9057724  15.2002345
  32.2966190  75.9234814  15.6774425  28.3271138  45.3463343  -1.5845541
  28.3159779  44.9516141  -2.4565038  28.4891778  44.6129415  -0.9911770
  25.0478399  48.1300454  -2.6366357  24.7568265  49.0346085  -2.7519691
  25.6835384  48.1716982  -1.9222288  30.0068284  47.8161870  -5.6416564
  29.7069007  48.7186909  -5.7500756  29.6619344  47.5494053  -4.7895411
  27.4806294  41.7534056  -0.0184229  26.7039628  42.3127976  -0.0281364
  28.1196857  42.2390839   0.5030641  25.7352666  44.5619509  -0.4566262
  26.4767351  45.1004553  -0.7331438  25.0289652  45.1885798  -0.2994710
  31.2108006  46.7048650  -1.8594101  31.6191362  46.2631060  -2.6039468
  30.4885267  46.1301277  -1.6059908  32.6676984  45.8464237  -4.1502104
  32.8793879  46.4895997  -4.8267723  32.6206732  45.0126554  -4.6180174
  33.7822812  48.7236192  -5.9779747  34.6040256  48.3216380  -6.2597065
  33.7785215  48.6204427  -5.0263631  27.5479415  48.2720236  -3.8219037
  27.6123848  48.7340643  -2.9860865  26.8390339  47.6417601  -3.6936727
  28.8895909  50.5611910   0.1760286  28.4459764  49.7748288  -0.1418810
  29.5513123  50.7491060  -0.4895823  30.9877147  50.8414710  -1.7958313
  30.9695623  51.6623591  -2.2878044  31.9097068  50.7168785  -1.5708172
  27.4450202  48.3558839  -0.9534804  27.9778538  47.5947127  -1.1835496
  26.9164283  48.0632491  -0.2110650  35.9762330  47.2880104  -7.5081361
  36.4098837  47.1955394  -6.6598307  36.6893911  47.2637605  -8.1461345
  29.7090225  50.8882199  -5.9748260  29.7627247  51.4573135  -5.2070544
  28.8405006  51.0584084  -6.3394223  36.8377880  47.3303805  -4.9748475
  37.0313770  48.2349616  -4.7289200  36.7378498  46.8711224  -4.1409890
  31.8992988  47.4810548   0.5992405  31.7478495  47.2521100  -0.3177511
  31.8897668  48.4381149   0.6123750  33.6085195  50.5129670  -1.3231113
  33.5497741  49.8288891  -1.9900530  34.0104713  51.2548660  -1.7750487
  33.6102602  48.4769254  -3.0917133  32.7229381  48.1395176  -2.9690734
  34.1801153  47.7452286  -2.8548368  27.1403756  53.1370707  -6.1255890
  27.0673927  53.9425678  -5.6136585  26.6981149  53.3362673  -6.9507869
  29.6002439  53.0357541  -3.9697731  30.3130411  53.6705006  -4.0421830
  29.1092468  53.1321407  -4.7857729  24.6514353  50.7851984  -3.1492160
  25.3523812  51.4188467  -2.9962766  24.1809468  51.1266716  -3.9096521
  28.5003212  44.0816403   1.1626427  27.8243849  43.9810532   1.8328802
  29.3230846  43.9255616   1.6262424  27.2425995  55.3883330  -4.6015957
  27.7944303  55.5514952  -3.8366872  27.5832188  55.9787768  -5.2735932
  32.0936869  50.2144588   1.2532697  32.6376773  50.8274546   0.7587652
  31.5123714  50.7724166   1.7699710  30.3794382  53.3365306  -7.6152275
  30.2545521  52.5355046  -8.1241329  31.0373473  53.8311499  -8.1038305
  32.4429290  51.1374326  -5.9872725  31.4959626  51.0179677  -6.0594398
  32.7912063  50.2496824  -5.9046463  33.0509845  51.7555601  -8.7003500
  33.9756393  51.5498462  -8.8379049  32.8825149  51.5072002  -7.7914158
  27.3891806  52.9541812  -2.5867303  27.6978932  52.7090959  -1.7144603
  28.1867288  53.1588450  -3.0748432  35.4165663  49.6740642   0.5894019
  34.6261207  49.6564781   0.0498518  35.1799018  50.2128935   1.3443055
  35.5363538  46.5233108  -2.0973253  35.5861543  46.3583116  -1.1557730
  35.4277462  45.6560367  -2.4875372  32.8267301  42.5064036  -0.7813946
  33.7277164  42.3670501  -1.0729948  32.9015275  42.6718491   0.1584231
  37.0381735  48.9430050  -1.8531231  36.7466544  49.3060030  -1.0167770
  36.4253866  48.2297058  -2.0317899  35.2868923  44.0662664  -3.3851173
  35.7623045  44.2590311  -4.1932322  34.3634489  44.1221850  -3.6307790
  42.2835220  45.2250551  -6.8974531  43.0138609  44.9635839  -6.3366828
  41.6742166  44.4879273  -6.8572463  40.3650517  43.3658413  -6.3000080
  39.6383681  43.2314378  -6.9083588  39.9497804  43.6735242  -5.4943362
  28.1880694  47.0848343   1.4647293  29.1083703  47.2626942   1.6587340
  28.1530277  46.1404388   1.3126992  26.0570631  40.5682584   3.4972823
  25.9567358  41.5176941   3.4284914  25.8392174  40.2400822   2.6248893
  25.9201902  43.9979722   2.3137885  25.4368983  44.7980083   2.5201774
  26.0062841  44.0087667   1.3605329  30.2162928  47.8604354   3.1161454
  31.0854087  48.0345007   2.7548089  29.7369679  48.6798771   2.9937183
  39.1664893  60.6755260  -1.5845541  39.1553533  60.2808059  -2.4565038
  39.3285532  59.9421333  -0.9911770  44.3530519  50.9441242  -5.0412476
  44.0213844  51.8136653  -5.2651261  43.7576133  50.6277526  -4.3618446
  38.3200048  57.0825973  -0.0184229  37.5433382  57.6419894  -0.0281364
  38.9590611  57.5682756   0.5030641  36.5746421  59.8911427  -0.4566262
  37.3161105  60.4296471  -0.7331438  35.8683406  60.5177715  -0.2994710
  41.5532276  54.6317542  -2.8279370  41.3093208  55.3859603  -3.3645094
  41.8292206  55.0102890  -1.9932123  35.3107784  57.0451075   0.3449048
  34.6806445  57.7267356   0.5784445  35.2043872  56.9334157  -0.5997814
  28.8890460  56.9653361  -6.2970037  29.1398498  57.8500371  -6.0312461
  29.4250008  56.7857963  -7.0694945  34.5888527  51.3471841   2.7074299
  34.1955473  50.7938039   3.3821943  35.4054667  51.6582419   3.0980817
  37.5056488  52.7629720   0.2994556  38.2466202  53.3636873   0.2199018
  37.7374411  52.0207358  -0.2587402  32.6497826  57.9486087  -1.4227215
  32.5351341  57.0471344  -1.1220116  31.7942344  58.1949784  -1.7742398
  41.4513651  48.7910823  -5.4241163  41.1077920  49.6812464  -5.5002052
  41.8192614  48.6012480  -6.2871578  34.9528831  54.5353590  -6.4395620
  35.5928210  54.3942349  -7.1372657  34.1206362  54.2488104  -6.8157018
  33.4282373  55.9191672  -4.4923809  34.1005426  55.7109035  -5.1411160
  32.6012159  55.7213758  -4.9318577  39.3307945  52.5453613  -2.4758148
  38.6835860  53.2443563  -2.5693672  40.1008960  52.9789757  -2.1081900
  33.8309870  59.1934275  -3.7321372  33.6929668  58.4614514  -3.1309833
  34.7414794  59.1043176  -4.0137184  36.4592171  58.9054235  -4.2437692
  37.1691789  58.2647427  -4.2851074  36.4161479  59.1567130  -3.3211511
  35.1721105  55.8919453  -2.4242053  34.6358462  55.4410191  -1.7720456
  34.5837813  56.0265361  -3.1671588  30.9060226  55.0275460  -5.3389058
  30.8218415  54.4201130  -6.0738648  30.0842932  55.5184479  -5.3379562
  39.3396966  59.4108320   1.1626427  38.6637603  59.3102450   1.8328802
  40.1624600  59.2547534   1.6262424  33.0584242  53.0650398  -3.9994072
  33.1225569  53.9265229  -4.4116675  32.9951363  52.4524399  -4.7321714
  32.5336515  55.1373530  -0.3521038  33.1608554  54.7550607   0.2616486
  31.6764434  54.9187732   0.0134654  35.6422618  52.3560382  -2.1634483
  36.1657020  52.6022679  -1.4008174  35.4234951  53.1880417  -2.5831346
  36.8475163  53.2974077  -4.4784812  36.5071984  52.4981891  -4.0764132
  36.1414169  53.5975788  -5.0507979  37.4991635  50.3823390  -6.0257489
  38.3217704  49.9083868  -6.1478599  37.7429699  51.1613874  -5.5258803
  29.4975876  59.6147855  -5.2777850  28.9529344  60.3907663  -5.1457575
  30.3755226  59.9618659  -5.4358728  30.2841898  58.7417751  -2.3847693
  29.5423634  58.8900387  -1.7983062  29.9634642  59.0026017  -3.2480943
  35.7704572  54.4591436   1.3092882  35.8192728  55.3353559   0.9270651
  36.3127086  53.9168829   0.7364525  43.6661055  57.8355954  -0.7813946
  44.5670918  57.6962419  -1.0729948  43.7409030  58.0010409   0.1584231
  38.0003861  55.2122809  -1.9360760  37.1307170  55.5056375  -2.2078171
  38.2363341  55.7963254  -1.2153496  40.7042894  51.4302426  -4.4195339
  41.2224838  52.1663452  -4.7448851  40.3498027  51.7366419  -3.5848580
  39.0274448  62.4140261   1.4647293  39.9477458  62.5918860   1.6587340
  38.9924031  61.4696306   1.3126992  36.8964386  55.8974501   3.4972823
  36.7961113  56.8468858   3.4284914  36.6785928  55.5692740   2.6248893
  36.7595656  59.3271640   2.3137885  36.2762738  60.1272000   2.5201774
  36.8456595  59.3379585   1.3605329  33.2768376  61.7877291  -3.0822884
  34.0961265  62.2821370  -3.0588047  33.5505183  60.8709259  -3.1105316
  28.5303290  56.1215425  -2.3830687  29.1762153  55.6114379  -1.8943462
  28.3220441  56.8584106  -1.8087261  41.0556682  63.1896272   3.1161454
  41.9247842  63.3636924   2.7548089  40.5763434  64.0090689   2.9937183
  32.8700781  53.2683042   1.7144327  33.7332242  52.9119847   1.9247652
  32.2966192  52.9296937   2.4019732
  88.8231353  88.8231353  88.8231353 109.4712190 109.4712190 109.4712190
