default_name
  4798
  -1.3240000 -31.4280000  38.2720000  -1.5900030 -31.8982596  39.1253459
  -1.9336197 -31.7360859  37.5279925  -1.2197098 -30.4418679  38.4637460
   0.0350000 -31.9000000  37.8880000   0.0165429 -32.3709986  36.9051883
   1.0000000 -30.7110000  37.8430000   0.6550927 -29.9903253  37.1015378
   1.0362060 -30.2344995  38.8226614   2.3798838 -31.1966055  37.4685562
   2.7256756 -31.9170209  38.2098594   2.3445635 -31.6728446  36.4887357
   3.3417460 -30.0114738  37.4237050   3.9445270 -29.7182344  38.4906009
   3.4645432 -29.4107106  36.3229759   0.4930000 -32.9800000  38.8850000
  -0.2330000 -33.2270000  39.8670000   1.6740000 -33.5660000  38.6660000
   2.2065744 -33.2674628  37.8614260   2.2210000 -34.6620000  39.5050000
   1.4161325 -35.3126982  39.8468762   3.2030000 -35.4910000  38.6870000
   4.0043818 -34.8305064  38.3558889   3.6142322 -36.2621419  39.3384049
   2.5520000 -36.1440000  37.4770000   1.9764163 -35.3714480  36.9671297
   3.3082373 -36.5398508  36.7991288   1.6200000 -37.2620000  37.8640000
   1.7140000 -37.8330000  38.9430000   0.7370000 -37.6150000  36.9610000
   0.0839967 -38.3589858  37.1614325   0.7140438 -37.1412434  36.0692999
   2.8970000 -34.0940000  40.7540000   3.6100000 -33.1020000  40.6930000
   2.8330000 -34.8130000  41.8980000   2.1630000 -36.1160000  42.0610000
   2.3991139 -36.7616321  41.2151220   1.0839875 -35.9724395  42.1177577
   2.7500000 -36.6280000  43.3690000   3.6519836 -37.2083817  43.1748824
   2.0225216 -37.2511624  43.8891395   3.0570000 -35.3810000  44.1630000
   3.8592092 -35.5994284  44.8678747   2.2109096 -34.9501844  44.6983771
   3.5540000 -34.4010000  43.0960000   3.2996210 -33.3634277  43.3124100
   5.0740000 -34.5270000  42.9110000   5.5240000 -35.2250000  42.0450000
   5.8160000 -33.8980000  43.7880000   5.3720697 -33.2103569  44.3797535
   7.2910000 -34.0920000  43.9120000   7.7830413 -33.7724426  42.9933719
   7.8420000 -33.2750000  45.0670000   7.2322556 -33.5147046  45.9381215
   8.8759960 -33.5623802  45.2576958   7.7730000 -31.7720000  44.7950000
   7.5560000 -31.3790000  43.5880000   7.9660000 -31.0260000  45.7520000
   7.6090000 -35.5780000  44.0830000   6.7950000 -36.3500000  44.6460000
   8.7430000 -36.0050000  43.5710000   9.3252494 -35.3859229  43.0252634
   9.1430000 -37.4320000  43.6830000   8.3892775 -38.1293059  43.3172594
  10.4530000 -37.6590000  42.9320000  11.1642487 -36.8854738  43.2216255
  11.0320000 -39.0300000  43.2610000  10.3214618 -39.8041181  42.9712116
  11.9650488 -39.1713557  42.7155284  11.2241430 -39.0963784  44.3318754
  10.2610000 -37.4530000  41.4290000   9.7253511 -38.3250553  41.0538993
   9.6404288 -36.5653945  41.3059254  11.5310000 -37.2820000  40.6630000
  12.1519378 -38.1694668  40.7852242  11.3025914 -37.1417016  39.6064750
  12.0670168 -36.4098067  41.0372522   9.2220000 -37.8640000  45.1460000
   8.8150000 -39.0000000  45.4480000   9.7370000 -37.0040000  46.0110000
  10.0117240 -36.1058306  45.6396272   9.9010000 -37.2440000  47.4700000
   9.6369754 -38.2758533  47.7016657  11.3420000 -37.0000000  47.9060000
  11.5217622 -35.9704728  47.5963898  11.3844067 -37.0645579  48.9932599
  12.4010000 -37.8990000  47.3060000  12.4474544 -37.7393483  46.2287562
  13.7390000 -37.5740000  47.9200000  13.6934588 -37.7338675  48.9972498
  14.5036485 -38.2204469  47.4892798  13.9886457 -36.5323744  47.7180258
  12.0630000 -39.3490000  47.4840000  11.1132073 -39.5639768  46.9943285
  12.8470494 -39.9625118  47.0401857  11.9826940 -39.5760454  48.5470618
   9.0100000 -36.2500000  48.2130000   8.9610000 -35.0560000  47.7980000
   8.3950000 -36.6840000  49.2890000   8.3171083 -37.6795879  49.4401189
   7.7340000 -35.7720000  50.2550000   7.2635773 -34.9574113  49.7043214
   6.7130000 -36.4480000  51.0510000   7.1509687 -37.3502090  51.4779679
   6.4043810 -35.7792319  51.8544946   5.5760000 -36.7990000  50.2610000
   4.9264236 -37.2400872  50.8133516   8.7820000 -35.1340000  51.1450000
   9.5600000 -35.8160000  51.7760000   8.7380000 -33.8260000  51.2360000
   8.1638879 -33.2769990  50.6122272   9.5660000 -33.1200000  52.2230000
  10.6298570 -33.3146467  52.0872792   9.3300000 -31.6080000  52.1380000
   8.2663113 -31.4142460  51.9997073   9.8070000 -30.9390000  53.4330000
  10.8707789 -31.1319375  53.5717461   9.6383582 -29.8639317  53.3706416
   9.2513579 -31.3449856  54.2783042  10.0260000 -31.0420000  50.9350000
   9.6367099 -31.5149221  50.0333903   9.8509527 -29.9672876  50.8854885
  11.0965961 -31.2320960  51.0110805   9.1900000 -33.6890000  53.5930000
   7.9870000 -33.8280000  53.9240000  10.2210000 -33.9520000  54.3960000
  11.1516002 -33.7707743  54.0478048  10.0800000 -34.4840000  55.7420000
  10.6951172 -33.8802392  56.4092353   9.0332833 -34.3934349  56.0323125
  10.4970000 -35.9210000  55.8600000  10.6900000 -36.4070000  57.0210000
  10.4870000 -36.6580000  54.7660000  10.1833267 -36.3070822  53.8689278
  10.8310000 -38.0920000  54.8780000  10.4498181 -38.5638742  55.7836126
  10.3830000 -38.8920000  53.6620000  10.6731056 -39.9321134  53.8106717
   8.8710000 -38.8100000  53.4530000   8.5801785 -37.7701639  53.3037876
   8.5927489 -39.3940243  52.5757357   8.3603586 -39.2072543  54.3302306
  11.1700000 -38.5040000  52.4220000  10.6679728 -37.6449799  51.9768552
  12.1670122 -38.2111566  52.7511031  11.2840000 -39.6230000  51.3830000
  10.2873329 -39.9160745  51.0530577  11.8595610 -39.2683618  50.5279793
  11.7863707 -40.4822526  51.8273068  12.3430000 -38.2180000  55.1340000
  13.1750000 -37.3380000  54.7530000  12.6800000 -39.3990000  55.6150000
  11.9437766 -40.0567225  55.8282500  14.0710000 -39.7970000  55.8850000
  14.7667510 -38.9599054  55.8275336  14.0480000 -40.3160000  57.3250000
  13.3891594 -39.5949769  57.8088946  13.5741567 -41.2976173  57.3252353
  15.3540000 -40.3880000  58.0780000  15.9703734 -41.1471517  57.5964676
  16.1030000 -39.0710000  58.1030000  15.4874011 -38.3114126  58.5848339
  17.0323950 -39.1914944  58.6596029  16.3287498 -38.7613836  57.0825711
  15.0540000 -40.9050000  59.5000000  14.5989739 -41.8936157  59.4392580
  15.9822706 -40.9671220  60.0679400  14.3684629 -40.2201126  59.9990662
  14.4460000 -40.8520000  54.8480000  13.6990000 -41.8330000  54.7050000
  15.5130000 -40.6340000  54.1060000  15.9719550 -39.7384672  54.1924906
  16.0360000 -41.6020000  53.1000000  15.2867154 -42.3378610  52.8081432
  16.5490000 -40.8990000  51.8390000  17.3064093 -40.1762379  52.1423898
  17.1480000 -41.8680000  50.8340000  16.3910007 -42.5908396  50.5297698
  17.4956260 -41.3171178  49.9600518  17.9877751 -42.3923030  51.2900546
  15.4500000 -40.0810000  51.1840000  15.0929856 -39.3251077  51.8834781
  15.8421891 -39.5931818  50.2916320  14.6248407 -40.7367177  50.9060662
  17.1250000 -42.4080000  53.8050000  18.0620000 -41.8030000  54.3290000
  16.9460000 -43.7250000  53.8690000  16.0410875 -44.0573904  53.5677538
  17.9100000 -44.7120000  54.4290000  17.4639260 -45.7065437  54.4287538
  19.1800000 -44.7480000  53.5890000  18.8854490 -44.5870801  52.5519640
  19.8090840 -43.9216444  53.9198925  19.9580000 -46.0540000  53.6990000
  20.0561813 -46.2958427  54.7572880  19.3776490 -46.8310858  53.2015742
  21.3240000 -45.9720000  53.0750000  21.1686845 -45.8985428  51.9986264
  21.7762104 -45.0498735  53.4400861  22.2480000 -47.1430000  53.3750000
  22.0725773 -47.4932256  54.3921870  22.0484978 -47.9526573  52.6730362
  23.6580000 -46.7080000  53.2390000  23.8431890 -45.9580467  53.8896725
  24.2709253 -47.4856429  53.4382337  23.8208723 -46.3838351  52.2964032
  18.2210000 -44.4370000  55.9080000  19.4170000 -44.5720000  56.3210000
  17.2270000 -43.9420000  56.6600000  16.3405736 -43.7664344  56.2088633
  17.3670000 -43.5930000  58.0860000  16.4519664 -43.1227636  58.4461255
  17.6280000 -44.8580000  58.9160000  18.5433326 -45.3228500  58.5496942
  17.7629538 -44.5611030  59.9560671  16.4860000 -45.8470000  58.8180000
  15.5585279 -45.3417393  59.0874584  16.4594076 -46.1152707  57.7618642
  16.6400000 -47.1140000  59.6620000  15.7270000 -47.4020000  60.4600000
  17.6530000 -47.8510000  59.4770000  18.4970000 -42.5780000  58.2870000
  19.0510000 -42.5320000  59.3770000  18.8180000 -41.7600000  57.2760000
  18.2941193 -41.7918156  56.4130770  19.9720000 -40.8300000  57.3650000
  20.2622433 -40.6747600  58.4041143  21.1430000 -41.4370000  56.6210000
  21.3511270 -42.4025715  57.0819274  20.8249373 -41.5883940  55.5894885
  22.4020000 -40.5830000  56.6430000  22.2566087 -39.7191188  55.9944080
  22.5837476 -40.2443836  57.6630043  23.5840000 -41.3780000  56.1610000
  23.8582861 -42.1273638  56.9035092  23.3436429 -41.8713804  55.2192443
  24.7040000 -40.5080000  55.9510000  24.5991359 -39.5498138  56.2526325
  25.8510000 -40.8760000  55.4070000  26.0560000 -42.1690000  55.1490000
  25.3388764 -42.8448698  55.3704357  26.9273563 -42.4659236  54.7334592
  26.7640000 -39.9770000  55.1170000  26.5874644 -39.0016469  55.3109629
  27.6382081 -40.2653766  54.7014307  19.6910000 -39.4290000  56.8160000
  20.1360000 -38.4630000  57.4530000  19.1550000 -39.3230000  55.6050000
  18.9018141 -40.1674632  55.1121734  19.0090000 -38.0290000  54.9010000
  19.6139360 -37.2662314  55.3912404  19.4730000 -38.1660000  53.4650000
  18.9337852 -38.9761650  52.9741036  19.3465129 -37.2469530  52.8927644
  20.9260000 -38.5160000  53.3970000  21.9960000 -37.7210000  53.6850000
  21.7798446 -36.7046161  54.0141509  23.1620000 -38.4100000  53.4870000
  24.0922107 -38.0466818  53.6380214  22.8640000 -39.6650000  53.0400000
  23.6910000 -40.7200000  52.6740000  24.7705452 -40.5762117  52.7187849
  23.0900000 -41.8830000  52.2770000  23.7262928 -42.7245215  52.0030054
  21.7100000 -42.0320000  52.2100000  21.2373951 -42.9673794  51.9103176
  20.8960000 -40.9710000  52.5300000  19.8211614 -41.1004682  52.4032688
  21.4720000 -39.7770000  52.9740000  17.5880000 -37.5170000  55.0010000
  16.6670000 -38.1470000  54.4330000  17.3990000 -36.4600000  55.7860000
  18.1828572 -36.0707067  56.2901012  16.0810000 -35.8690000  55.9930000
  15.3258002 -36.6469313  55.8807713  15.9330000 -35.2420000  57.3750000
  16.1138771 -36.0287009  58.1074510  16.7038594 -34.4768254  57.4665625
  14.5790000 -34.6240000  57.6250000  14.4032767 -33.8796163  56.8483951
  13.8319003 -35.4137752  57.5462648  14.4770000 -33.9660000  58.9880000
  14.5963499 -34.7258237  59.7603487  15.2682954 -33.2226645  59.0849710
  13.1370000 -33.2960000  59.1460000  13.0219707 -32.5514594  58.3582640
  12.3547849 -34.0490701  59.0504792  13.0290000 -32.6410000  60.4590000
  13.7534645 -31.9428518  60.5475432  12.1242665 -32.1997273  60.5416786
  13.1351343 -33.3308029  61.1890729  15.8480000 -34.8290000  54.9020000
  16.5770000 -33.8830000  54.8040000  14.8130000 -35.0410000  54.1050000
  14.2257707 -35.8446740  54.2763743  14.4880000 -34.1680000  52.9590000
  15.3878371 -33.8996436  52.4054864  13.4970000 -34.8270000  51.9930000
  12.5666583 -35.0248295  52.5253786  13.2160000 -33.9190000  50.7980000
  14.1458644 -33.7210855  50.2648181  12.5101815 -34.4086170  50.1270336
  12.7910743 -32.9781866  51.1478713  14.0190000 -36.1670000  51.5150000
  14.1657281 -36.8264609  52.3703854  13.2984688 -36.6151070  50.8307964
  14.9687954 -36.0246146  50.9995236  13.8960000 -32.8850000  53.5240000
  12.8560000 -32.9730000  54.2260000  14.4920000 -31.7360000  53.1660000
  15.2893127 -31.7764991  52.5473308  14.0730000 -30.4090000  53.6900000
  13.3961521 -30.5306257  54.5356851  15.3070000 -29.6400000  54.1590000
  15.8894969 -29.5581715  53.2413395  15.0361542 -28.6431573  54.5069184
  16.1340000 -30.3390000  55.2220000  16.4248363 -31.3242900  54.8576941
  17.3880000 -29.5220000  55.5380000  17.0979437 -28.5366736  55.9028262
  17.9729200 -30.0340664  56.3020402  17.9879784 -29.4122560  54.6346271
  15.3200000 -30.6400000  56.4540000  14.4846925 -31.2881055  56.1888207
  15.9475804 -31.1403986  57.1914587  14.9381263 -29.7095176  56.8740881
  13.2920000 -29.5810000  52.6630000  12.3540000 -28.8790000  53.0730000
  13.8090000 -29.4980000  51.4560000  14.7143676 -29.8992156  51.2574180
  13.1740000 -28.6740000  50.4260000  12.1231889 -28.9569952  50.3642830
  13.2600000 -27.1770000  50.6990000  12.7181984 -26.6871948  49.8899010
  12.7373265 -27.0075180  51.6403758  14.6350000 -26.6140000  50.7870000
  15.1776804 -26.9698540  51.6627664  15.2247997 -26.8080129  49.8911220
  14.3880000 -25.1190000  50.9170000  13.9429335 -24.7426778  49.9959157
  13.7096365 -24.9337361  51.7498263  15.6040000 -24.4190000  51.1550000
  15.9688438 -24.4448971  52.0964445  16.2580000 -23.7240000  50.2460000
  15.8820000 -23.7580000  48.9790000  15.0885777 -24.3200827  48.7057892
  16.3899108 -23.2217368  48.2901255  17.3140000 -23.0200000  50.6160000
  17.6052963 -23.0226468  51.5830778  17.8246060 -22.4827497  49.9298933
  13.6800000 -29.0430000  49.0660000  14.8270000 -29.4080000  48.9060000
  12.7800000 -28.9390000  48.1200000  11.8115929 -28.8097896  48.3761087
  13.1120000 -29.0630000  46.6980000  13.7865212 -29.9061944  46.5491933
  11.8490000 -29.2960000  45.8700000  11.3160176 -30.1460353  46.2959918
  11.2264981 -28.4041745  45.9423792  12.1640000 -29.5760000  44.4110000
  12.5442411 -28.6607493  43.9573110  12.9306226 -30.3494721  44.3648173
  10.9290000 -30.0410000  43.6550000  10.7452849 -31.0867455  43.9015039
  10.0793281 -29.4380538  43.9753326  11.1120000 -29.9000000  42.1570000
  11.8720578 -29.1420857  41.9673199  11.4447829 -30.8564267  41.7537597
   9.8430000 -29.5020000  41.5010000   9.5346883 -28.6155670  41.8742025
   9.9913701 -29.4149996  40.5057527   9.1386986 -30.2043780  41.6762817
  13.8440000 -27.7910000  46.2910000  13.2920000 -26.6970000  46.4820000
  15.0000000 -27.9370000  45.6660000  15.4111125 -28.8516409  45.5455096
  15.7720000 -26.7530000  45.2120000  15.2672695 -25.7998718  45.3697748
  17.1580000 -26.7110000  45.8650000  17.7112303 -25.8482593  45.4939001
  17.0000000 -26.6010000  47.3590000  16.4472277 -27.4636823  47.7309175
  17.9836386 -26.5708092  47.8276623  16.4546408 -25.6888002  47.6010206
  18.0780000 -27.8630000  45.4460000  17.6366702 -28.7895219  45.8132682
  18.1087987 -27.8826672  44.3566130  19.5060000 -27.7230000  45.9960000
  19.4760503 -27.7037268  47.0854179  20.1081450 -28.5689517  45.6645089
  19.9481780 -26.7968702  45.6287642  15.8770000 -26.7210000  43.6910000
  16.3480000 -25.6800000  43.1790000  15.4970000 -27.7940000  43.0080000
  15.1823192 -28.6411375  43.4590359  15.5320000 -27.7580000  41.5290000
  15.1047690 -26.8126735  41.1944397  16.5706423 -27.8217551  41.2045668
  14.7570000 -28.8900000  40.9140000  14.5460000 -29.9190000  41.5660000
  14.3710000 -28.7080000  39.6520000  14.5231056 -27.7904971  39.2581071
  13.7500000 -29.7320000  38.8080000  13.8112165 -30.7124122  39.2803808
  12.7060168 -29.4893695  38.6096850  14.5010000 -29.7690000  37.5030000
  14.1630000 -28.9720000  36.6290000  15.6340000 -30.4720000  37.5080000
  15.8733299 -30.9386314  38.3711777  16.5480000 -30.6140000  36.3600000
  16.8393984 -29.6206207  36.0188494  17.4337984 -31.1611401  36.6826427
  15.8970000 -31.3620000  35.2070000  14.6680000 -31.5870000  35.2390000
  16.7090000 -31.7290000  34.2140000  17.6831728 -31.4801749  34.3097743
  16.2910000 -32.4600000  33.0070000  15.6467312 -31.8157336  32.4087210
  17.1766536 -32.7246040  32.4293308  15.5330000 -33.7280000  33.3580000
  14.4440000 -33.9380000  32.8050000  16.0880000 -34.5860000  34.2140000
  16.8905871 -34.3238231  34.7682712  15.5800000 -35.9760000  34.3250000
  14.6055355 -36.0545175  33.8429697  16.5460000 -36.9520000  33.6400000
  17.5170273 -36.7620047  34.0972822  16.2880732 -38.0042161  33.7600624
  16.7120000 -36.7150000  32.1620000  17.6940000 -35.8540000  31.7000000
  18.3682977 -35.3807340  32.4137519  17.8240000 -35.5920000  30.3450000
  18.6131205 -34.9258248  29.9962877  16.9680000 -36.1650000  29.4480000
  17.1060817 -36.0025088  28.3790613  15.9280000 -36.9500000  29.8970000
  15.1911442 -37.3348256  29.1919802  15.8190000 -37.2510000  31.2500000
  15.0264886 -37.9130267  31.5989217  15.3730000 -36.3480000  35.7940000
  15.4040000 -37.5670000  36.1760000  15.1700000 -35.3490000  36.6350000
  15.2075131 -34.3824904  36.3442228  14.8770000 -35.6430000  38.0530000
  13.9643802 -36.2362045  38.1107294  15.7059622 -36.2105029  38.4759202
  14.6910000 -34.3780000  38.8510000  14.4230000 -33.3530000  38.2800000
  14.7860000 -34.5000000  40.1630000  14.9673754 -35.4221779  40.5328516
  14.6200000 -33.3930000  41.1080000  14.5973253 -32.4410546  40.5775426
  13.3190000 -33.5620000  41.8500000  13.3119878 -34.5550949  42.2992355
  13.2770817 -32.8079466  42.6359684  12.1020000 -33.4090000  40.9300000
  12.2530227 -32.3382041  40.7932921  12.1530255 -33.9090008  39.9627902
  10.7560000 -33.6490000  41.5460000  10.7040000 -34.1810000  42.6560000
   9.7710000 -33.5680000  40.7780000  15.7930000 -33.3830000  42.0740000
  16.4120000 -34.4210000  42.2750000  16.1010000 -32.2170000  42.6080000
  15.6185456 -31.3891573  42.2886044  17.1950000 -32.0560000  43.5750000
  17.5474587 -32.9930239  44.0061128  18.3730000 -31.3050000  42.9580000
  18.7780872 -31.9274060  42.1601181  18.0010000 -29.9810000  42.4100000
  17.5962333 -29.3578267  43.2074456  18.8836489 -29.5011875  41.9871387
  17.2488331 -30.1077706  41.6313644  19.5510000 -31.1940000  43.9260000
  19.3031338 -30.4301764  44.6630459  19.6617762 -32.1569237  44.4246041
  20.8370000 -30.8330000  43.2460000  20.7271350 -29.8699042  42.7475263
  21.6346357 -30.7695419  43.9861687  21.0857762 -31.5966510  42.5090824
  16.6530000 -31.3790000  44.8250000  15.7930000 -30.4440000  44.7000000
  17.1270000 -31.8290000  45.9630000  17.8865906 -32.4928403  45.9136277
  16.6410000 -31.4240000  47.2890000  15.9787313 -30.5649519  47.1815961
  15.8740000 -32.5470000  47.9730000  16.5524872 -33.3971966  48.0431436
  15.6304550 -32.1935474  48.9749267  14.6160000 -32.9680000  47.2720000
  14.6450000 -33.7870000  46.1460000  15.6061846 -34.1499183  45.7819754
  13.4730000 -34.1430000  45.4880000  13.5155511 -34.7720704  44.5988646
  12.2610000 -33.6530000  45.9290000  11.0960000 -33.9960000  45.2610000
  11.2502085 -34.5754262  44.5112769  12.2110000 -32.8660000  47.0720000
  11.2561142 -32.4975584  47.4468925  13.3800000 -32.5510000  47.7340000
  13.3459725 -31.9578347  48.6478365  17.8360000 -31.0620000  48.1740000
  18.9430000 -31.5690000  47.9820000  17.5880000 -30.1420000  49.0850000
  16.7529553 -29.5851303  48.9723247  18.4280000 -29.9030000  50.2590000
  19.4805858 -30.0317071  50.0068160  18.2150000 -28.4760000  50.7440000
  18.4207604 -27.8007681  49.9134437  17.1560131 -28.4271645  50.9974993
  19.0400000 -28.0650000  51.9440000  19.6760000 -28.9200000  52.5320000
  19.0600000 -26.8310000  52.2490000  17.9870000 -30.8690000  51.3360000
  16.7470000 -31.0070000  51.5830000  18.9080000 -31.6770000  51.8240000
  19.8360970 -31.6478956  51.4266485  18.6330000 -32.6590000  52.8710000
  17.6132209 -32.5221741  53.2307616  18.7790000 -34.0720000  52.3610000
  19.7976984 -34.2271234  52.0056263  18.5651772 -34.7737259  53.1672014
  18.0797152 -34.2370558  51.5413314  19.5640000 -32.4080000  54.0510000
  20.6780000 -31.9850000  53.8230000  19.1450000 -32.8180000  55.2440000
  18.1746454 -33.0642792  55.3776334  20.0660000 -32.9020000  56.4190000
  20.8939066 -32.2048511  56.2899523  19.3220000 -32.5450000  57.7100000
  18.3004594 -32.8699828  57.5126674  19.7320320 -33.1208034  58.5397133
  19.3230000 -31.0570000  58.0720000  18.8352497 -30.4900192  57.2790730
  18.5770000 -30.8520000  59.3690000  19.0644658 -31.4183444  60.1625552
  18.5781807 -29.7927107  59.6259155  17.5491603 -31.1967765  59.2559727
  20.7100000 -30.4380000  58.1640000  21.2153819 -30.5331491  57.2029406
  20.6211950 -29.3832866  58.4243740  21.2883883 -30.9535248  58.9306812
  20.6330000 -34.3330000  56.5060000  19.8840000 -35.2940000  56.5690000
  21.9510000 -34.4510000  56.4540000  22.5006143 -33.6345027  56.2273823
  22.6590000 -35.7340000  56.6820000  22.0678838 -36.5558122  56.2778893
  24.0050000 -35.7300000  56.0040000  23.9197405 -35.3907308  54.9716597
  24.5491998 -34.9865679  56.5864563  24.7480000 -37.0390000  56.0420000
  24.5540000 -37.7750000  57.0180000  25.4410000 -37.3480000  55.0030000
  22.8230000 -35.9460000  58.1860000  23.5950000 -35.1700000  58.8290000
  22.0660000 -36.8450000  58.7560000  21.4035404 -37.3898246  58.2226963
  22.0500000 -36.9690000  60.2370000  22.1667525 -35.9842581  60.6894948
  20.7300000 -37.5720000  60.7140000  20.4974422 -38.4262921  60.0782319
  20.8627353 -37.9100477  61.7417184  19.5330000 -36.5220000  60.6510000
  19.1286254 -36.6003959  59.6418241  18.7930600 -36.8794214  61.3671290
  19.9310000 -34.7190000  61.0200000  20.4610000 -34.8580000  62.7460000
  21.3224053 -35.5228482  62.8096924  20.7345832 -33.8725798  63.1230941
  19.6454785 -35.2623585  63.3456001  23.2900000 -37.7240000  60.7350000
  23.5450000 -37.6910000  61.9780000  24.0900000 -38.3130000  59.8690000
  23.8366822 -38.3816644  58.8936977  25.3760000 -38.9280000  60.3110000
  25.2425708 -39.4383599  61.2648494  25.8400000 -39.9530000  59.2670000
  25.0400889 -40.6916265  59.2153062  25.9414948 -39.4598472  58.3002533
  27.1460000 -40.6450000  59.6220000  27.9070176 -39.8924593  59.8284839
  26.9560000 -41.5040000  60.8280000  26.1954051 -42.2571297  60.6221118
  27.8963607 -41.9963351  61.0758482  26.6373020 -40.8866493  61.6678869
  27.6520000 -41.4670000  58.4590000  27.8214172 -40.8170837  57.6005094
  28.5874717 -41.9527808  58.7365085  26.9125531 -42.2247982  58.2000422
  26.4400000 -37.8350000  60.5040000  27.0490000 -37.7660000  61.5930000
  26.5860000 -36.9380000  59.5490000  26.0061894 -37.0254515  58.7266429
  27.6310000 -35.8950000  59.5610000  28.4262561 -36.1249360  60.2700813
  28.2440000 -35.7150000  58.1880000  28.9562514 -34.8909844  58.2303849
  28.9630000 -36.9880000  57.7300000  28.2512429 -37.8124063  57.6869227
  29.3925771 -36.8275064  56.7411601  29.7574421 -37.2310570  58.4356101
  27.1760000 -35.3390000  57.3090000  27.5208242 -35.2135518  56.4218927
  27.0820000 -34.5860000  60.1350000  27.9110000 -33.6950000  60.3670000
  25.7790000 -34.4760000  60.2460000  25.2172458 -35.2258507  59.8688323
  25.0830000 -33.2780000  60.7910000  24.0018948 -33.3948451  60.7157811
  25.4570000 -33.1180000  62.2700000  26.5452159 -33.1315359  62.3308454
  25.0876586 -32.1445612  62.5926515  24.8920000 -34.1890000  63.1620000
  23.8047236 -34.1176656  63.1910220  25.1813193 -35.1737304  62.7949817
  25.4530000 -33.9850000  64.5680000  26.5374413 -34.0932184  64.5486412
  25.1941881 -32.9878967  64.9242315  24.9090000 -34.9560000  65.4800000
  24.4355179 -35.7465808  65.0666043  24.9700000 -34.8740000  66.8200000
  25.5730000 -33.8480000  67.4070000  25.9903183 -33.1214294  66.8430491
  25.6118685 -33.7983760  68.4150309  24.4450000 -35.8290000  67.5500000
  23.9999765 -36.6168178  67.1012269  24.4882203 -35.7720774  68.5574674
  25.4230000 -32.0730000  59.9320000  26.0240000 -31.0690000  60.4120000
  25.1720000 -32.1970000  58.6360000  24.7696191 -33.0687794  58.3226478
  25.4260000 -31.1530000  57.6420000  25.4744364 -30.1828046  58.1364431
  26.7610000 -31.4000000  56.9090000  26.7146091 -32.4068896  56.4941260
  26.8168737 -30.6751738  56.0968393  27.9850000 -31.2720000  57.7820000
  27.8828678 -30.2729438  58.2057412  27.9399994 -32.0115333  58.5814778
  29.3160000 -31.3830000  57.0660000  29.3000000 -31.6500000  55.8480000
  30.3900000 -31.2770000  57.7680000  24.3030000 -31.1590000  56.6050000
  23.6940000 -32.2090000  56.3710000  24.1030000 -30.0420000  55.9130000
  24.5480873 -29.1826748  56.2020622  23.1890000 -30.0020000  54.7490000
  22.3381368 -30.6515348  54.9545128  22.6680000 -28.5950000  54.4440000
  23.5508989 -27.9589729  54.3802956  22.1231317 -28.5548908  53.5008087
  21.7820000 -28.0750000  55.5300000  22.2270000 -27.5060000  56.5330000
  20.5130000 -28.3370000  55.3800000  19.8496107 -28.0191184  56.0720734
  20.1997579 -28.8565178  54.5724844  23.9320000 -30.5690000  53.5510000
  25.1600000 -30.3310000  53.3860000  23.2050000 -31.3200000  52.7310000
  22.2361547 -31.4625861  52.9781989  23.7260000 -31.9930000  51.5240000
  24.6471376 -31.5267723  51.1743767  24.0010000 -33.4920000  51.7910000
  24.3686058 -33.9539285  50.8747101  25.0380000 -33.6550000  52.8920000
  24.6708822 -33.1936908  53.8087984  25.2193894 -34.7154789  53.0668795
  25.9678249 -33.1727878  52.5903400  22.7440000 -34.2470000  52.1650000
  22.0212652 -34.1756281  51.3521885  22.9879373 -35.2943903  52.3426732
  22.3160889 -33.8155794  53.0699139  22.7210000 -31.8170000  50.4020000
  21.5650000 -31.4440000  50.6750000  23.1310000 -32.1100000  49.1870000
  24.1156180 -32.2938826  49.0573312  22.2420000 -32.1810000  48.0050000
  21.3197977 -31.6194276  48.1542601  22.9350000 -31.6470000  46.7970000
  23.8559196 -32.2054355  46.6291998  22.2844060 -31.7507965  45.9286372
  23.1718345 -30.5939705  46.9491105  21.8650000 -33.6390000  47.7810000
  22.7020000 -34.5280000  47.9070000  20.6020000 -33.8250000  47.4790000
  20.0005764 -33.0144380  47.4418762  20.0030000 -35.1550000  47.2300000
  20.7784761 -35.9201710  47.1946534  19.0320000 -35.4940000  48.3660000
  19.6579551 -35.6720569  49.2403999  18.4141098 -34.6122164  48.5356152
  18.1350000 -36.7050000  48.1280000  17.6806645 -36.6408154  47.1392834
  18.9390000 -37.9010000  48.2110000  19.3933242 -37.9661212  49.1996595
  18.3096681 -38.7748960  48.0426318  19.7219761 -37.8663713  47.4534714
  17.0070000 -36.7540000  49.1640000  16.4043530 -35.8488683  49.0888164
  16.3786828 -37.6248047  48.9768693  17.4344448 -36.8232310  50.1642984
  19.3060000 -35.0870000  45.8740000  18.2800000 -34.3870000  45.7570000
  19.8330000 -35.8120000  44.8850000  20.7129310 -36.2810162  45.0457624
  19.2060000 -35.9450000  43.5690000  18.5591524 -35.0887245  43.3780035
  20.2720000 -36.0040000  42.4780000  20.9733208 -36.7911009  42.7549849
  19.7688218 -36.2763846  41.5502509  21.0210000 -34.7100000  42.2820000
  20.2903512 -33.9315497  42.0622993  21.5315379 -34.4752318  43.2159898
  22.0310000 -34.7830000  41.1610000  22.7034155 -35.6186506  41.3550216
  21.4981494 -34.9556256  40.2259224  22.8280000 -33.5130000  41.0560000
  22.1410637 -32.6714372  40.9666069  23.4281657 -33.3971641  41.9584868
  23.7190000 -33.5510000  39.8720000  23.1630391 -33.6578993  39.0355911
  24.2451395 -32.6905040  39.8188604  24.3558946 -34.3304880  39.9548415
  18.3650000 -37.2210000  43.5560000  18.8270000 -38.2190000  44.0690000
  17.2270000 -37.1700000  42.9130000  16.9146852 -36.2861100  42.5371048
  16.3230000 -38.3430000  42.7980000  16.8818179 -39.2781316  42.8347516
  15.2370000 -38.3780000  43.8810000  14.6205539 -39.2644558  43.7317034
  15.8550000 -38.4200000  45.2640000  16.4712656 -37.5335732  45.4142169
  15.0652333 -38.4443170  46.0148514  16.4736586 -39.3123642  45.3591277
  14.3030000 -37.1910000  43.7360000  13.8264051 -37.2205932  42.7561614
  13.5390793 -37.2321386  44.5124229  14.8716159 -36.2663620  43.8351025
  15.7030000 -38.3900000  41.4120000  15.5640000 -37.3550000  40.7640000
  15.3430000 -39.5780000  41.0420000  15.6303102 -40.3443185  41.6338683
  14.5870000 -39.8880000  39.8150000  14.0538857 -39.0007568  39.4734040
  15.5390000 -40.3440000  38.7060000  14.9832543 -40.3062413  37.7690794
  16.3589689 -39.6267136  38.6706259  16.0960000 -41.7370000  38.9060000
  16.4215981 -41.5794508  39.9342339  15.3583659 -42.5389994  38.8778536
  17.2990000 -42.1210000  38.0440000  17.6260000 -41.3330000  37.1990000
  17.6970000 -43.2830000  38.0990000  13.5670000 -40.9710000  40.1470000
  13.8290000 -41.8220000  41.0240000  12.4240000 -40.9610000  39.4870000
  12.1713863 -40.1775513  38.9017704  11.4580000 -42.0690000  39.6290000
  11.2382205 -42.2160591  40.6864355  10.1810000 -41.7920000  38.9110000
   9.6255909 -41.0202529  39.4439412  10.4007120 -41.4482950  37.9002114
   9.4070000 -42.9700000  38.8490000   8.5855038 -42.7891307  38.3863661
  12.0930000 -43.3710000  39.1030000  12.7350000 -43.3260000  38.0350000
  11.8650000 -44.4830000  39.7800000  11.4118862 -44.4018638  40.6790018
  12.3130000 -45.8150000  39.3420000  13.3704002 -45.7749197  39.0804707
  12.1300000 -46.8130000  40.4530000  11.0747497 -46.8710502  40.7197904
  12.4751123 -47.7926936  40.1225485  12.7073746 -46.4992818  41.3226658
  11.5650000 -46.2150000  38.0620000  12.0130000 -47.1660000  37.4470000
  10.4620000 -45.5320000  37.7190000  10.2231154 -44.7312371  38.2862850
   9.5640000 -45.8860000  36.5810000   9.7808785 -46.9009238  36.2478444
   8.0960000 -45.8120000  36.9970000   7.9704322 -44.9098284  37.5956806
   7.5016187 -45.7292533  36.0870748   7.6340000 -47.0150000  37.7940000
   6.5460441 -46.9682881  37.8416524   7.9366916 -47.9497720  37.3221089
   8.1790000 -46.9860000  39.1980000   8.0770000 -45.9840000  39.9150000
   8.8200000 -48.0760000  39.5860000   9.2110536 -48.1240939  40.5159815
   8.9154464 -48.8551871  38.9505011   9.7500000 -44.9660000  35.3630000
   9.1530000 -45.2890000  34.3060000  10.4970000 -43.8750000  35.4620000
  10.9760074 -43.6606747  36.3249692  10.5390000 -42.8690000  34.3610000
   9.5340404 -42.7393526  33.9593197  11.0490000 -41.5170000  34.8420000
  10.9190351 -40.8097510  34.0228497  10.4264935 -41.2150331  35.6842598
  12.4890000 -41.5330000  35.2650000  12.7403883 -42.3396957  35.9535832
  13.0245902 -41.6768499  34.3266224  12.9270000 -40.2260000  35.8740000
  12.3750000 -39.7320000  36.8830000  14.0300000 -39.7150000  35.3410000
  14.3964219 -38.8401294  35.6880415  14.4978003 -40.2033916  34.5908415
  11.3450000 -43.4440000  33.2020000  12.2160000 -44.2820000  33.4030000
  10.9980000 -43.0790000  31.9450000  10.0380000 -42.0120000  31.6060000
  10.4890561 -41.0546832  31.8671381   9.1380391 -42.1636361  32.2019663
   9.7770000 -42.1450000  30.1260000   9.7887807 -41.1540329  29.6721889
   8.7981831 -42.6007879  29.9767482  10.8840000 -43.0320000  29.5580000
  11.6167337 -42.4069625  29.0475801  10.4913906 -43.7730516  28.8617242
  11.5460000 -43.7400000  30.7650000  11.2892859 -44.7971001  30.8338145
  13.0730000 -43.5910000  30.6300000  13.7150000 -44.5150000  30.1760000
  13.6020000 -42.4140000  30.9310000  13.0026212 -41.6428506  31.1882411
  15.0700000 -42.1680000  30.8380000  15.5463171 -43.0941156  30.5162375
  15.4570000 -41.0550000  29.8630000  15.0191952 -41.2846498  28.8915644
  15.0442271 -40.1170278  30.2343849  16.9710000 -40.9230000  29.7200000
  17.3360672 -40.5142945  30.6622242  17.3583663 -41.9333174  29.5884398
  17.4390000 -40.0530000  28.5800000  17.2400372 -40.5729420  27.6428911
  16.8770871 -39.1192910  28.6032553  18.9170000 -39.7540000  28.6860000
  19.1720239 -39.0138313  27.9275716  19.1129581 -39.3416242  29.6757706
  19.7440000 -40.9750000  28.4850000  19.5628897 -41.3570298  27.5677476
  20.7221379 -40.7356796  28.5629225  19.5081473 -41.6608220  29.1879373
  15.5990000 -41.8450000  32.2260000  15.1490000 -40.8470000  32.8240000
  16.4480000 -42.7400000  32.7250000  16.6450784 -43.5755659  32.1929388
  17.0760000 -42.5910000  34.0500000  16.6653075 -41.7242154  34.5677985
  16.8010000 -43.8260000  34.8810000  17.0540427 -44.7061232  34.2898555
  17.4299027 -43.7934124  35.7706738  15.3290000 -43.8980000  35.2990000
  15.1969048 -43.1627696  36.0927808  14.6856585 -43.6424503  34.4570332
  14.9240000 -45.2430000  35.8200000  15.6610000 -45.8990000  36.5520000
  13.7490000 -45.6890000  35.3990000  13.4128255 -46.5890423  35.7104676
  13.1952244 -45.1267593  34.7686672  18.5760000 -42.3550000  33.8640000
  19.1790000 -43.0690000  33.0350000  19.1230000 -41.3610000  34.5220000
  18.5597018 -40.7939083  35.1394152  20.5270000 -40.9680000  34.2980000
  21.1397221 -41.6843499  33.7507215  20.6460000 -39.5960000  33.6140000
  21.7015635 -39.3272431  33.5733224  20.0650000 -39.6060000  32.1910000
  19.0092750 -39.8742400  32.2309114  20.1712777 -38.6159344  31.7476314
  20.6018502 -40.3349297  31.5839128  20.0950000 -38.4790000  34.4930000
  20.6516295 -38.4448382  35.4295354  20.1966444 -37.5250694  33.9755211
  19.0421911 -38.6672864  34.7033389  21.3140000 -41.0120000  35.6070000
  22.5370000 -40.6690000  35.5640000  20.7090000 -41.3700000  36.7590000
  19.7326418 -41.6216226  36.8182459  21.4840000 -41.2660000  38.0150000
  22.0447069 -40.3313091  38.0072596  20.5870000 -41.2880000  39.2550000
  19.8444266 -42.0623748  39.0625744  21.1841701 -41.5657735  40.1235216
  19.8820000 -39.9650000  39.5260000  19.2110072 -39.7402176  38.6969389
  19.0750000 -40.0550000  40.8260000  19.7454256 -40.2793155  41.6556450
  18.5750092 -39.1041634  41.0104447  18.3298618 -40.8456156  40.7377025
  20.8220000 -38.8100000  39.6120000  21.3624068 -38.7098217  38.6707114
  20.2595256 -37.8968013  39.8064017  21.5319352 -38.9781788  40.4218190
  22.5580000 -42.3620000  38.0570000  23.5630000 -42.1110000  38.7330000
  22.4100000 -43.4550000  37.3060000  21.5587266 -43.6254122  36.7898676
  23.4870000 -44.4720000  37.2410000  23.7270921 -44.8225444  38.2447797
  23.0380000 -45.6680000  36.4000000  22.1510027 -46.0764020  36.8842962
  22.7683064 -45.2775801  35.4187061  24.0790000 -46.7660000  36.2400000
  24.7946269 -46.4322389  35.4886129  24.5856310 -46.8795358  37.1984032
  23.4930000 -48.0900000  35.8220000  23.0470406 -48.5563240  36.7004994
  22.7179371 -47.8989865  35.0797799  24.5410000 -49.0200000  35.2320000
  25.1010474 -48.4772862  34.4704823  25.2183414 -49.3324429  36.0267875
  23.9130000 -50.2090000  34.6260000  23.2856455 -49.9197271  33.8892183
  24.6289810 -50.8091763  34.2422558  23.3943488 -50.7122658  35.3315661
  24.7420000 -43.8200000  36.6380000  25.8710000 -44.0610000  37.1540000
  24.5660000 -42.9520000  35.6530000  23.6391419 -42.8071343  35.2787709
  25.7050000 -42.2050000  35.0350000  26.5166887 -42.9010555  34.8234168
  25.2910000 -41.5180000  33.7210000  24.9183327 -42.2942947  33.0527299
  24.4837381 -40.8249500  33.9578754  26.4180000 -40.7670000  33.0430000
  25.9960596 -40.2590695  32.1757781  26.7894533 -40.0268865  33.7517712
  27.8060000 -41.8310000  32.5010000  27.0310000 -42.7880000  31.2230000
  26.6651341 -42.1224168  30.4411815  27.7557763 -43.4825938  30.7983360
  26.1954295 -43.3475865  31.6434594  26.2360000 -41.1670000  36.0150000
  27.4730000 -40.9840000  36.1680000  25.3330000 -40.4530000  36.6770000
  24.3543197 -40.5571211  36.4501897  25.7110000 -39.4680000  37.7080000
  26.2426894 -38.6379040  37.2428697  24.4670000 -38.9160000  38.4220000
  23.8188009 -38.4711404  37.6669921  23.9532702 -39.7540131  38.8930794
  24.8080000 -37.8710000  39.4780000  24.0624968 -37.8465466  40.2728131
  25.7273079 -38.3179198  39.8564639  25.0900000 -36.4590000  39.0070000
  24.7710000 -36.1580000  37.8370000  25.4640000 -35.6500000  39.8570000
  26.6580000 -40.1250000  38.7070000  27.7280000 -39.5390000  39.0030000
  26.2840000 -41.2750000  39.2320000  25.4163960 -41.7070039  38.9478603
  27.1010000 -41.9510000  40.2930000  27.3991883 -41.2888143  41.1058303
  26.3570000 -43.1580000  40.8900000  25.9773974 -43.7605493  40.0648119
  27.2580000 -44.0210000  41.7800000  27.6376391 -43.4192155  42.6057303
  26.6837061 -44.8587164  42.1756237  28.0943961 -44.3997406  41.1925489
  25.1350000 -42.7250000  41.6160000  24.4663571 -42.2086250  40.9272507
  24.6281564 -43.5976149  42.0280102  25.4127876 -42.0506681  42.4260688
  28.4290000 -42.3980000  39.7220000  29.4350000 -42.1990000  40.3370000
  28.4320000 -42.9690000  38.5140000  27.5679372 -43.0792038  38.0027760
  29.6690000 -43.5050000  37.9190000  30.1341897 -44.2493407  38.5652620
  29.3670000 -44.1430000  36.5910000  28.9090424 -43.4074298  35.9297048
  30.2918344 -44.5071086  36.1435557  28.6809328 -44.9775176  36.7358839
  30.6690000 -42.3500000  37.7930000  31.8510000 -42.5360000  38.1160000
  30.2410000 -41.2550000  37.1970000  29.2924936 -41.1840350  36.8572957
  31.1760000 -40.1240000  36.9260000  32.1554501 -40.4235401  36.5531026
  30.5700000 -39.1130000  35.9510000  29.6257714 -38.7463930  36.3536549
  31.5200000 -37.9510000  35.7560000  32.4643593 -38.3167885  35.3529054
  31.0815638 -37.2353438  35.0605071  31.6992153 -37.4628372  36.7139565
  30.1450000 -39.7690000  34.6480000  29.3977799 -40.5355488  34.8533463
  29.7199013 -39.0166901  33.9836051  31.0120086 -40.2260217  34.1710009
  31.5740000 -39.4630000  38.2460000  32.7770000 -39.1610000  38.4130000
  30.6320000 -39.1500000  39.1300000  29.6590260 -39.3265824  38.9244774
  30.9740000 -38.5420000  40.4340000  31.3336080 -37.5189443  40.3238254
  29.6890000 -38.5200000  41.2400000  28.9245838 -38.2154725  40.5251363
  29.5211657 -39.5569608  41.5309364  29.6160000 -37.6460000  42.4490000
  30.2500482 -38.0927201  43.2148491  30.0650000 -36.2180000  42.1900000
  29.4310815 -35.7704351  41.4245382  29.9862217 -35.6392357  43.1102862
  31.1003127 -36.2182834  41.8490779  28.1600000 -37.6500000  42.8870000
  27.8532394 -38.6694285  43.1210146  28.0445335 -37.0241792  43.7719390
  27.5369523 -37.2592645  42.0824900  32.0370000 -39.3850000  41.1300000
  33.0320000 -38.8260000  41.6460000  31.8810000 -40.6990000  41.1430000
  31.0459226 -41.1212132  40.7628934  32.8730000 -41.5780000  41.8080000
  33.0482769 -41.2189551  42.8221321  32.3820000 -43.0330000  41.8800000
  32.0046897 -43.3122381  40.8962509  33.2324187 -43.6652312  42.1352876
  31.3010000 -43.2160000  42.8990000  31.7242470 -42.9371902  43.8640015
  30.5004385 -42.5230515  42.6401067  30.7550000 -44.5960000  42.9780000
  30.0948025 -44.7568298  42.1257254  31.5854608 -45.3004759  42.9316535
  29.9860000 -44.8100000  44.2560000  29.4144176 -43.9090798  44.4790178
  29.3031129 -45.6487307  44.1207402  30.9070000 -45.1000000  45.3780000
  31.5395843 -44.3227508  45.5037793  30.3733509 -45.2400871  46.2239871
  31.4364317 -45.9350185  45.1717349  34.2080000 -41.4540000  41.0910000
  35.2500000 -41.4070000  41.7530000  34.2220000 -41.5050000  39.7540000
  33.3637900 -41.6345598  39.2374836  35.4920000 -41.4690000  39.0030000
  36.1592318 -42.2559896  39.3544944  35.2170000 -41.6900000  37.5100000
  34.1993536 -41.3441791  37.3286083  35.9180410 -41.0543102  36.9691302
  35.3580000 -43.1250000  37.0270000  35.3728614 -43.7509543  37.9192226
  34.4628627 -43.3441434  36.4449283  36.5950000 -43.4130000  36.1840000
  36.4553523 -42.8887804  35.2385946  37.4416131 -42.9804117  36.7171165
  36.8660000 -44.8850000  35.9120000  37.9183947 -44.9886901  35.6477761
  36.6662527 -45.4376709  36.8300169  36.0240000 -45.4280000  34.8140000
  36.2092535 -44.9163009  33.9631505  36.2418528 -46.4042362  34.6739890
  35.0487964 -45.3324039  35.0588232  36.2330000 -40.1530000  39.2680000
  37.4700000 -40.1260000  39.1260000  35.5140000 -39.0870000  39.5930000
  34.5101955 -39.1664526  39.6715052  36.1280000 -37.7450000  39.7500000
  37.0813426 -37.7037311  39.2231851  35.2120000 -36.6950000  39.1720000
  34.2510346 -36.9388055  39.6249940  35.5371405 -35.7134886  39.5169914
  35.0690000 -36.6780000  37.6620000  34.8275200 -37.6780451  37.3018639
  33.9330000 -35.7070000  37.2820000  34.1739960 -34.7065828  37.6414233
  33.8199392 -35.6856493  36.1980894  33.0009082 -36.0414126  37.7374926
  36.4370000 -36.3050000  37.0510000  37.1816219 -37.0435960  37.3478394
  36.3572350 -36.2868126  35.9640740  36.7392809 -35.3208912  37.4091273
  36.4770000 -37.4500000  41.1930000  37.0310000 -36.3740000  41.4430000
  36.2520000 -38.3560000  42.1280000  35.7814132 -39.2308373  41.9454978
  36.5980000 -38.0260000  43.5230000  36.1222900 -37.0884359  43.8107026
  36.1220000 -39.1130000  44.4530000  36.5017746 -40.0703273  44.0960756
  36.5139366 -38.9164852  45.4509317  34.5820000 -39.1590000  44.5060000
  34.2639562 -39.4009985  43.4919065  34.2386771 -39.9359602  45.1890551
  33.9410000 -37.8280000  44.9160000  34.0310000 -37.4470000  46.0820000
  33.2300000 -37.1280000  44.0190000  32.8071801 -36.2510148  44.2877410
  33.1208308 -37.4812238  43.0790977  38.1150000 -37.7620000  43.6060000
  38.8960000 -38.5480000  43.0730000  38.4780000 -36.7170000  44.3460000
  37.7751773 -36.1986671  44.8534156  39.8810000 -36.2820000  44.4550000
  40.0563591 -35.9464600  45.4771357  40.5216705 -37.1369348  44.2388353
  40.2230000 -35.1560000  43.5010000  41.3150000 -34.6060000  43.6630000
  39.4020000 -34.9270000  42.4710000  38.5924871 -35.5210530  42.3619622
  39.6440000 -33.8880000  41.4620000  40.7196191 -33.7516921  41.3499159
  39.0550000 -34.2440000  40.1050000  37.9734225 -34.2647532  40.2386367
  39.3220361 -33.4278126  39.4337103  39.5160000 -35.5610000  39.5080000
  39.6094128 -36.2864084  40.3161817  38.7564957 -35.8990474  38.8030325
  40.8280000 -35.4300000  38.8020000  40.8412256 -34.4762427  38.2744860
  41.6229016 -35.4432296  39.5476915  41.0440000 -36.5510000  37.8180000
  40.1031234 -36.7759039  37.3157352  41.7851725 -36.2446962  37.0797992
  41.5240000 -37.7560000  38.5270000  40.8371631 -38.0402452  39.2107832
  41.6667350 -38.5031011  37.8624952  42.3960470 -37.5479335  38.9921252
  39.0560000 -32.5880000  41.9690000  38.1530000 -32.5800000  42.8360000
  39.4880000 -31.5090000  41.3570000  40.2671629 -31.5749175  40.7177353
  38.9250000 -30.1840000  41.6320000  38.7104318 -30.0725592  42.6948455
  39.9400000 -29.1190000  41.2250000  40.9544111 -29.4786494  41.3973999
  39.7814786 -28.9791001  40.1557016  39.7440000 -27.7970000  41.9420000
  38.8740000 -27.7340000  42.8280000  40.5260000 -26.8580000  41.6400000
  37.5820000 -30.0520000  40.8910000  37.3210000 -30.7670000  39.9060000
  36.8120000 -29.0710000  41.2910000  37.0614623 -28.6395779  42.1694889
  35.5790000 -28.6090000  40.6050000  35.1686185 -27.7509001  41.1373070
  35.8690000 -28.1940000  39.1540000  36.1800996 -29.0556281  38.5633112
  34.9923734 -27.7368805  38.6950146  36.9690000 -27.1940000  39.0610000
  36.8570000 -25.8950000  39.5600000  37.9870000 -25.2300000  39.2780000
  38.0839572 -24.1719129  39.5212077  38.8460000 -26.0820000  38.7010000
  39.7987603 -25.8835541  38.4308763  38.2150000 -27.2890000  38.5320000
  38.7340991 -28.1110796  38.0392298  34.4820000 -29.6720000  40.6480000
  33.5870000 -29.5980000  39.8230000  34.5340000 -30.5990000  41.5830000
  35.3459280 -30.7118564  42.1730303  33.4580000 -31.6240000  41.6600000
  32.5048327 -31.2778949  41.2602719  33.7990000 -32.9890000  41.0140000
  32.8863985 -33.5845657  40.9903523  34.3480000 -32.8510000  39.6090000
  35.2609263 -32.2559016  39.6319017  34.5691804 -33.8393482  39.2060762
  33.6095099 -32.3583029  38.9765575  34.6840000 -33.8450000  41.8630000
  34.1907265 -34.0478780  42.8135913  34.8821550 -34.7855831  41.3490567
  35.6250374 -33.3262892  42.0459987  32.9890000 -31.7580000  43.1120000
  33.7910000 -31.5950000  44.0690000  31.7260000 -32.0650000  43.2480000
  31.1343698 -32.1209687  42.4313357  31.1130000 -32.2770000  44.5700000
  31.3893149 -31.4571662  45.2330398  29.6020000 -32.3330000  44.4730000
  29.2900632 -33.0989725  43.7630135  29.1612125 -32.5409117  45.4479765
  28.8480000 -30.7740000  43.8990000  27.5898914 -31.2029044  43.9448472
  31.6430000 -33.5440000  45.2000000  31.8160000 -34.5510000  44.5220000
  31.8160000 -33.5290000  46.5050000  31.7836235 -32.6512877  47.0036705
  32.1160000 -34.7600000  47.2700000  32.9785348 -35.2622308  46.8319393
  32.4320000 -34.4300000  48.7310000  33.1783868 -33.6356435  48.7290569
  31.5121567 -34.0624382  49.1858479  32.9530000 -35.6110000  49.5280000
  32.1325677 -36.3068442  49.7034782  33.7333126 -36.1080390  48.9516610
  33.5230000 -35.1520000  50.8630000  32.7653969 -34.5869155  51.4059697
  33.8170864 -36.0218779  51.4503032  34.6950000 -34.2990000  50.6700000
  34.5647666 -33.2987550  50.7214634  35.9380000 -34.7750000  50.4930000
  36.1450000 -36.0820000  50.4510000  35.3662037 -36.7170579  50.5523795
  37.0807534 -36.4379728  50.3177762  36.9550000 -33.9510000  50.2940000
  36.7966204 -32.9536813  50.2747294  37.8845170 -34.3235217  50.1623776
  30.9330000 -35.7300000  47.1780000  29.7680000 -35.3320000  47.4150000
  31.2160000 -36.9760000  46.8700000  32.1664287 -37.1883459  46.6022429
  30.2350000 -38.0680000  46.8790000  29.3148294 -37.7520688  46.3874994
  30.8010000 -39.2730000  46.1280000  30.8555343 -39.0026728  45.0734629
  31.7820844 -39.6035878  46.4690061  29.8980000 -40.4540000  46.2190000
  28.8170000 -40.5470000  45.3720000  28.6541123 -39.7790403  44.6158218
  27.9310000 -41.6200000  45.4790000  27.0593833 -41.6835155  44.8275778
  28.1630000 -42.5990000  46.4120000  27.5424696 -43.4950639  46.4225571
  29.1770000 -42.4520000  47.3340000  29.2739865 -43.1514253  48.1643602
  30.0770000 -41.4060000  47.2000000  30.9318324 -41.3330305  47.8723370
  29.9080000 -38.4670000  48.3050000  30.8190000 -38.7100000  49.1080000
  28.6160000 -38.6260000  48.5950000  27.9266987 -38.4622389  47.8751769
  28.1380000 -38.9190000  49.9800000  28.9424701 -39.1675655  50.6722010
  27.3360000 -37.7350000  50.5330000  26.5751855 -37.4588697  49.8029221
  26.6610000 -38.0940000  51.8640000  27.4212655 -38.3698121  52.5947700
  26.0999656 -37.2345107  52.2309049  25.9817558 -38.9329745  51.7128432
  28.2680000 -36.5080000  50.6290000  29.0062683 -36.7443394  51.3952926
  28.7632614 -36.4241171  49.6616431  27.5940000 -35.1950000  50.9660000
  27.0988776 -35.2779691  51.9335070  28.3412757 -34.4025697  51.0076220
  26.8558686 -34.9577480  50.1998581  27.3510000 -40.2280000  50.0350000
  27.4830000 -40.9580000  51.0280000  26.5560000 -40.5610000  49.0150000
  26.4183491 -39.9324390  48.2364997  25.8580000 -41.8550000  48.9980000
  26.6059962 -42.6478419  48.9995865  25.2498540 -41.9281463  49.8996138
  24.9670000 -42.0220000  47.7890000  24.8530000 -41.0940000  46.9850000
  24.3590000 -43.1790000  47.6840000  24.5593487 -43.8940748  48.3685640
  23.4840000 -43.5260000  46.5430000  22.7225791 -42.7548188  46.4263079
  24.2660000 -43.6310000  45.2550000  23.5861405 -43.7414846  44.4102022
  24.8788624 -42.7407895  45.1134901  25.4000000 -45.0390000  45.1740000
  25.8605178 -44.7766111  43.9541747  22.6920000 -44.7870000  46.8230000
  23.0660000 -45.5950000  47.7040000  21.5680000 -44.9370000  46.1560000
  21.2738409 -44.2335752  45.4936079  20.7200000 -46.1040000  46.3450000
  21.3370205 -46.9977174  46.2519727  20.2921218 -46.0611652  47.3465911
  19.5980000 -46.1730000  45.3330000  19.4020000 -45.2180000  44.5630000
  18.9430000 -47.3220000  45.3110000  19.2155439 -48.0131406  45.9952104
  17.8890000 -47.6780000  44.3360000  17.4545879 -46.7768196  43.9032656
  18.4970000 -48.5180000  43.2090000  18.8291675 -49.4549357  43.6561191
  17.6966736 -48.7194444  42.4969622  19.6690000 -47.8560000  42.4840000
  19.2631958 -46.9424436  42.0494444  20.3857043 -47.5994346  43.2641354
  20.3720000 -48.6720000  41.3930000  21.1964070 -48.0845418  40.9888404
  20.7621786 -49.5890974  41.8343530  19.4660000 -49.0270000  40.2960000
  19.0681711 -49.9550867  40.3180595  19.1350000 -48.2090000  39.2760000
  19.6450000 -46.9930000  39.1910000  20.2908122 -46.6690918  39.8967691
  19.3866545 -46.3930625  38.4206545  18.2900000 -48.6200000  38.3450000
  17.8940453 -49.5474813  38.4006630  18.0446583 -48.0044413  37.5827706
  16.8040000 -48.4230000  45.0990000  17.1570000 -49.2910000  45.9360000
  15.5440000 -48.0510000  44.9050000  15.3524431 -47.1857453  44.4205007
  14.4080000 -48.7850000  45.5060000  14.6934118 -49.8286158  45.6383077
  13.9990000 -48.2140000  46.8650000  13.1761366 -48.8138173  47.2538629
  14.8468583 -48.2755294  47.5472392  13.5440000 -46.7560000  46.7810000
  12.6320000 -46.3660000  46.0350000  14.2220000 -45.9210000  47.5770000
  13.9898551 -44.9380966  47.5874575  14.9628015 -46.2774605  48.1637281
  13.2820000 -48.8260000  44.4770000  13.4930000 -48.3430000  43.3520000
  12.1770000 -49.4750000  44.8340000  12.1538314 -49.9119323  45.7443036
  11.0220000 -49.6700000  43.9340000  11.3492877 -50.1285210  43.0008652
   9.9920000 -50.5870000  44.5940000   9.8931495 -50.2290561  45.6187946
   9.0305465 -50.5056785  44.0869556  10.4360000 -52.0380000  44.6060000
  11.4790000 -52.3290000  43.9810000   9.7060000 -52.8730000  45.1910000
  10.4220000 -48.3190000  43.5330000   9.7410000 -48.2690000  42.5130000
  10.6480000 -47.2580000  44.3070000  11.2673347 -47.3214655  45.1022961
   9.9430000 -45.9790000  44.0670000   9.0892328 -46.1401045  43.4088008
   9.4370000 -45.4050000  45.3930000  10.2993960 -45.3156428  46.0535964
   9.0377113 -44.4130779  45.1814365   8.3610000 -46.2530000  46.0720000
   7.4203214 -46.1719665  45.5273366   8.6719981 -47.2971516  46.1056104
   8.1710000 -45.7320000  47.4970000   9.1587449 -45.7204795  47.9577887
   7.8004487 -44.7108300  47.4075409   7.2610000 -46.4870000  48.3580000
   6.8505809 -47.3182270  47.9571045   6.9360000 -46.1550000  49.6280000
   7.4510000 -45.0710000  50.1940000   8.0908968 -44.4885753  49.6730263
   7.2007398 -44.8333013  51.1431938   6.0960000 -46.9160000  50.3230000
   5.7008665 -47.7434750  49.8996151   5.8568900 -46.6631177  51.2711433
  10.9000000 -45.0350000  43.3500000  10.5010000 -44.3280000  42.3790000
  12.1190000 -44.9620000  43.8350000  12.4095330 -45.5509732  44.6023334
  13.0680000 -43.9580000  43.3280000  12.8940428 -43.7982538  42.2638951
  12.9010000 -42.6240000  44.0560000  13.6422187 -41.9482381  43.6293387
  11.9048989 -42.2031747  43.9189279  13.1550000 -42.6590000  45.5490000
  12.1270000 -42.9460000  46.4470000  11.1262782 -43.1672656  46.0759241
  12.3790000 -42.9500000  47.8200000  11.5702739 -43.1964833  48.5079744
  13.6290000 -42.6480000  48.3080000  13.8204828 -42.6568909  49.3810122
  14.6450000 -42.3320000  47.4280000  15.6385771 -42.0840614  47.8014047
  14.3960000 -42.3310000  46.0590000  15.1902947 -42.0670193  45.3607808
  14.5030000 -44.4690000  43.4420000  14.7890000 -45.3740000  44.2920000
  15.3580000 -43.8270000  42.6680000  14.9620782 -43.2432763  41.9450810
  16.8230000 -43.9150000  42.7690000  17.0897262 -44.6909676  43.4865170
  17.4500000 -44.2560000  41.4310000  17.2777232 -43.4445608  40.7239028
  18.5220769 -44.3904844  41.5747537  16.8760000 -45.5310000  40.8530000
  16.6310000 -46.4950000  41.5550000  16.6500000 -45.5120000  39.5580000
  16.2671739 -46.3285430  39.1032456  16.8602555 -44.6809480  39.0239157
  17.3360000 -42.5700000  43.2610000  16.7250000 -41.5170000  42.9800000
  18.4430000 -42.5590000  43.9950000  18.9120353 -43.4212596  44.2329364
  18.9530000 -41.3100000  44.5670000  18.6808110 -40.4829814  43.9112161
  18.3810000 -41.0370000  45.9630000  18.6688660 -40.0280780  46.2584806
  17.2963710 -41.0923117  45.8701524  18.8460000 -42.0180000  47.0080000
  18.1970000 -43.2150000  47.1920000  17.3180172 -43.4430316  46.5890984
  18.6520000 -44.1350000  48.1390000  18.1449577 -45.0924819  48.2583248
  19.7590000 -43.8390000  48.9100000  20.1710000 -44.7680000  49.8430000
  19.6208351 -45.5545821  49.8573848  20.4050000 -42.6330000  48.7490000
  21.2652252 -42.3753373  49.3668374  19.9520000 -41.7470000  47.7930000
  20.4695603 -40.8002306  47.6385358  20.4680000 -41.2950000  44.5940000
  21.1190000 -42.3740000  44.6060000  21.0110000 -40.0770000  44.5950000
  20.4079194 -39.2806588  44.4458901  22.4560000 -39.8350000  44.7890000
  22.9446028 -40.6824894  45.2697579  23.1840000 -39.5310000  43.4740000
  22.8429213 -38.5660042  43.0991031  24.6660000 -39.4900000  43.6810000
  25.0079084 -40.4548655  44.0554784  25.1598024 -39.2727413  42.7338684
  24.9109414 -38.7124960  44.4045972  22.8240000 -40.5290000  42.4070000
  21.7499323 -40.4949742  42.2244542  23.3562065 -40.2862308  41.4872615
  23.1047029 -41.5297791  42.7352497  22.5770000 -38.6580000  45.7290000
  21.8420000 -37.6520000  45.5450000  23.5120000 -38.7490000  46.6770000
  24.0690104 -39.5888072  46.7445469  23.7420000 -37.6760000  47.6630000
  23.0707692 -36.8280997  47.5265691  23.5910000 -38.1950000  49.1000000
  24.4359038 -38.8470378  49.3215480  23.5540000 -37.0610000  50.1000000
  22.7090258 -36.4087437  49.8793617  23.4463699 -37.4664252  51.1060550
  24.4799013 -36.4893765  50.0363214  22.3750000 -39.0660000  49.2370000
  22.4620714 -39.9205566  48.5659905  22.2940953 -39.4187837  50.2651526
  21.4851379 -38.4916345  48.9794142  25.1450000 -37.1210000  47.4350000
  26.1130000 -37.9040000  47.3220000  25.2900000 -35.8110000  47.4680000
  24.4695289 -35.2318461  47.5752725  26.5800000 -35.1530000  47.2350000
  27.3600103 -35.7050404  47.7593419  26.9390000 -35.0960000  45.7370000
  28.0092327 -34.9039947  45.6606111  26.7136848 -36.0713573  45.3057098
  26.1920000 -34.0420000  44.9970000  26.3047477 -33.1440130  45.6044604
  26.7391484 -33.9188323  44.0623555  24.4450000 -34.2950000  44.6320000
  24.5160000 -35.8320000  43.7150000  24.9487088 -36.6107330  44.3430422
  23.5092953 -36.1243691  43.4163924  25.1332654 -35.6975535  42.8267383
  26.6230000 -33.7790000  47.8640000  25.6100000 -33.2740000  48.3850000
  27.8110000 -33.2190000  47.9000000  28.6088470 -33.7262308  47.5446741
  28.0380000 -31.8990000  48.5070000  27.8727714 -31.9119359  49.5843260
  29.4920000 -31.5610000  48.2440000  30.0805685 -32.3948336  48.6266328
  29.6079421 -31.5014800  47.1618194  29.9740000 -30.2730000  48.8740000
  29.4178826 -29.3886514  48.5629344  29.9027004 -30.3844527  49.9559412
  31.4290000 -30.0850000  48.5020000  32.0420000 -30.8720000  47.7330000
  32.0110000 -28.9940000  48.9700000  32.9812035 -28.8117021  48.7565193
  31.4827075 -28.3479035  49.5388301  27.0820000 -30.8440000  47.9590000
  26.9170000 -30.7480000  46.7310000  26.5100000 -30.0510000  48.8470000
  26.6784614 -30.2363776  49.8254453  25.6260000 -28.9270000  48.4910000
  25.0129034 -29.1688649  47.6228334  24.6870000 -28.6580000  49.7040000
  24.1750950 -29.6031466  49.8849707  25.3157100 -28.4160258  50.5608969
  23.6510000 -27.5470000  49.5010000  24.1742327 -26.6253257  49.2463533
  22.6720000 -27.9020000  48.3830000  22.1480191 -28.8233819  48.6371617
  21.9492542 -27.0950324  48.2624075  23.2193044 -28.0412079  47.4507021
  22.8970000 -27.3260000  50.8050000  23.5989630 -27.0345875  51.5862977
  22.1577733 -26.5366735  50.6685857  22.3936596 -28.2482861  51.0950616
  26.5070000 -27.7190000  48.1740000  27.3140000 -27.3200000  49.0110000
  26.2260000 -27.0740000  47.0490000  25.5292475 -27.4591035  46.4274450
  26.9410000 -25.8680000  46.6280000  27.7841010 -25.6718889  47.2904351
  27.4660000 -26.0730000  45.2260000  26.6163955 -26.2165929  44.5584278
  28.0131155 -25.1780643  44.9295968  28.3920000 -27.2880000  45.1410000
  27.8139237 -28.1526471  45.4670582  28.6658595 -27.4089514  44.0929190
  29.6380000 -27.2150000  45.9530000  29.9570000 -26.2410000  46.6020000
  30.4080000 -28.2820000  45.9400000  31.2659524 -28.2883794  46.4728962
  30.1374801 -29.0896357  45.3971879  26.0250000 -24.6490000  46.7370000
  24.9350000 -24.7180000  47.3460000  26.5470000 -23.5370000  46.2460000
  27.4228635 -23.5800373  45.7448909  25.9010000 -22.2360000  46.4010000
  25.1615505 -22.3240000  47.1969709  26.6660037 -21.5170918  46.6943253
  25.2140000 -21.7400000  45.1410000  24.5100000 -22.5410000  44.4590000
  25.4920000 -20.4880000  44.8040000  26.1578213 -19.9751959  45.3641904
  24.7630000 -19.7620000  43.7420000  23.7004709 -19.9969609  43.8046461
  24.9380000 -18.2540000  43.8870000  26.0016770 -18.0210406  43.8378032
  24.4205585 -17.7630352  43.0627986  24.3680000 -17.7550000  45.2160000
  23.4048776 -18.2388628  45.3783975  25.0560187 -18.0400496  46.0119140
  24.1840000 -16.2460000  45.2220000  23.9643670 -15.8546997  44.2286499
  23.4060702 -15.9294877  45.9167982  25.4450000 -15.7050000  45.6630000
  26.0649782 -16.3715059  46.1006028  25.8480000 -14.4390000  45.5520000
  25.1000000 -13.5110000  44.9490000  24.2018173 -13.7637078  44.5623391
  25.4360316 -12.5608644  44.8824808  27.0260000 -14.1310000  46.0570000
  27.5820778 -14.8449571  46.5054895  27.3670599 -13.1824776  45.9931090
  25.1770000 -20.3160000  42.3670000  26.3480000 -20.4540000  42.0670000
  24.1760000 -20.5690000  41.5840000  23.2568986 -20.3194899  41.9202985
  24.2900000 -21.1530000  40.2530000  24.9757754 -21.9996513  40.2214912
  22.8970000 -21.6480000  39.9400000  22.5772010 -22.2797208  40.7687078
  22.1894755 -20.8283840  39.8145458  22.9050000 -22.4670000  38.6910000
  22.8340000 -21.8690000  37.6090000  22.9320000 -23.7850000  38.8750000
  22.9389698 -24.4032658  38.0763771  22.9453950 -24.1607764  39.8123972
  24.7150000 -20.0940000  39.2270000  24.2570000 -18.9510000  39.3050000
  25.6220000 -20.4070000  38.2860000  25.9830601 -21.3479732  38.2203919
  26.1340000 -19.3920000  37.3400000  26.5640578 -18.5634862  37.9027739
  27.2140000 -19.9690000  36.4140000  26.7474151 -20.8670445  36.0091372
  27.3704529 -19.2481388  35.6115153  28.5380000 -20.3270000  37.0310000
  28.4301880 -21.2505868  37.5997397  29.5960000 -20.5220000  35.9340000
  29.7047106 -19.5986240  35.3650909  30.5509198 -20.7809143  36.3913754
  29.2839920 -21.3249936  35.2662031  28.9830000 -19.2720000  38.0050000
  28.2430160 -19.1748505  38.7994086  29.9428798 -19.5564260  38.4360845
  29.0862326 -18.3186536  37.4867601  25.0120000 -18.8320000  36.4710000
  25.1370000 -17.6840000  36.0590000  24.0130000 -19.6460000  36.1300000
  24.0344703 -20.6178977  36.4039585  22.8820000 -19.1760000  35.3050000
  23.2545314 -18.7655523  34.3664627  21.9320000 -20.2970000  34.9950000
  21.5434513 -20.7122986  35.9248694  21.1056546 -19.9178665  34.3937419
  22.4563823 -21.0756388  34.4410650  22.1630000 -18.0450000  36.0410000
  21.8380000 -17.0160000  35.4100000  21.9340000 -18.2130000  37.3350000
  22.1901438 -19.0890585  37.7674480  21.2610000 -17.1860000  38.1700000
  20.3481220 -16.8542613  37.6753259  20.8970000 -17.7480000  39.5360000
  21.8065637 -18.1908916  39.9417589  20.5913354 -16.9095070  40.1617785
  19.7920000 -18.7920000  39.5130000  19.0260000 -18.7790000  38.5520000
  19.7060000 -19.6060000  40.4720000  22.1720000 -15.9560000  38.3130000
  21.6920000 -14.8150000  38.1750000  23.4650000 -16.1730000  38.5500000
  23.8357536 -17.1104178  38.6123615  24.3870000 -15.0360000  38.7810000
  24.0207193 -14.4134341  39.5973022  25.7570000 -15.5600000  39.1500000
  25.9425733 -16.3173279  38.3883464  26.4980573 -14.7657455  39.0600339
  25.8580000 -16.1940000  40.5310000  25.0421937 -16.9050961  40.6610127
  27.1890000 -16.9180000  40.6730000  28.0053427 -16.2074162  40.5435622
  27.2540812 -17.3689362  41.6632130  27.2622656 -17.6969526  39.9140762
  25.6580000 -15.1950000  41.6560000  24.6697322 -14.7432896  41.5700701
  25.7412755 -15.7058147  42.6152887  26.4191559 -14.4174342  41.5917187
  24.4380000 -14.1760000  37.5260000  24.5020000 -12.9570000  37.6230000
  24.4700000 -14.8220000  36.3530000  24.4515143 -15.8310617  36.3136023
  24.5530000 -14.0750000  35.0860000  25.3978264 -13.3885623  35.1423102
  24.7410000 -14.9810000  33.8730000  25.5499403 -15.6821993  34.0780228
  23.8176608 -15.5332982  33.6983248  25.0800000 -14.1660000  32.6460000
  24.3350819 -13.3739718  32.5692593  26.0626082 -13.7249236  32.8134360
  25.0990000 -14.9700000  31.3560000  25.4642611 -14.3505239  30.5368952
  25.7458733 -15.8399481  31.4693349  23.7640000 -15.4240000  31.0340000
  23.5042750 -16.3382633  31.3757087  22.8950000 -14.7540000  30.3190000
  23.1560000 -13.5330000  29.8720000  24.0440084 -13.1004546  30.0828212
  22.4655615 -13.0412800  29.3228135  21.7270000 -15.3100000  30.0720000
  21.5231810 -16.2310563  30.4328507  21.0404761 -14.8127733  29.5228650
  23.2690000 -13.2530000  34.8750000  23.3300000 -12.0610000  34.5020000
  22.1280000 -13.8540000  35.1690000  22.1396748 -14.8183218  35.4690774
  20.8090000 -13.2030000  34.9360000  20.7874776 -12.7541641  33.9429329
  19.6820000 -14.2350000  35.0310000  19.8702613 -14.8702980  35.8964787
  18.7404575 -13.7034547  35.1690484  19.5990000 -15.0990000  33.7740000
  19.7009069 -14.3886490  32.9535627  20.4880608 -15.7277807  33.8220394
  18.3760000 -15.9690000  33.5410000  18.1869609 -16.6313420  34.3857877
  17.4874358 -15.3690846  33.3443923  18.6640000 -16.7920000  32.3500000
  19.1774841 -17.6396412  32.5447763  18.3290000 -16.5240000  31.0780000
  17.6130000 -15.4530000  30.7460000  17.3051021 -14.8127810  31.4639266
  17.3806131 -15.2850589  29.7775519  18.7170000 -17.3610000  30.1340000
  19.2536111 -18.1806846  30.3794909  18.4754861 -17.1778994  29.1705458
  20.6490000 -12.0020000  35.8930000  19.9380000 -11.0630000  35.5320000
  21.3220000 -12.0010000  37.0450000  21.8549609 -12.8273763  37.2755523
  21.2730000 -10.9000000  38.0320000  20.2521550 -10.5290707  38.1235760
  21.7270000 -11.3830000  39.3700000  22.7120767 -11.8383521  39.2681295
  21.7880587 -10.5350298  40.0521425  20.8130000 -12.3420000  39.8870000
  21.1172130 -12.6432073  40.7462604  22.1010000  -9.6910000  37.5910000
  21.8990000  -8.6070000  38.1010000  22.9890000  -9.8590000  36.6260000
  23.1432573 -10.7862135  36.2564338  23.7950000  -8.7470000  36.0850000
  24.2469382  -8.1767209  36.8965619  24.9120000  -9.3110000  35.2020000
  24.4640678  -9.9696086  34.4578961  25.4073934  -8.4800578  34.6997844
  25.9310000 -10.0890000  36.0190000  25.4761473 -10.8335564  36.6723343
  26.5916910 -10.5852458  35.3081347  26.7440000  -9.1540000  36.8540000
  27.4750000  -8.2900000  36.3310000  26.5670000  -9.2620000  38.1450000
  27.0822273  -8.6629688  38.7741294  25.9158767  -9.9439484  38.5070583
  22.9160000  -7.7970000  35.2840000  22.1380000  -8.2950000  34.4910000
  23.2830000  -6.5150000  35.3030000  24.0573434  -6.2902847  35.9112719
  22.5810000  -5.4030000  34.6190000  21.6519224  -5.1845859  35.1455067
  23.4320000  -4.1420000  34.5910000  24.4331155  -4.3891763  34.2377708
  22.9787936  -3.4148271  33.9172614  23.5140000  -3.5900000  35.8970000
  24.0515121  -2.7948878  35.8751547  22.1000000  -5.7920000  33.2180000
  20.9340000  -5.4230000  32.8900000  22.9780000  -6.2670000  32.3570000
  23.9308544  -6.4195634  32.6551481  22.6310000  -6.5340000  30.9260000
  21.5830413  -6.2968509  30.7425824  23.4960000  -5.6630000  30.0140000
  24.5153579  -5.7369250  30.3928719  23.4446535  -6.1098889  29.0211486
  23.0890000  -4.1930000  29.9320000  22.0066238  -4.1139925  29.8304108
  23.4079174  -3.6700533  30.8336210  23.7610000  -3.5640000  28.7150000
  24.8280127  -3.7751564  28.7856820  23.3528405  -4.0502346  27.8289519
  23.5780000  -2.1270000  28.5840000  22.8349288  -1.7194523  29.1334082
  24.3140000  -1.3200000  27.8030000  25.3080000  -1.8030000  27.0720000
  25.5178180  -2.7905689  27.0999999  25.8512755  -1.1813706  26.4901682
  24.0480000  -0.0250000  27.7540000  23.2908218   0.3531033  28.3051980
  24.6033277   0.5795802  27.1656186  22.8340000  -8.0350000  30.6790000
  23.0570000  -8.4960000  29.5090000  22.7740000  -8.8220000  31.7480000
  22.4741919  -8.4457977  32.6360801  23.1370000 -10.2520000  31.6800000
  23.0052932 -10.6926015  32.6682423  22.4735274 -10.7468697  30.9707698
  24.5880000 -10.4570000  31.2320000  24.9170000 -11.5460000  30.7150000
  25.4630000  -9.4890000  31.5280000  25.1432591  -8.6129598  31.9158384
  26.8970000  -9.6210000  31.1790000  27.0507097 -10.5840437  30.6921536
  27.3920000  -8.5190000  30.2470000  28.4392437  -8.7143734  30.0163268
  26.6000000  -8.4590000  28.9690000  25.5526597  -8.2631823  29.1988549
  26.9883729  -7.6600065  28.3374345  26.6844308  -9.4102877  28.4436203
  27.2800000  -7.2600000  30.9090000  27.5904642  -6.5632523  30.3261150
  27.7440000  -9.7070000  32.4380000  27.5030000  -8.9230000  33.3980000
  28.8110000 -10.4860000  32.3500000  28.8589944 -11.1545894  31.5944974
  29.9460000 -10.4210000  33.3060000  29.6246834  -9.9481278  34.2340338
  30.4450000 -11.8220000  33.6220000  30.5794107 -12.2900698  32.6468366
  31.3975696 -11.8069400  34.1516077  29.5240000 -12.7260000  34.4130000
  28.8580000 -12.2870000  35.5550000  28.9462240 -11.2469243  35.8689411
  28.0860000 -13.1680000  36.2900000  27.6072348 -12.8159646  37.2037591
  27.9180000 -14.4700000  35.8840000  27.2486444 -15.1396911  36.4239785
  28.6170000 -14.9330000  34.7650000  28.5399515 -15.9734137  34.4492420
  29.4150000 -14.0510000  34.0550000  29.9766749 -14.4005723  33.1887319
  31.0770000  -9.6200000  32.6840000  31.2440000  -9.5780000  31.4250000
  31.8820000  -9.0000000  33.5450000  31.6144700  -8.9605107  34.5181226
  33.1200000  -8.3530000  33.1440000  32.9724317  -7.6257124  32.3456420
  33.7690000  -7.6440000  34.3390000  34.7176133  -7.2149728  34.0162483
  32.8770000  -6.5480000  34.8740000  31.9283054  -6.9763575  35.1974007
  33.3636548  -6.0635072  35.7204827  32.6946526  -5.8123796  34.0906019
  34.0560000  -8.6400000  35.3120000  34.4650661  -8.2306076  36.0779393
  34.0840000  -9.3890000  32.5750000  33.9260000 -10.6080000  32.8170000
  35.1030000  -8.9000000  31.8890000  35.1441119  -7.9270863  31.6209551
  36.1270000  -9.8230000  31.3440000  35.7212829 -10.7439833  30.9253323
  37.0140000  -9.1330000  30.2980000  36.3744032  -8.7804572  29.4888462
  37.7830000  -7.9570000  30.8860000  38.4232106  -8.3088570  31.6949671
  38.3969690  -7.4993636  30.1102992  37.0799066  -7.2200275  31.2741113
  37.9100000 -10.1550000  29.5990000  38.5221058  -9.6140805  28.8773122
  38.5527579 -10.6002240  30.3584322  37.1340000 -11.2530000  28.8840000
  36.4913184 -10.8085517  28.1240487  37.8324801 -11.9427910  28.4102773
  36.5219684 -11.7946940  29.6051691  36.8940000 -10.4690000  32.5160000
  37.1970000 -11.6470000  32.4070000  37.0800000  -9.7720000  33.6240000
  36.8443499  -8.7899424  33.6354540  37.7390000 -10.3490000  34.8160000
  38.7224471 -10.7269233  34.5365273  37.9090000  -9.3250000  35.9000000
  38.5891291  -8.5425041  35.5635124  36.9424262  -8.8848465  36.1451533
  38.4480000  -9.9570000  37.0540000  38.5594736  -9.3073679  37.7519625
  36.9770000 -11.5830000  35.2890000  37.6020000 -12.6440000  35.5710000
  35.6740000 -11.4610000  35.5560000  35.2456726 -10.5484242  35.4940285
  34.8570000 -12.5840000  36.0470000  35.3342858 -13.0877087  36.8875801
  33.4710000 -12.0970000  36.4900000  33.1053234 -11.3954397  35.7402041
  32.4940000 -13.2170000  36.6420000  32.8587945 -13.9187789  37.3920206
  31.5295912 -12.8183537  36.9567950  32.3797968 -13.7321672  35.6882385
  33.6260000 -11.3860000  37.7360000  32.7692903 -11.0710441  38.0334081
  34.8150000 -13.6570000  34.9440000  34.9700000 -14.8320000  35.2680000
  34.6280000 -13.2620000  33.6910000  34.5256523 -12.2756774  33.4991877
  34.4780000 -14.2260000  32.5540000  33.6750150 -14.9325368  32.7640478
  34.1720000 -13.5180000  31.2420000  34.9394856 -12.7627245  31.0728108
  34.1480000 -14.4840000  30.0740000  33.3803879 -15.2393530  30.2422649
  33.9262801 -13.9396035  29.1560829  35.1200509 -14.9686303  29.9826152
  32.9060000 -12.8750000  31.3810000  32.6873980 -12.4190100  30.5649812
  35.7490000 -15.0880000  32.4360000  35.6100000 -16.3240000  32.2800000
  36.9240000 -14.4590000  32.4550000  36.9778266 -13.4571909  32.5715358
  38.1810000 -15.2100000  32.2620000  38.1406697 -15.7863292  31.3377071
  39.3440000 -14.2320000  32.1750000  39.1714713 -13.5370782  32.9968374
  40.2756337 -14.7715046  32.3455682  39.4380000 -13.4610000  30.8730000
  38.5078476 -12.9206206  30.6971946  40.5790000 -12.4800000  30.9650000
  41.5096260 -13.0197097  31.1403496  40.6541015 -11.9207451  30.0324259
  40.3994208 -11.7892461  31.7888390  39.6110000 -14.3880000  29.6670000
  38.7573516 -15.0625756  29.6011851  39.6738009 -13.7923688  28.7562966
  40.5251973 -14.9700129  29.7836331  38.3790000 -16.1900000  33.4120000
  38.8320000 -17.3210000  33.1800000  38.1680000 -15.7670000  34.6410000
  37.9472148 -14.7958287  34.8088678  38.4060000 -16.6430000  35.8070000
  39.3699075 -17.1409994  35.7022233  38.4150000 -15.8320000  37.0950000
  37.5033465 -15.2354861  37.1290335  38.4259397 -16.5261874  37.9352882
  39.6180000 -14.9190000  37.1800000  40.5199446 -15.5298750  37.1422058
  39.6013115 -14.2433537  36.3248242  39.6090000 -14.1160000  38.4540000
  39.3647059 -14.7720722  39.2894571  40.5962256 -13.6813252  38.6106615
  38.6270000 -13.0390000  38.4030000  38.3113250 -12.7419212  37.4907539
  38.1740000 -12.3980000  39.4670000  38.5100000 -12.8190000  40.6630000
  39.1094543 -13.6259334  40.7610462  38.1676969 -12.3342741  41.4802937
  37.3400000 -11.3760000  39.3330000  37.0478385 -11.0840669  38.4113077
  37.0007074 -10.8941341  40.1532344  37.4170000 -17.8130000  35.8110000
  37.8410000 -18.9460000  36.0160000  36.1340000 -17.5530000  35.5920000
  35.7971424 -16.6040834  35.5133646  35.1560000 -18.6510000  35.5020000
  35.1665311 -19.2466075  36.4148198  33.7510000 -18.0600000  35.3180000
  33.8653849 -17.3121181  34.5333421  33.0900948 -18.8535455  34.9693025
  33.1540000 -17.4110000  36.5510000  33.7924266 -16.5992499  36.8996746
  31.7900000 -16.8540000  36.1660000  31.1508183 -17.6652884  35.8176371
  31.3327548 -16.3790056  37.0339907  31.9087156 -16.1184499  35.3704039
  33.0330000 -18.3960000  37.7210000  34.0214218 -18.7742026  37.9819301
  32.6004439 -17.8866840  38.5821584  32.3910458 -19.2279206  37.4313418
  35.5180000 -19.5750000  34.3420000  35.4700000 -20.7970000  34.5030000
  35.7980000 -19.0110000  33.1710000  35.7712067 -18.0030856  33.1119237
  36.1420000 -19.7680000  31.9660000  35.2780001 -20.3483332  31.6422459
  36.4330633 -19.0780285  31.1739641  37.2970000 -20.7150000  32.2460000
  37.2470000 -21.8870000  31.8160000  38.3400000 -20.2100000  32.9160000
  38.3680878 -19.2476293  33.2212100  39.5140000 -21.0580000  33.1740000
  39.8391048 -21.5214515  32.2425394  40.6720000 -20.2390000  33.7420000
  40.8775279 -19.4198117  33.0529514  40.3601719 -19.8338068  34.7046431
  41.9300000 -21.0730000  33.9270000  41.7725516 -21.7486620  34.7677090
  42.0919812 -21.6546314  33.0194929  43.1470000 -20.2060000  34.1960000
  44.0205535 -20.8525164  34.2797845  43.2790414 -19.5248426  33.3553520
  43.0280000 -19.4230000  35.4160000  42.1945746 -19.5441992  35.9735053
  43.9860000 -18.6270000  35.8740000  45.1240000 -18.5070000  35.2130000
  45.2637832 -19.0234928  34.3563812  45.8487076 -17.8993502  35.5674858
  43.7720000 -17.8890000  36.9420000  42.8780672 -17.9309351  37.4102155
  44.5026475 -17.2839640  37.2886761  39.1300000 -22.1890000  34.1380000
  39.4950000 -23.3260000  33.9000000  38.3180000 -21.9140000  35.1410000
  38.0446659 -20.9594916  35.3262066  37.8580000 -22.9650000  36.0670000
  38.7201409 -23.5007120  36.4642718  37.0730000 -22.3700000  37.2340000
  36.2874208 -21.7446820  36.8098043  36.6220459 -23.2004989  37.7771500
  37.9130000 -21.5490000  38.1790000  38.8723129 -22.0637598  38.2323104
  38.0666991 -20.5315431  37.8194723  37.3200000 -21.4860000  39.5700000
  36.8280000 -22.4970000  40.0840000  37.2870000 -20.2770000  40.1360000
  36.9033345 -20.1674525  41.0638478  37.6458581 -19.4776365  39.6336653
  37.0320000 -23.9970000  35.3010000  37.1680000 -25.2080000  35.5690000
  36.1270000 -23.5390000  34.4450000  35.9125916 -22.5524938  34.4144408
  35.2860000 -24.4620000  33.6600000  34.8804957 -25.2467499  34.2986181
  34.1460000 -23.7180000  32.9870000  34.5416996 -22.9091578  32.3727553
  33.3880000 -24.6860000  32.1150000  32.9915777 -25.4949377  32.7286528
  32.5651712 -24.1661680  31.6242575  34.0583272 -25.0978958  31.3606111
  33.2290000 -23.0820000  34.0300000  32.6911086 -23.8905923  34.5249264
  33.8653902 -22.5731205  34.7539812  32.2560000 -22.1160000  33.4620000
  31.6189096 -22.6242917  32.7382216  31.6402547 -21.7063906  34.2627353
  32.7931917 -21.3068207  32.9672741  36.1550000 -25.3000000  32.7160000
  35.9130000 -26.5270000  32.6040000  37.1370000 -24.6910000  32.0500000
  37.2720023 -23.6908729  32.0902441  38.0410000 -25.4870000  31.1900000
  37.4814920 -25.9900770  30.4013533  39.0410000 -24.5510000  30.5510000
  38.4053761 -23.9277641  29.9219861  39.5091088 -23.9340097  31.3180053
  40.1200000 -25.2020000  29.6950000  40.6967161 -25.8860161  30.3175925
  39.5070000 -25.9650000  28.5430000  38.9304673 -25.2815153  27.9196561
  40.2975157 -26.4206326  27.9466908  38.8503690 -26.7438138  28.9307953
  41.1230000 -24.1540000  29.2240000  41.5902348 -23.6829766  30.0888283
  41.8889120 -24.6319908  28.6132588  40.6076895 -23.3969897  28.6328237
  38.7280000 -26.5480000  32.0420000  38.8870000 -27.6800000  31.5460000
  39.2190000 -26.1800000  33.2250000  39.2311116 -25.2147460  33.5220477
  39.8350000 -27.2000000  34.1160000  40.7123029 -27.6209658  33.6248517
  40.2640000 -26.6010000  35.4490000  39.3865037 -26.1328400  35.8950108
  40.5995944 -27.4212473  36.0835635  41.3780000 -25.5710000  35.3200000
  42.3155093 -25.9681617  34.9308475  40.9080443 -24.9429984  34.5631283
  41.6550000 -24.7470000  36.5570000  41.0330000 -24.9830000  37.5930000
  42.6460000 -24.0090000  36.5230000  38.8620000 -28.3540000  34.3370000
  39.2790000 -29.5240000  34.2520000  37.6050000 -28.0700000  34.6350000
  37.3611525 -27.1025572  34.7921373  36.5850000 -29.1070000  34.9200000
  36.9918115 -29.8167829  35.6402859  35.3220000 -28.5170000  35.4870000
  34.7733163 -29.3217398  35.9763254  35.6104873 -27.7716204  36.2281372
  34.5040000 -27.9170000  34.5130000  33.7172383 -27.5600923  34.9315961
  36.3560000 -29.9910000  33.6940000  36.1910000 -31.2260000  33.8400000
  36.3540000 -29.4090000  32.5040000  36.3740695 -28.4012345  32.4399280
  36.1930000 -30.1940000  31.2470000  35.3972183 -30.9370139  31.2995445
  35.9120000 -29.2220000  30.0840000  36.6443079 -28.4153143  30.1169184
  36.0040000 -29.9340000  28.7470000  35.2716208 -30.7405826  28.7131510
  35.8016180 -29.2262002  27.9431582  37.0049343 -30.3473477  28.6230103
  34.5400000 -28.5570000  30.3040000  33.7860997 -29.3343983  30.1799557
  34.5227969 -28.1956778  31.3322266  34.2420000 -27.4110000  29.3620000
  34.2585711 -27.7716735  28.3335352  33.2571847 -27.0016503  29.5871020
  34.9952703 -26.6329537  29.4858046  37.4030000 -31.0880000  31.0300000
  37.2110000 -32.2640000  30.6630000  38.6240000 -30.5610000  31.1190000
  38.7588515 -29.5747080  31.2897118  39.8260000 -31.4150000  30.9360000
  39.8262035 -31.8310916  29.9285443  41.1040000 -30.6130000  31.1310000
  41.0571227 -29.7311316  30.4920870  41.1590318 -30.3025681  32.1744096
  42.3290000 -31.4220000  30.7820000  42.3271664 -32.2154932  31.5293059
  42.1829986 -31.8551880  29.7924895  43.6570000 -30.6930000  30.8230000
  43.6580000 -29.4690000  31.0690000  44.6720000 -31.3630000  30.5420000
  39.7450000 -32.5690000  31.9610000  40.0940000 -33.7080000  31.6050000
  39.3020000 -32.2940000  33.1810000  39.0487958 -31.3423484  33.4053794
  39.2400000 -33.3110000  34.2590000  40.2125979 -33.7877249  34.3810079
  38.8590000 -32.6550000  35.5600000  39.5055685 -31.7910970  35.7140131
  37.8226102 -32.3246616  35.4901944  38.9960000 -33.5410000  36.6420000
  38.7464673 -33.0947766  37.4545380  38.2670000 -34.4350000  33.8810000
  38.6600000 -35.6140000  33.9650000  37.0690000 -34.0950000  33.4560000
  36.7366435 -33.1413929  33.4724942  36.0980000 -35.1760000  33.1250000
  36.1510217 -35.9677239  33.8723026  34.6640000 -34.6800000  33.0130000
  34.4010060 -34.1852266  33.9479512  34.4850000 -33.7090000  31.8590000
  34.7473790 -34.2032324  30.9235898  33.4463379 -33.3810785  31.8171755
  35.1326334 -32.8448151  32.0068332  33.7130000 -35.8660000  32.8630000
  33.9845174 -36.3936858  31.9487097  33.8656747 -36.5223797  33.7197121
  32.2760000 -35.4610000  32.7960000  32.1224464 -34.8049328  31.9392054
  31.6523848 -36.3486336  32.6896520  32.0036044 -34.9336244  33.7102075
  36.6070000 -35.9330000  31.9060000  36.6120000 -37.1920000  31.9360000
  37.1900000 -35.2530000  30.9300000  37.2030586 -34.2430958  30.9347151
  37.7730000 -35.9620000  29.7550000  37.0078796 -36.5758546  29.2797395
  38.3020000 -34.9650000  28.7320000  38.9590129 -34.2538796  29.2327405
  38.8424497 -35.4466406  27.9171157  37.2170000 -34.1740000  28.1110000
  37.5010000 -33.1480000  27.2310000  36.3600000 -32.6280000  26.8280000
  36.3788444 -31.7750024  26.1496646  35.3410000 -33.2930000  27.3660000
  34.3531583 -33.1434325  27.2180198  35.8820000 -34.2610000  28.1940000
  35.2262051 -34.9194806  28.7635942  38.8630000 -36.9180000  30.2140000
  38.9840000 -37.9980000  29.6490000  39.6500000 -36.5020000  31.2090000
  39.4806684 -35.5982061  31.6268309  40.8380000 -37.2660000  31.6480000
  41.4259571 -37.5515663  30.7757285  41.7070000 -36.4510000  32.5680000
  42.7018289 -36.8960032  32.5876671  41.7709903 -35.4366686  32.1741255
  41.1890000 -36.4150000  33.8610000  41.7642130 -35.8892305  34.4216213
  40.4410000 -38.5970000  32.2820000  41.3040000 -39.5010000  32.2950000
  39.2110000 -38.7400000  32.7480000  38.5989946 -37.9388858  32.8093584
  38.7390000 -40.0340000  33.3140000  39.5239127 -40.7828109  33.4202703
  38.0530000 -39.8450000  34.6760000  37.7109421 -40.8176784  35.0295426
  39.0070000 -39.2390000  35.7000000  39.3491463 -38.2660298  35.3473447
  38.4902149 -39.1186286  36.6521262  39.8644431 -39.8986130  35.8334306
  36.7720000 -39.0540000  34.5960000  36.0668906 -39.5684294  33.9430949
  36.3405353 -38.9584633  35.5923988  36.9811258 -38.0624199  34.1945822
  37.8480000 -40.7620000  32.3080000  37.2190000 -41.7730000  32.7020000
  37.7950000 -40.2840000  31.0550000  38.1814500 -39.3701832  30.8660698
  37.1980000 -41.0320000  29.9400000  37.7655858 -40.8045964  29.0376513
  37.2817130 -42.0956850  30.1628581  35.7290000 -40.6880000  29.7030000
  35.0240000 -41.5070000  29.0460000  35.2420000 -39.5620000  30.1970000
  35.8018447 -38.9421240  30.7648265  33.8140000 -39.2160000  29.9740000
  33.3680940 -39.9601107  29.3140255  33.0160000 -39.1810000  31.2830000
  33.6573180 -38.6448208  31.9825158  32.0549344 -38.6721426  31.2087233
  32.7430000 -40.5310000  31.8960000  33.6950000 -41.1680000  32.6710000
  34.6386696 -40.6631617  32.8777022  33.4580000 -42.4440000  33.1870000
  34.2056909 -42.9300273  33.8137667  32.2770000 -43.0870000  32.9020000
  32.0933269 -44.0949107  33.2741293  31.3190000 -42.4470000  32.1380000
  30.3526372 -42.9224336  31.9700537  31.5840000 -41.2080000  31.5880000
  30.8711434 -40.7533244  30.9001007  33.7370000 -37.8790000  29.2640000
  34.5300000 -36.9160000  29.5650000  32.7280000 -37.7720000  28.4190000
  32.1962292 -38.6013540  28.1965342  32.3020000 -36.4940000  27.8340000
  33.1387756 -35.7957858  27.8139336  31.8100000 -36.7100000  26.3990000
  30.9542507 -37.3750846  26.5149954  31.4743890 -35.7534177  25.9984810
  32.8070000 -37.3330000  25.4470000  33.1191902 -38.2952281  25.8529005
  32.2040000 -37.5370000  24.0710000  31.8919720 -36.5750873  23.6642307
  32.9463984 -37.9862514  23.4113648  31.3394888 -38.1965343  24.1467313
  34.0610000 -36.4630000  25.3670000  34.5108859 -36.3812921  26.3564574
  34.7753534 -36.9166499  24.6799758  33.7923769 -35.4696971  25.0074308
  31.1350000 -36.0020000  28.6610000  30.2880000 -36.8420000  29.1310000
  31.0120000 -34.6980000  28.8060000  31.7103764 -34.0806231  28.4171356
  29.9320000 -34.1100000  29.6070000  29.6950938 -34.7702107  30.4413239
  30.3420000 -32.7550000  30.1610000  31.2370804 -32.9227870  30.7599806
  30.5314206 -31.9592125  29.4406236  29.2950000 -32.2470000  31.0920000
  28.1150000 -31.7020000  30.6560000  27.3750000 -31.3990000  31.7220000
  26.4188997 -30.8850899  31.6226642  28.0430000 -31.8440000  32.8280000
  27.7108211 -31.8235261  33.7815921  29.2290000 -32.3200000  32.4400000
  29.9415176 -32.6791526  33.1825829  28.6630000 -34.0330000  28.7640000
  27.5730000 -34.5380000  29.1830000  28.7880000 -33.3960000  27.6010000
  29.6277320 -32.8507710  27.4680531  27.7340000 -33.3380000  26.5490000
  28.1769462 -32.9207821  25.6446621  27.1320000 -34.6970000  26.2140000
  26.6245730 -35.0700075  27.1036530  26.4052218 -34.5563181  25.4139362
  28.1930000 -35.7110000  25.7680000  28.9030806 -35.1727174  25.1401957
  28.6974042 -36.0603241  26.6689168  27.6490000 -36.8870000  25.0120000
  27.1521058 -36.5444936  24.1043192  28.4615382 -37.5637097  24.7475288
  26.6780000 -37.6170000  25.8320000  26.6408165 -37.3465096  26.8043948
  25.8740000 -38.5670000  25.4150000  25.0100000 -39.1250000  26.2690000
  24.9807532 -38.8128540  27.2291091  24.3904416 -39.8561681  25.9501893
  25.9070000 -38.9780000  24.1600000  26.5574492 -38.5582397  23.5112957
  25.2816285 -39.7100968  23.8549696  26.6210000 -32.3440000  26.8890000
  25.7050000 -32.2370000  25.9990000  26.6790000 -31.6790000  28.0420000
  27.4375967 -31.8495533  28.6866254  25.5870000 -30.7690000  28.4660000
  25.0316831 -30.3856933  27.6099636  24.6310000 -31.5910000  29.3430000
  24.3723396 -32.5190415  28.8331638  25.3193071 -31.8057840  30.1604358
  23.3660000 -30.9480000  29.9000000  22.6800000 -30.2890000  29.1080000
  22.9790000 -31.2600000  31.1590000  26.1920000 -29.5420000  29.1380000
  25.6490000 -29.0840000  30.1590000  27.2850000 -29.0050000  28.6260000
  27.7182416 -29.4456825  27.8271258  27.9620000 -27.8270000  29.2360000
  28.0400633 -27.8753651  30.3221244  29.3480000 -27.6280000  28.6360000
  29.2713594 -27.6498187  27.5489165  29.9250000 -26.3030000  29.0730000
  30.0023823 -26.2806090  30.1600194  30.9154297 -26.1755959  28.6360585
  29.2743434 -25.4948554  28.7388630  30.3080000 -28.8130000  28.9310000
  29.8173442 -29.7265876  28.5952689  31.2163317 -28.6543543  28.3497388
  30.6580000 -28.9390000  30.3750000  29.7501566 -29.0981404  30.9568887
  31.3309077 -29.7851862  30.5137926  31.1491423 -28.0259055  30.7113592
  27.0370000 -26.6070000  29.0490000  26.7020000 -26.2810000  27.9320000
  26.6130000 -25.9860000  30.1390000  26.9014270 -26.3521505  31.0350151
  25.6980000 -24.8310000  30.1180000  26.0385907 -24.1215273  29.3638477
  24.2660000 -25.2410000  29.7900000  23.6616285 -24.3339778  29.7779584
  24.2737070 -25.6850861  28.7945965  23.6690000 -26.2400000  30.7910000
  24.2882018 -27.1370375  30.7872877  23.6942276 -25.7858266  31.7815514
  22.2510000 -26.6080000  30.4440000  21.6429198 -25.7034047  30.4372989
  22.2363831 -27.0623407  29.4533132  21.6920000 -27.5820000  31.4520000
  22.2202258 -28.5281081  31.3338582  21.8828987 -27.1817608  32.4477236
  20.2380000 -27.8040000  31.2800000  20.0609375 -28.1752749  30.3575557
  19.9131365 -28.4606169  31.9752826  19.7483103 -26.9275103  31.3898583
  25.8290000 -24.1980000  31.4910000  26.2210000 -24.8590000  32.4460000
  25.4340000 -22.9320000  31.6520000  25.0200000 -22.0180000  30.5710000
  23.9756326 -22.2036004  30.3201027  25.6407515 -22.1921014  29.6921056
  25.2410000 -20.6320000  31.1750000  24.4767211 -19.9401285  30.8210358
  26.2264803 -20.2546649  30.9019650  25.1420000 -20.8460000  32.6490000
  24.0955600 -20.8056012  32.9513744  25.7107924 -20.1048922  33.2105461
  25.7040000 -22.2410000  32.9100000  26.7837540 -22.2489099  33.0588859
  25.0160000 -22.8760000  34.1260000  25.5590000 -22.8320000  35.2450000
  23.8230000 -23.4370000  33.9550000  23.3657922 -23.4063630  33.0549324
  23.0680000 -24.0010000  35.1140000  23.2022802 -23.3350576  35.9664017
  21.6280000 -24.1520000  34.8580000  21.1466391 -24.5197832  35.7641603
  21.2135429 -23.1783523  34.5965894  21.3940000 -25.0760000  33.7830000
  20.4495151 -25.1596148  33.6328113  23.6560000 -25.3200000  35.6170000
  23.2900000 -25.7640000  36.6870000  24.6960000 -25.8410000  34.9590000
  24.9531319 -25.4709241  34.0551049  25.4150000 -27.0300000  35.4590000
  24.7920974 -27.5428256  36.1918720  25.7450000 -27.9990000  34.3410000
  26.0359946 -27.4516351  33.4444438  26.5789216 -28.6156518  34.6762839
  24.5890000 -28.8980000  34.0010000  23.7350000 -29.1900000  34.8650000
  24.5100000 -29.3290000  32.7450000  23.7507150 -29.9352214  32.4691708
  25.2096660 -29.0480391  32.0729663  26.6700000 -26.6260000  36.2500000
  27.4920000 -27.5070000  36.5420000  26.7850000 -25.3670000  36.6440000
  26.0428890 -24.7279556  36.3970327  27.9390000 -24.8410000  37.4140000
  28.4819361 -25.6730657  37.8623150  28.8970000 -24.0580000  36.5220000
  28.4096714 -23.2438872  35.9855017  29.6981898 -23.6556444  37.1419233
  29.5480000 -24.9220000  35.4890000  30.7110000 -25.6370000  35.7670000
  31.1918679 -25.5130047  36.7373047  31.2530000 -26.4910000  34.8350000
  32.1508017 -27.0622530  35.0710570  30.6580000 -26.6230000  33.6010000
  31.0492763 -27.3268286  32.8664062  29.5570000 -25.8540000  33.2990000
  29.1594142 -25.8805554  32.2844456  28.9590000 -25.0610000  34.2520000
  28.0246292 -24.5474286  34.0255145  27.4450000 -23.9100000  38.5360000
  26.4760000 -23.1760000  38.3680000  28.0430000 -24.0400000  39.6860000
  28.7042904 -24.7921122  39.8168492  27.7490000 -23.1520000  40.8400000
  27.3697421 -22.2037062  40.4592093  26.7210000 -23.7410000  41.7810000
  27.0903956 -24.6866874  42.1776388  26.5411213 -23.0482708  42.6031133
  25.7898381 -23.9129739  41.2411281  29.0270000 -22.8660000  41.5900000
  29.9140000 -23.7190000  41.6080000  29.0330000 -21.7350000  42.2750000
  28.2947918 -21.0636411  42.1187140  30.0900000 -21.3930000  43.2200000
  31.0483429 -21.7308623  42.8256308  30.1650000 -19.8660000  43.4610000
  29.2752997 -19.5888526  44.0264395  31.0520032 -19.6825760  44.0673670
  30.2380000 -19.0350000  42.1950000  29.2787270 -19.1383379  41.6878338
  30.3773659 -17.9978104  42.4998229  31.5670000 -19.5050000  41.0570000
  33.0330000 -19.0900000  41.9900000  33.0474825 -19.6613789  42.9181247
  33.9187227 -19.3305333  41.4020037  33.0284792 -18.0245317  42.2199088
  29.8110000 -22.1360000  44.5150000  28.6480000 -22.5000000  44.8010000
  30.8550000 -22.3470000  45.3060000  31.7921560 -22.1039911  45.0182768
  30.6670000 -22.9480000  46.6380000  30.1273450 -23.8876198  46.5197364
  31.6483805 -23.1450646  47.0694594  29.8800000 -22.0370000  47.5850000
  29.6710000 -20.8110000  47.2840000  29.4710000 -22.5780000  48.7350000
  29.6722470 -23.5424342  48.9574088  28.5830000 -21.8180000  49.6450000
  28.3586174 -20.8421361  49.2143711  27.2640000 -22.5750000  49.8590000
  26.5597833 -21.8649422  50.2925850  26.9117798 -22.8794515  48.8734290
  27.3700000 -23.7930000  50.7560000  28.1068789 -24.4750158  50.3317773
  27.7001421 -23.4707148  51.7435427  26.0270000 -24.5070000  50.8770000
  25.2858443 -23.8953968  51.3915181  25.6371150 -24.8080941  49.9046670
  26.2730000 -25.6830000  51.6570000  26.8133238 -26.3834522  51.1696436
  25.8730000 -25.9410000  52.9070000  26.2550000 -27.0850000  53.4850000
  26.8360368 -27.7352575  52.9754302  25.9606929 -27.2934352  54.4284181
  25.1160000 -25.0910000  53.5470000  24.8309182 -24.2337470  53.0953964
  24.8191136 -25.2947849  54.4906254  29.2680000 -21.4540000  50.9550000
  28.5910000 -20.8360000  51.8120000  30.5550000 -21.7170000  51.1180000
  31.0147805 -22.2228263  50.3744672  31.3410000 -21.3710000  52.3200000
  30.7047495 -20.8895817  53.0626445  31.9240000 -22.6410000  52.9280000
  32.4475572 -23.2953911  52.2310356  32.6172543 -22.3017963  53.6977008
  30.8910000 -23.4890000  53.6220000  30.4580000 -23.1450000  54.8850000
  30.8911035 -22.2715137  55.3723839  29.4900000 -23.8890000  55.5330000
  29.1881034 -23.6141837  56.5436607  28.9110000 -24.9650000  54.9140000
  28.1329559 -25.5402398  55.4158430  29.3160000 -25.3150000  53.6580000
  28.9023056 -26.2005193  53.1754933  30.2580000 -24.5390000  52.9950000
  30.5096693 -24.7559824  51.9568858  32.4360000 -20.3810000  51.9540000
  32.8680000 -20.3400000  50.8080000  33.0490000 -19.7080000  52.9550000
  32.5970000 -19.6360000  54.3670000  32.9261811 -20.5203210  54.9126340
  31.5100940 -19.5664848  54.4106107  33.2780000 -18.3670000  54.8480000
  33.4970122 -18.4413139  55.9131808  32.6332201 -17.5065120  54.6693365
  34.5580000 -18.2700000  54.0210000  35.3048881 -18.9407998  54.4455995
  34.9761247 -17.2667213  53.9391268  34.1350000 -18.7700000  52.6470000
  33.7377070 -17.9555068  52.0413125  35.2640000 -19.4810000  51.8740000
  35.8690000 -18.9010000  50.9370000  35.5570000 -20.7270000  52.2590000
  35.0462894 -21.1360646  53.0283764  36.6770000 -21.5010000  51.6670000
  37.5231243 -20.8419604  51.4724760  37.1150000 -22.5750000  52.6090000
  38.0113607 -23.0577531  52.2196592  37.3324098 -22.1382371  53.5837159
  36.0970000 -23.5210000  52.7400000  36.3776889 -24.2113989  53.3451140
  36.3220000 -22.0750000  50.2910000  37.2280000 -22.5880000  49.6360000
  35.0520000 -22.0650000  49.8690000  34.3414611 -21.6632535  50.4638391
  34.6280000 -22.6930000  48.5900000  35.5043117 -23.0150363  48.0274436
  33.7220000 -23.8980000  48.8120000  33.4620236 -24.3247612  47.8432960
  34.4140000 -24.9450000  49.6540000  34.6738865 -24.5190826  50.6230991
  33.7470312 -25.7949523  49.7983358  35.3208868 -25.2771678  49.1487065
  32.5130000 -23.4660000  49.4650000  31.9385023 -24.2218629  49.6072109
  33.9310000 -21.7010000  47.6620000  33.7070000 -22.0700000  46.5170000
  33.5730000 -20.5180000  48.1240000  33.8326926 -20.2146565  49.0517079
  32.6920000 -19.6380000  47.3170000  31.9337420 -20.2430068  46.8198977
  31.9940000 -18.6030000  48.1890000  31.2786710 -18.0303458  47.5986859
  31.4753451 -19.0905298  49.0144768  33.1050000 -17.3940000  48.9400000
  32.1581833 -16.7142166  49.5805707  33.4680000 -18.9610000  46.1850000
  32.8060000 -18.3820000  45.3140000  34.7900000 -19.1310000  46.0960000
  35.2923387 -19.5383252  46.8717844  35.5680000 -18.6260000  44.9450000
  34.9473030 -17.9479673  44.3592475  36.8060000 -17.8790000  45.3990000
  37.5164187 -18.6149014  45.7756345  37.2288245 -17.3795690  44.5272844
  36.5210000 -16.8570000  46.4760000  35.6848980 -16.2402466  46.1463797
  36.2423977 -17.3900754  47.3850178  37.7280000 -15.9680000  46.7580000
  37.4964381 -15.3352348  47.6147883  38.5774704 -16.6073730  46.9982116
  38.0890000 -15.1150000  45.6310000  38.8470516 -15.4345399  45.0450380
  37.4350000 -14.0070000  45.2780000  37.8100000 -13.3230000  44.2040000
  38.5933842 -13.6436017  43.6529793  37.3102258 -12.4850961  43.9427675
  36.3520000 -13.6400000  45.9430000  36.0238413 -14.2005891  46.7164028
  35.8582567 -12.8008922  45.6742727  35.8890000 -19.7830000  43.9820000
  36.5600000 -19.5320000  42.9810000  35.3800000 -20.9750000  44.2640000
  34.8499752 -21.0382412  45.1214227  35.5690000 -22.2010000  43.4670000
  36.3607815 -22.0248068  42.7388948  35.9510000 -23.4090000  44.3210000
  36.8026964 -23.1080673  44.9310426  35.0990816 -23.6214330  44.9669159
  36.3130000 -24.6660000  43.5240000  36.3490085 -25.4860230  44.2411935
  35.4951252 -24.8327351  42.8230134  37.6490000 -24.6000000  42.7500000
  37.7222874 -25.4883466  42.1226498  37.6326975 -23.7109616  42.1195681
  38.8470000 -24.5380000  43.6810000  38.7710842 -23.6396819  44.2936678
  38.8391609 -25.4177575  44.3244784  40.1110000 -24.5030000  42.9080000
  40.1186526 -23.6876391  42.3119901  40.8939605 -24.4619913  43.5447033
  40.1817435 -25.3355182  42.3405426  34.2720000 -22.4690000  42.7010000
  33.1740000 -22.4260000  43.3120000  34.3810000 -22.7150000  41.4140000
  35.2880714 -22.5890668  40.9880169  33.2610000 -23.1190000  40.5580000
  32.3059106 -22.7988871  40.9744508  33.4560000 -22.4410000  39.2160000
  33.5786240 -21.3653847  39.3429419  34.3276009 -22.8474877  38.7029896
  32.0730000 -22.6550000  38.0930000  32.5985475 -21.9565754  37.0905524
  33.2220000 -24.6480000  40.4280000  34.2600000 -25.2510000  40.1740000
  32.0650000 -25.2290000  40.6430000  31.2765110 -24.6268873  40.8323271
  31.8450000 -26.6850000  40.6330000  32.7966782 -27.2070367  40.5335745
  31.1880000 -27.1170000  41.9320000  30.2787876 -26.5293578  42.0589203
  30.9277742 -28.1705430  41.8298741  32.0700000 -26.9350000  43.1270000
  32.1070000 -25.7280000  43.8050000  31.4655894 -24.9210778  43.4506436
  32.9200000 -25.5310000  44.8940000  32.9484183 -24.5533278  45.3750938
  33.7350000 -26.5390000  45.3410000  34.4980000 -26.3090000  46.4760000
  34.3688435 -25.4315138  46.8433366  33.7220000 -27.7600000  44.6820000
  34.3811813 -28.5617047  45.0149415  32.8670000 -27.9640000  43.5940000
  32.8258953 -28.9390277  43.1084782  30.9450000 -27.0840000  39.4650000
  29.9050000 -26.4820000  39.2510000  31.3690000 -28.1330000  38.7630000
  32.3287736 -28.4151905  38.9019335  30.5540000 -28.8810000  37.7850000
  30.0127451 -28.1890966  37.1397001  31.4640000 -29.7560000  36.9120000
  32.2070101 -29.0975374  36.4620420  31.9608844 -30.4640986  37.5751759
  30.7290000 -30.5180000  35.8140000  29.9960296 -31.1895035  36.2611445
  30.2212238 -29.8133794  35.1553839  31.9120000 -31.4870000  34.8490000
  32.3810000 -30.2810000  33.6090000  32.8193524 -29.4099603  34.0960689
  33.1104096 -30.7223014  32.9297981  31.4988821 -29.9762178  33.0459041
  29.5580000 -29.7160000  38.5720000  29.9820000 -30.5040000  39.4080000
  28.2640000 -29.4760000  38.3830000  27.9758830 -28.9662215  37.5600700
  27.2160000 -29.9330000  39.3310000  27.6373931 -30.0704003  40.3268154
  26.1230000 -28.8870000  39.4080000  25.8235400 -28.7659376  38.3669588
  25.2907864 -29.2980282  39.9794686  26.5120000 -27.5400000  39.9810000
  27.3275783 -27.1100999  39.3995201  25.3090000 -26.6230000  39.9170000
  24.4931044 -27.0520377  40.4986699  25.5726833 -25.6477813  40.3262926
  24.9938826 -26.5080506  38.8798944  27.0470000 -27.6820000  41.4030000
  27.9265862 -28.3257429  41.3982330  27.3184679 -26.6996082  41.7894102
  26.2786493 -28.1222268  42.0385600  26.5570000 -31.2470000  38.9260000
  25.9250000 -31.8590000  39.8220000  26.5650000 -31.6420000  37.6460000
  27.1919887 -31.1852042  36.9992217  25.6960000 -32.6970000  37.1380000
  25.4919768 -33.4043115  37.9418558  24.3740000 -32.1550000  36.6210000
  23.9919233 -31.4545827  37.3636521  24.5999688 -31.6189703  35.6992027
  23.3360000 -33.2100000  36.3460000  22.5500000 -33.5790000  37.3130000
  23.2790000 -33.6700000  35.1750000  26.4090000 -33.4160000  36.0080000
  27.1800000 -32.7510000  35.2750000  26.1490000 -34.7010000  35.8710000
  25.4583856 -35.1270095  36.4723875  26.8150000 -35.5510000  34.8510000
  27.2908198 -34.9248385  34.0962706  27.8890000 -36.4220000  35.5130000
  27.3721036 -37.1301493  36.1606433  28.5081210 -36.9670891  34.8004924
  28.8230000 -35.6470000  36.3860000  29.8120000 -34.8580000  35.8420000
  29.9482800 -34.8442500  34.7606404  30.6240000 -34.0920000  36.6480000
  31.3431712 -33.4060786  36.2003335  30.5290000 -34.1910000  38.0090000
  31.1802657 -33.5975349  38.6506790  29.6110000 -35.0400000  38.5640000
  29.5517935 -35.1341976  39.6483070  28.7650000 -35.7730000  37.7620000
  28.0447881 -36.4569245  38.2110456  25.8080000 -36.4680000  34.1970000
  26.2130000 -37.4630000  33.6000000  24.5240000 -36.1290000  34.2770000
  24.2694220 -35.2271467  34.6537624  23.4420000 -37.0330000  33.8300000
  23.4683360 -37.9295400  34.4493720  22.4896889 -36.5219915  33.9716799
  23.5740000 -37.4340000  32.3780000  23.2160000 -38.6020000  32.0020000
  23.9950000 -36.4920000  31.5320000  24.2921979 -35.5848730  31.8619899
  23.9790000 -36.7380000  30.0670000  23.2860229 -37.5399006  29.8123682
  23.5150000 -35.4540000  29.3780000  24.0432454 -34.6701427  29.9207926
  23.8192199 -35.4388150  28.3314248  22.0070000 -35.2130000  29.4740000
  21.7144673 -35.2235241  30.5239594  21.6370000 -33.8770000  28.8600000
  21.9288253 -33.8658893  27.8098508  20.5604158 -33.7259227  28.9390120
  22.1553836 -33.0773526  29.3890963  21.2230000 -36.3380000  28.8570000
  21.4546174 -37.2692445  29.3739492  20.1567451 -36.1295968  28.9451463
  21.4885068 -36.4318335  27.8040041  25.3640000 -37.1750000  29.6000000
  25.5820000 -37.2560000  28.4030000  26.2640000 -37.4770000  30.5230000
  26.0521555 -37.3476112  31.5020198  27.6370000 -37.9050000  30.1500000
  28.0352112 -37.1368820  29.4870356  28.5170000 -37.9930000  31.3670000
  28.1362155 -38.7644208  32.0363378  29.5331764 -38.2450577  31.0637630
  28.5201090 -37.0333724  31.8839182  27.6430000 -39.2080000  29.3750000
  26.6740000 -40.0090000  29.3490000  28.7520000 -39.4250000  28.6590000
  29.4039640 -38.6701617  28.5000616  28.9970000 -40.7190000  27.9810000
  28.4520139 -41.5105265  28.4953687  28.5280000 -40.6690000  26.5240000
  27.4611544 -40.4463926  26.5436382  29.0617144 -39.8457994  26.0490372
  28.7650000 -41.9520000  25.7330000  29.8388190 -42.1283887  25.6705448
  28.2916574 -42.7789973  26.2622676  28.1890000 -41.8510000  24.3380000
  27.1041449 -41.7729766  24.4094197  28.5861124 -40.9573448  23.8565631
  28.5170000 -42.9960000  23.5280000  29.3230201 -42.9313812  22.9228096
  27.8210000 -44.1010000  23.5230000  26.7550000 -44.2120000  24.2910000
  26.4795336 -43.4405934  24.8818892  26.2188433 -45.0679192  24.2848474
  28.2110000 -45.0960000  22.7580000  29.0380626 -44.9958332  22.1870060
  27.6818299 -45.9561744  22.7446640  30.4580000 -41.0840000  28.1330000
  31.3440000 -40.2000000  27.9650000  30.7270000 -42.3650000  28.3530000
  29.9860755 -43.0286358  28.5282648  32.1300000 -42.8540000  28.3730000
  32.7510271 -42.1659581  28.9466051  32.2100000 -44.2360000  29.0170000
  31.7768368 -44.1817524  30.0157623  31.6372153 -44.9377609  28.4107415
  33.6500000 -44.7100000  29.1150000  34.1663456 -44.8428629  28.1642974
  34.1299011 -43.9108459  29.6799334  33.7570000 -45.9840000  29.9010000
  32.8150000 -46.4200000  30.5540000  34.8580000 -46.6680000  29.7090000
  35.0017821 -47.5369000  30.2034097  35.5577429 -46.3231447  29.0674892
  32.6210000 -42.9000000  26.9310000  31.9240000 -43.5130000  26.1370000
  33.7500000 -42.2650000  26.6050000  34.2608556 -41.7548599  27.3113165
  34.2130000 -42.1740000  25.1990000  33.4683407 -42.6459927  24.5580596
  34.4190000 -40.7400000  24.7310000  34.5215843 -40.7341084  23.6458544
  33.5593043 -40.1342220  25.0174550  35.6290000 -40.0520000  25.2790000
  35.6080000 -39.5040000  26.5350000  34.6894064 -39.5620178  27.1188833
  36.7210000 -38.8880000  27.0620000  36.6763632 -38.4846527  28.0736418
  37.8720000 -38.7790000  26.3330000  38.7575446 -38.2888571  26.7375623
  37.8970000 -39.3040000  25.0640000  38.8006755 -39.2189648  24.4604772
  36.7750000 -39.9420000  24.5490000  36.8015298 -40.3651937  23.5448570
  35.4650000 -43.0130000  24.9740000  35.9070000 -43.1040000  23.8450000
  36.0090000 -43.6270000  26.0330000  35.5914114 -43.5185328  26.9462108
  37.2500000 -44.4500000  25.9150000  37.5374627 -44.5605493  24.8694173
  38.4330000 -43.8600000  26.6880000  39.2756918 -44.5438183  26.5861999
  38.8320000 -42.4870000  26.1800000  37.9899025 -41.8024677  26.2819159
  39.6748999 -42.1144701  26.7621000  39.1182257 -42.5563633  25.1305410
  38.0510000 -43.8130000  28.0600000  38.7701683 -43.4469878  28.5800312
  37.0370000 -45.8760000  26.4150000  36.1630000 -46.0840000  27.2360000
  37.9890000 -46.7410000  26.0590000  38.4992162 -46.5450054  25.2096679
  38.3180000 -47.9840000  26.8090000  37.3944571 -48.4699708  27.1236429
  39.1140000 -48.9600000  25.9510000  38.6659262 -49.1418977  24.9741467
  40.0971634 -48.5077809  25.8206634  39.2820000 -50.2870000  26.6610000
  40.4020000 -50.7730000  26.8420000  38.1770000 -50.8310000  27.1500000
  38.2250604 -51.7160070  27.6343063  37.2918430 -50.3581010  27.0361382
  39.1260000 -47.6720000  28.0870000  39.5770000 -46.5000000  28.2660000
  39.3280000 -48.7000000  28.9310000  38.8053476 -49.5368573  28.7151211
  40.1810000 -48.6940000  30.1590000  39.7474141 -48.0259119  30.9031510
  40.2770000 -50.0770000  30.7510000  40.8963375 -50.0341029  31.6469242
  39.2759637 -50.4158727  31.0178176  40.8520000 -50.9850000  29.8210000
  40.9040941 -51.8581182  30.2166647  41.5760000 -48.1420000  29.8440000
  42.1790000 -47.5210000  30.7410000  42.0560000 -48.3660000  28.6130000
  41.4263303 -48.8291038  27.9733514  43.4270000 -48.0420000  28.1410000
  44.1424794 -48.1624357  28.9544394  43.8180000 -48.9830000  27.0040000
  43.4564087 -49.9916635  27.2038724  43.4047349 -48.6300031  26.0591692
  45.6070000 -49.1320000  26.7460000  45.5302679 -49.9881208  25.7310775
  43.5000000 -46.5740000  27.6900000  44.6180000 -46.0220000  27.6640000
  42.3520000 -45.9700000  27.3530000  41.5015754 -46.4982314  27.4865997
  42.2480000 -44.6030000  26.8070000  41.3996015 -44.1064902  27.2779535
  43.1639124 -44.0637948  27.0487881  42.0510000 -44.5940000  25.2920000
  42.0870000 -43.4730000  24.7330000  41.8850000 -45.7710000  24.6470000
  42.0294227 -46.6038526  25.1998091  41.4830000 -45.9320000  23.2070000
  42.2522700 -45.5159306  22.5564548  41.3080000 -47.4250000  22.8700000
  40.5548360 -47.7306253  23.5962482  40.9074912 -47.5379876  21.8625644
  42.5720000 -48.3170000  23.0280000  43.6050000 -47.8210000  23.5480000
  42.5150000 -49.5200000  22.5000000  40.1190000 -45.2140000  22.9830000
  39.1980000 -45.6370000  23.6430000  39.9920000 -44.2380000  22.0580000
  40.8413983 -43.8949027  21.6326694  38.7020000 -43.5480000  21.7270000
  38.1978705 -43.2882252  22.6578436  38.8530000 -42.2720000  20.8760000
  39.5972501 -42.4541392  20.1007475  37.5470000 -41.8940000  20.2370000
  36.8023200 -41.7112410  21.0116946  37.6810056 -40.9904892  19.6421796
  37.2087367 -42.7056184  19.5928299  39.3410000 -41.0660000  21.6680000
  40.3168710 -41.2857244  22.1010117  39.4238020 -40.2046795  21.0051498
  38.6320588 -40.8433024  22.4654390  37.7470000 -44.5660000  21.0760000
  38.1580000 -45.2870000  20.1760000  36.5170000 -44.6790000  21.5570000
  36.2573439 -44.0937517  22.3381290  35.5710000 -45.7110000  21.1160000
  36.0971804 -46.6493430  20.9406554  34.5100000 -45.9400000  22.1880000
  34.0913358 -46.9292954  22.0033001  35.0314488 -45.9396311  23.1451787
  33.4130000 -44.9360000  22.2210000  33.8263524 -43.9275126  22.2349192
  32.7700216 -45.0525577  21.3485923  32.5970000 -45.1680000  23.4880000
  33.2696889 -45.2802721  24.3382844  31.9377178 -44.3165786  23.6569025
  31.7960000 -46.3550000  23.3750000  32.0384680 -46.9764875  22.6166716
  30.7840000 -46.6710000  24.1420000  30.4240000 -45.8970000  25.1670000
  30.9378979 -45.0493448  25.3606225  29.6391700 -46.1621482  25.7447871
  30.1530000 -47.7990000  23.8830000  30.4585000 -48.3802709  23.1156057
  29.3669513 -48.0767747  24.4531468  35.0490000 -45.3130000  19.7400000
  34.9030000 -44.1450000  19.4310000  34.8550000 -46.2970000  18.8390000
  35.3180000 -47.6700000  18.9670000  34.7055733 -48.1863818  19.7061777
  36.3575190 -47.6677016  19.2948628  35.1520000 -48.2450000  17.5640000
  34.8491517 -49.2903148  17.6248195  36.0931009 -48.1710356  17.0190598
  34.0760000 -47.3920000  16.9080000  33.1064441 -47.7958410  17.1995010
  34.1273130 -47.3201203  15.8215839  34.2710000 -46.0190000  17.5280000
  34.9614207 -45.4086652  16.9458411  32.9550000 -45.2710000  17.7010000
  32.0830000 -45.6960000  18.4870000  32.7330000 -44.1800000  16.9540000
  33.6620000 -43.5420000  15.9940000  33.9988990 -44.2829764  15.2690494
  34.5221235 -43.1439292  16.5323551  32.8120000 -42.4410000  15.3570000
  32.3762917 -42.8071217  14.4273699  33.4360926 -41.5721977  15.1477340
  31.7280000 -42.1010000  16.3880000  30.8163430 -41.7999567  15.8719056
  32.0070854 -41.3329316  17.1093057  31.5050000 -43.4260000  17.1010000
  31.3124082 -43.2647004  18.1616550  30.3330000 -44.1860000  16.4810000
  30.4730000 -44.8680000  15.4540000  29.1430000 -43.9130000  16.9980000
  29.0649042 -43.3584110  17.8384947  27.9060000 -44.4020000  16.3670000
  28.0217504 -45.4499748  16.0905043  26.7280000 -44.2790000  17.3330000
  26.7038475 -43.2549169  17.7055181  25.8135793 -44.4842673  16.7764031
  26.8340000 -45.2370000  18.4990000  26.6960553 -46.2538284  18.1313967
  27.8255792 -45.1426359  18.9416829  25.7860000 -44.9330000  19.5430000
  24.8079782 -44.8604820  19.0672757  25.7697991 -45.7303038  20.2860637
  26.0660000 -43.7000000  20.2020000  26.8776105 -43.1764450  19.9065718
  25.2860000 -43.1830000  21.1600000  24.1720000 -43.8120000  21.4970000
  23.9207333 -44.6722515  21.0312400  23.5779365 -43.4290478  22.2184817
  25.6640000 -42.0980000  21.7660000  26.5365109 -41.6582007  21.5102631
  25.0836203 -41.6992802  22.4900723  27.6140000 -43.5690000  15.1200000
  28.0120000 -42.4300000  15.0670000  26.8950000 -44.1480000  14.1650000
  26.6509377 -45.1228889  14.2656211  26.4990000 -43.4510000  12.9230000
  27.3680800 -42.9762490  12.4675764  25.9260000 -44.4420000  11.9470000
  25.0494527 -44.9191485  12.3852856  25.6382425 -43.9258770  11.0310781
  26.6745297 -45.2000538  11.7164421  25.5140000 -42.3340000  13.2510000
  25.5460000 -41.3220000  12.6020000  24.6550000 -42.5630000  14.2370000
  24.7209693 -43.4603010  14.6959098  23.6070000 -41.6080000  14.6990000
  23.7935621 -40.5846464  14.3733602  22.1970000 -42.0260000  14.2290000
  22.0189058 -43.0619600  14.5173895  21.1360000 -41.1310000  14.8660000
  21.3131744 -40.0948645  14.5776712  20.1476673 -41.4387059  14.5245091
  21.1888482 -41.2197597  15.9510947  22.0730000 -42.0350000  12.7140000
  22.7910213 -42.7395817  12.2943429  21.0634792 -42.3353264  12.4333375
  22.2754609 -41.0365535  12.3264241  23.6580000 -41.5810000  16.2190000
  23.6680000 -42.6630000  16.8330000  23.5770000 -40.3870000  16.8070000
  23.5865213 -39.5578209  16.2303973  23.5160000 -40.2200000  18.2700000
  23.1882329 -41.1387744  18.7563349  24.8470000 -39.8330000  18.8280000
  25.1843496 -38.9096022  18.3572221  24.7602537 -39.6810727  19.9038687
  25.5687125 -40.6256148  18.6305361  22.4670000 -39.1590000  18.5670000
  22.6890000 -38.0140000  18.1580000  21.3510000 -39.5850000  19.1380000
  21.2905770 -40.5619753  19.3869332  20.1950000 -38.7160000  19.4300000
  19.9510409 -38.1149304  18.5540442  19.3328609 -39.3238426  19.7044866
  20.5310000 -37.8020000  20.5710000  20.4950000 -38.2940000  21.7150000
  20.7390000 -36.5270000  20.2740000  20.6656703 -36.2835281  19.2965321
  21.0990000 -35.4570000  21.2420000  21.9471577 -35.7781326  21.8466500
  21.4780000 -34.1830000  20.5140000  22.3371403 -34.4708430  19.9080928
  20.7304789 -33.7059951  19.8801400  21.9630000 -33.1290000  21.4770000
  23.0600000 -33.3830000  22.2850000  23.5759174 -34.3387003  22.1924462
  23.5070000 -32.4340000  23.2090000  24.4129157 -32.6139568  23.7878204
  22.7980000 -31.2690000  23.3860000  23.1220298 -30.5423801  24.1310692
  21.6740000 -31.0190000  22.6190000  21.1424190 -30.0742582  22.7329504
  21.2210000 -31.9670000  21.7050000  20.2873020 -31.8028080  21.1670883
  19.9530000 -35.1560000  22.2080000  18.8360000 -34.9590000  21.7360000
  20.2350000 -35.0860000  23.5160000  21.1788702 -35.2711370  23.8241113
  19.1960000 -34.8060000  24.5490000  18.2577359 -34.5854902  24.0399468
  18.9650000 -35.9800000  25.5210000  19.9095687 -36.1230487  26.0458107
  18.2064633 -35.6390701  26.2256197  18.5250000 -37.2980000  24.9010000
  19.2778355 -37.5609782  24.1579104  18.5313214 -38.0378490  25.7014283
  17.1630000 -37.2730000  24.2500000  17.2395060 -36.7088394  23.3205008
  16.8719901 -38.2997743  24.0283085  16.1310000 -36.6640000  25.0830000
  16.0471659 -35.6587031  25.0335098  15.3040000 -37.3350000  25.8950000
  15.3830000 -38.6540000  25.9980000  16.0725489 -39.1590858  25.4599380
  14.7532880 -39.1479761  26.6140763  14.3980000 -36.6760000  26.6000000
  14.3350004 -35.6709863  26.5220347  13.7738865 -37.1812240  27.2126416
  19.5690000 -33.5470000  25.3550000  18.7620000 -33.1740000  26.1500000
  20.6700000 -32.8610000  25.0570000  21.2294113 -33.1876072  24.2820896
  21.1230000 -31.6490000  25.7930000  20.9623574 -31.8388118  26.8542561
  22.1902834 -31.5372573  25.6019002  20.4010000 -30.3370000  25.4010000
  19.2250000 -30.3850000  24.9920000  21.0680000 -29.1790000  25.5760000
  22.0336516 -29.2117356  25.8701849  20.4010000 -27.8610000  25.5050000
  19.3230905 -28.0228355  25.5005783  20.7630000 -27.0070000  26.7250000
  21.8472562 -27.0457799  26.8298085  20.3170000 -25.5650000  26.6340000
  19.2327312 -25.5253953  26.5296341  20.6140331 -25.0344909  27.5386715
  20.7822855 -25.0941931  25.7680030  20.0880000 -27.5890000  27.8340000
  20.2844040 -27.0862508  28.6278948  20.7190000 -27.2280000  24.1580000
  21.9220000 -27.1080000  23.7840000  19.6830000 -26.7850000  23.4680000
  18.7450884 -26.8622418  23.8346808  19.8610000 -26.2410000  22.0930000
  20.3778930 -26.9139607  21.4088621  18.4970000 -25.8900000  21.4960000
  17.8845126 -25.4762229  22.2970911  18.5790000 -24.8910000  20.3540000
  19.1909915 -25.3042908  19.5522781  17.5769817 -24.6863906  19.9769127
  19.0279348 -23.9646744  20.7124413  17.7840000 -27.1670000  21.0660000
  17.6447352 -27.8149878  21.9313434  16.8123262 -26.9156659  20.6408168
  18.3844176 -27.6847091  20.3179513  20.8160000 -25.0360000  22.1710000
  21.7220000 -24.9550000  21.3560000  20.6660000 -24.1620000  23.1620000
  20.0687702 -24.3411312  23.9565615  21.3450000 -22.8550000  23.0780000
  21.0319504 -22.3400365  22.1697535  21.0020000 -21.9830000  24.2730000
  19.9237188 -21.8242067  24.2869137  21.3034320 -22.5061094  25.1805216
  21.7060000 -20.6490000  24.2040000  22.7762279 -20.8161388  24.3255639
  21.5164888 -20.2082402  23.2252670  21.2240000 -19.7220000  25.2680000
  21.1465255 -20.2523171  26.2171367  21.9151481 -18.8859449  25.3748900
  19.9340000 -19.2090000  24.9230000  19.5115067 -19.5263718  24.0622597
  19.2400000 -18.4050000  25.7060000  19.7780000 -17.9990000  26.8480000
  20.7052638 -18.3071679  27.1035669  19.2580256 -17.3834742  27.4569780
  18.0630000 -17.9610000  25.3000000  17.7055912 -18.2394980  24.3973384
  17.5265317 -17.3453032  25.8943214  22.8670000 -23.0370000  22.9770000
  23.5290000 -22.2810000  22.2390000  23.4650000 -23.9580000  23.7530000
  22.8983053 -24.5996558  24.2889424  24.9340000 -24.0530000  23.8730000
  25.3981091 -23.1764302  23.4209742  25.3510000 -24.1230000  25.3470000
  25.1162761 -25.0802350  25.8125160  26.4318755 -24.0231360  25.2478260
  24.8240000 -23.0120000  26.1990000  25.3940000 -21.7490000  26.1760000
  26.2871843 -21.5783900  25.5749897  24.8410000 -20.7090000  26.9060000
  25.3253958 -19.7325845  26.8973278  23.6970000 -20.9040000  27.6490000
  23.1110000 -19.8930000  28.3780000  23.5816733 -19.0591787  28.3086580
  23.1040000 -22.1550000  27.6560000  22.2103221 -22.3390762  28.2522854
  23.6520000 -23.1730000  26.9010000  23.1539569 -24.1411200  26.8481153
  25.4400000 -25.2940000  23.1390000  26.6520000 -25.5680000  23.1800000
  24.5630000 -25.9960000  22.4330000  23.5880390 -25.7324165  22.4243852
  24.9640000 -27.2640000  21.7350000  25.5628526 -27.8583073  22.4251257
  23.7410000 -28.0530000  21.3580000  23.1357029 -27.4745785  20.6600430
  24.0425028 -28.9888764  20.8875409  23.1568619 -28.2683803  22.2527029
  25.8700000 -26.9570000  20.5410000  25.6210000 -26.0130000  19.7770000
  26.8660000 -27.7920000  20.2760000  27.1168835 -28.5030680  20.9479665
  27.6830000 -27.6650000  19.0540000  27.9055372 -26.6116022  18.8839131
  28.9760000 -28.4170000  19.1590000  29.7305261 -27.9571440  18.5207821
  29.3262244 -28.4190704  20.1912008  28.7500000 -29.7380000  18.7390000
  29.5678307 -30.2371628  18.7989112  26.8810000 -28.1340000  17.8200000
  25.7930000 -28.7430000  17.9400000  27.3970000 -27.7920000  16.6550000
  28.1690857 -27.1413066  16.6308926  26.8320000 -28.2610000  15.3660000
  25.8096004 -27.9127682  15.2192591  27.7110000 -27.7750000  14.2010000
  28.7439043 -28.0707742  14.3846482  27.2370000 -28.3830000  12.9030000
  26.2042470 -28.0872729  12.7184263  27.8665894 -28.0318716  12.0854263
  27.2974441 -29.4694596  12.9666500  27.7210000 -26.2490000  14.1140000
  26.7920741 -25.9458963  13.6309622  27.7409368 -25.8663977  15.1344497
  28.9110000 -25.6820000  13.3330000  28.8914746 -26.0638172  12.3122482
  28.8489695 -24.5939221  13.3146164  29.8403380 -25.9843209  13.8157348
  26.7010000 -29.7860000  15.4170000  25.6750000 -30.3100000  14.9680000
  27.6720000 -30.5080000  15.9910000  28.5148280 -30.0687771  16.3327945
  27.6190000 -31.9880000  15.9480000  27.4185150 -32.3153737  14.9278376
  28.9370000 -32.5970000  16.4040000  29.2402169 -32.4492778  17.4405023
  28.7742351 -33.6592085  16.2214602  30.0530000 -32.1160000  15.5000000
  29.9150000 -32.1660000  14.2680000  31.0610000 -31.4740000  16.0730000
  31.8267377 -31.1357172  15.5079245  31.0587721 -31.3259982  17.0720952
  26.3820000 -32.4900000  16.6770000  25.7510000 -33.4160000  16.1550000
  26.0160000 -31.9030000  17.8220000  26.6441461 -31.2263922  18.2315529
  24.7770000 -32.2410000  18.5530000  24.7744416 -33.3029627  18.7986173
  24.6890000 -31.4480000  19.8370000  24.6813681 -30.3825998  19.6068604
  23.7728083 -31.7116172  20.3653928  25.5492818 -31.6771834  20.4658795
  23.5640000 -31.9890000  17.6550000  22.6600000 -32.8370000  17.6140000
  23.5020000 -30.8340000  16.9880000  24.2175465 -30.1498092  17.1879388
  22.4120000 -30.4610000  16.0410000  21.4523994 -30.4535531  16.5579240
  22.6730000 -29.0610000  15.4720000  23.7300667 -28.8912216  15.2673430
  22.0986381 -28.9174778  14.5567897  22.2460000 -27.9950000  16.4130000
  20.9160000 -27.6890000  16.5660000  20.7970000 -26.7360000  17.4680000
  19.8163996 -26.3440687  17.7380215  22.0120000 -26.4200000  17.9030000
  22.2306751 -25.7447063  18.6215120  22.9390000 -27.1660000  17.2130000
  24.0035610 -27.0067675  17.3846276  22.2780000 -31.5070000  14.9360000
  21.1310000 -31.7790000  14.5240000  23.3930000 -32.1080000  14.5340000
  24.2616221 -31.8574226  14.9843397  23.4400000 -33.0630000  13.3870000
  22.6037295 -32.8830139  12.7114588  24.7400000 -32.8700000  12.6150000
  25.5701993 -32.9344733  13.3183573  24.8248067 -33.6698088  11.8793277
  24.7790000 -31.5240000  11.9070000  23.8180700 -31.4103218  11.4052116
  24.8733656 -30.7672869  12.6858340  25.8950000 -31.3540000  10.9020000
  25.7083866 -32.0027449  10.0461937  25.9239254 -30.3159167  10.5708718
  27.1840000 -31.6960000  11.4720000  27.1723400 -32.3258569  12.2614579
  28.3620000 -31.2770000  11.0100000  28.4210000 -30.4510000   9.9750000
  27.5682795 -30.1373116   9.5339021  29.3184041 -30.1391116   9.6322302
  29.4730000 -31.6600000  11.6220000  29.4184677 -32.2635997  12.4299565
  30.3693000 -31.3465859  11.2777376  23.2620000 -34.5060000  13.8630000
  23.2840000 -35.3830000  13.0020000  23.0630000 -34.7250000  15.1520000
  23.1269023 -33.9253091  15.7656044  22.8870000 -36.0690000  15.7620000
  22.9282475 -35.9808466  16.8476458  21.5450000 -36.6870000  15.3730000
  21.4779732 -36.6404540  14.2860593  21.4803354 -37.7259294  15.6963332
  20.3780000 -35.9230000  15.9630000  20.2760000 -35.7280000  17.1820000
  19.4560000 -35.5300000  15.1080000  18.6518586 -35.0157328  15.4381297
  19.5575603 -35.7447926  14.1263430  24.1000000 -36.9350000  15.3980000
  23.9370000 -38.1170000  15.0650000  25.2620000 -36.3260000  15.4440000
  25.2619408 -35.3203658  15.5378039  26.5480000 -37.0100000  15.3120000
  26.4125632 -37.9365964  14.7541693  27.5560000 -36.1400000  14.5730000
  27.5916278 -35.1705965  15.0700783  28.5316071 -36.6207332  14.6450168
  27.1930000 -35.9450000  13.1050000  27.3323607 -36.9050281  12.6079833
  26.1398583 -35.6664692  13.0673815  28.0200000 -34.8880000  12.4020000
  27.5707755 -34.7224175  11.4227764  27.9494960 -33.9746215  12.9926507
  29.4280000 -35.2190000  12.2200000  30.0624086 -34.8808661  12.9294297
  29.9380000 -35.8830000  11.1660000  29.1450000 -36.3670000  10.2190000
  28.1456171 -36.2374789  10.2865134  29.5442973 -36.8627787   9.4348669
  31.2390000 -36.1070000  11.0980000  31.8441247 -35.7789145  11.8371103
  31.6218977 -36.6051964  10.3072482  27.0300000 -37.3670000  16.7150000
  26.6660000 -36.6600000  17.7410000  27.8980000 -38.3520000  16.7720000
  28.1027721 -38.9073750  15.9536319  28.5470000 -38.7110000  18.0350000
  27.7848073 -38.9160805  18.7867336  29.4190000 -39.9430000  17.8800000
  28.8554875 -40.6975884  17.3312293  30.3067690 -39.6677870  17.3105932
  29.8340000 -40.5010000  19.2200000  30.6996589 -41.1424650  19.0548998
  30.1102808 -39.6828392  19.8851173  28.7250000 -41.3060000  19.8480000
  28.4870000 -42.4450000  19.3610000  28.0850000 -40.7850000  20.8070000
  29.3550000 -37.5290000  18.5130000  30.1850000 -37.0480000  17.7860000
  29.1120000 -37.0960000  19.7530000  28.4017519 -37.5312294  20.3241588
  29.8170000 -35.9340000  20.2900000  29.9566970 -35.1865531  19.5090345
  29.0000000 -35.3080000  21.4270000  28.6685190 -36.0977268  22.1012042
  29.6316195 -34.6067631  21.9723656  27.7830000 -34.5700000  20.8700000
  28.1066683 -33.6408157  20.4010051  27.2874914 -35.1970966  20.1288366
  26.6340000 -34.1950000  22.1840000  27.5050000 -32.7900000  22.8830000
  27.6061842 -32.0116518  22.1266701  26.9439971 -32.3999344  23.7322498
  28.4945440 -33.1039254  23.2151970  31.2100000 -36.3680000  20.7500000
  31.4060000 -37.4990000  21.1380000  32.1410000 -35.4370000  20.7030000
  31.8858901 -34.5273984  20.3457280  33.5300000 -35.6500000  21.1420000
  33.6080513 -36.6497084  21.5693060  34.1827565 -35.5751992  20.2722798
  33.9700000 -34.6360000  22.1770000  33.1550000 -33.8000000  22.5990000
  35.2590000 -34.6890000  22.5440000  35.8523514 -35.4012487  22.1430821
  35.8390000 -33.7810000  23.5490000  35.3159318 -33.8928096  24.4987354
  37.3010000 -34.1070000  23.7610000  37.7873604 -34.0727836  22.7861246
  37.7184952 -33.3306825  24.4021934  37.5370000 -35.4810000  24.4020000
  37.3907905 -35.3550915  25.4747864  36.7695590 -36.1466005  24.0068894
  38.9260000 -36.0890000  24.1420000  39.6919913 -35.3353067  24.3244905
  39.0828125 -36.9350790  24.8110738  39.0460000 -36.5520000  22.7700000
  38.2890894 -36.2132802  22.1934112  40.0210000 -37.3770000  22.1810000
  40.9780000 -37.8750000  22.8850000  41.0321512 -37.6726088  23.8730311
  41.6696330 -38.4654772  22.4455913  39.9970000 -37.6540000  20.8990000
  39.2665180 -37.2707284  20.3162488  40.7091136 -38.2492534  20.5006706
  35.6420000 -32.3320000  23.0580000  35.3860000 -31.4180000  23.8780000
  35.8140000 -32.0870000  21.7880000  36.0816362 -32.8553044  21.1895198
  35.7550000 -30.7280000  21.2020000  36.3828978 -30.0538891  21.7845960
  36.2480000 -30.7280000  19.7590000  36.1654366 -29.6991116  19.4087555
  37.2783301 -31.0666838  19.6503111  35.4310000 -31.5550000  18.8410000
  35.0820000 -32.8530000  19.1070000  34.3180000 -33.3150000  18.1370000
  33.9166985 -34.3278276  18.1721625  34.1820000 -32.3490000  17.2230000
  33.6937368 -32.4224762  16.3419210  34.8160000 -31.2310000  17.6740000
  34.7596241 -30.3045194  17.1025486  34.3420000 -30.1390000  21.3360000
  34.2370000 -28.9190000  21.4040000  33.2920000 -30.9580000  21.3690000
  33.4358028 -31.9487223  21.2352487  31.9000000 -30.4550000  21.4540000
  31.7723418 -29.6280404  20.7554727  30.9020000 -31.5320000  21.1130000
  30.9364622 -32.4161882  21.7494926  29.9627463 -31.0036375  21.2765101
  30.9990000 -31.9530000  19.6560000  30.9360000 -31.0440000  18.8030000
  31.3000000 -33.1240000  19.3700000  31.6830000 -29.8230000  22.8330000
  30.9570000 -28.8250000  22.9380000  32.3280000 -30.3530000  23.8820000
  32.8326781 -31.2219887  23.7807184  32.2780000 -29.7240000  25.2170000
  31.2354017 -29.5244053  25.4644874  32.8850000 -30.5970000  26.3210000
  33.8632060 -30.9063579  25.9528833  33.0104093 -29.9848186  27.2140881
  32.0630000 -31.8230000  26.6610000  30.8580000 -31.8470000  26.3700000
  32.6430000 -32.7760000  27.2660000  33.0000000 -28.3880000  25.1680000
  32.5490000 -27.4380000  25.8410000  34.0710000 -28.2640000  24.3840000
  34.4246122 -29.0603139  23.8731753  34.8120000 -26.9830000  24.2900000
  34.9212703 -26.5275134  25.2742211  36.2110000 -27.2660000  23.7220000
  36.0080117 -27.7686383  22.7763522  36.7346912 -26.3295218  23.5300202
  37.0770000 -28.1610000  24.5960000  36.4928178 -29.0320112  24.8929369
  38.3440000 -28.6250000  23.8310000  38.9289682 -27.7544982  23.5341199
  38.9460675 -29.2633597  24.4776161  38.0486046 -29.1836779  22.9429004
  37.4530000 -27.4720000  25.9040000  36.5475596 -27.2226038  26.4572437
  38.0714579 -28.1406467  26.5027676  38.0090345 -26.5597247  25.6879480
  34.0450000 -25.9760000  23.4310000  34.1300000 -24.7670000  23.7300000
  33.3030000 -26.3970000  22.3970000  33.4291566 -27.3378340  22.0520141
  32.3580000 -25.5030000  21.6770000  32.8982805 -24.6536255  21.2589578
  31.6750000 -26.2560000  20.5370000  31.5957235 -27.3068308  20.8155122
  30.6857064 -25.8702848  20.2907846  32.4760000 -26.2070000  19.2820000
  33.1880000 -27.2100000  18.6900000  33.1584135 -28.1845006  19.1774147
  33.8140000 -26.7470000  17.5570000  34.2932011 -27.3206465  16.8777390
  33.5660000 -25.4130000  17.4320000  33.9420000 -24.5190000  16.4180000
  34.5571579 -24.8714003  15.5900547  33.4960000 -23.2320000  16.5460000
  33.8296152 -22.4936915  15.8168214  32.6360000 -22.8320000  17.5680000
  32.2472134 -21.8145722  17.6102505  32.2520000 -23.7130000  18.5560000
  31.6255851 -23.3461246  19.3690851  32.6980000 -25.0340000  18.4760000
  31.3540000 -24.9260000  22.6830000  31.0490000 -23.7270000  22.6170000
  30.7730000 -25.7580000  23.5300000  30.9967772 -26.7426741  23.5090217
  29.7330000 -25.2940000  24.4780000  28.9474906 -24.7725336  23.9310566
  29.1130000 -26.4630000  25.2200000  29.9095213 -27.0315592  25.6999933
  28.4369418 -26.0724423  25.9805985  28.4000000 -27.3020000  24.3460000
  28.0196050 -28.0309892  24.8414536  30.3700000 -24.2840000  25.4340000
  29.7410000 -23.2620000  25.7490000  31.6050000 -24.5320000  25.8890000
  32.0646394 -25.4065674  25.6793267  32.3250000 -23.5410000  26.7400000
  31.7512242 -23.3245864  27.6411358  33.6710000 -24.1180000  27.1480000
  33.4367177 -24.8926012  27.8782082  34.1395478 -24.5722084  26.2749263
  34.6240000 -23.1110000  27.7670000  34.8095590 -22.3086276  27.0529501
  34.0180000 -22.5270000  29.0430000  33.8325774 -23.3287720  29.7577580
  34.7104637 -21.8062381  29.4778530  33.0782081 -22.0289511  28.8045908
  35.9560000 -23.7740000  28.0540000  36.3832081 -24.1497703  27.1242746
  36.6360717 -23.0470729  28.4980504  35.8082240 -24.6027481  28.7464145
  32.5070000 -22.2340000  25.9490000  32.2100000 -21.1680000  26.4890000
  32.8840000 -22.2970000  24.6640000  33.0856329 -23.1924219  24.2424990
  33.0780000 -21.0820000  23.8510000  33.8214206 -20.4451369  24.3304062
  33.5580000 -21.4160000  22.4420000  34.4617721 -22.0223800  22.5019869
  32.7903355 -21.9622038  21.8938644  33.9030000 -20.2110000  21.6130000
  35.0420000 -19.4650000  21.8700000  35.7138887 -19.7573059  22.6769838
  35.3280000 -18.3440000  21.0990000  36.2166379 -17.7563833  21.3294994
  34.5140000 -17.9750000  20.0650000  34.7590904 -17.1043326  19.4567493
  33.3850000 -18.7050000  19.7940000  32.7325304 -18.4221806  18.9679269
  33.0740000 -19.8110000  20.5790000  32.1642037 -20.3789145  20.3844653
  31.7570000 -20.2940000  23.8100000  31.7700000 -19.0990000  24.0870000
  30.6170000 -20.9600000  23.5740000  30.6624936 -21.9418774  23.3417365
  29.3030000 -20.2940000  23.5390000  29.3358161 -19.4530593  22.8462945
  28.2280000 -21.2550000  23.0820000  28.3945659 -22.1331082  23.7059239
  27.2356712 -20.8507802  23.2819750  28.3280000 -21.6450000  21.6290000
  28.8610000 -20.7990000  20.6730000  29.2311049 -19.8238308  20.9894915
  28.9310000 -21.1690000  19.3310000  29.4088007 -20.5090191  18.6069602
  28.3540000 -22.3460000  18.9130000  28.3420000 -22.7100000  17.5870000
  28.7688170 -22.0658745  17.0173253  27.8200000 -23.1980000  19.8480000
  27.4187107 -24.1594798  19.5276503  27.7880000 -22.8440000  21.1940000
  27.3331600 -23.5144413  21.9231975  28.9860000 -19.6740000  24.9150000
  28.4840000 -18.5460000  24.9780000  29.2880000 -20.3990000  25.9980000
  29.6280117 -21.3464581  25.9154497  29.0680000 -19.8430000  27.3650000
  28.0213477 -19.5518359  27.4535525  29.3960000 -20.8380000  28.4840000
  30.3911969 -21.2381090  28.2901053  29.4031861 -20.2876601  29.4248371
  28.4670000 -21.9040000  28.5680000  27.4515307 -21.5098681  28.6077855
  28.5695116 -22.5556787  27.7002972  28.8040000 -22.8870000  30.1160000
  28.8280000 -21.6930000  31.3390000  27.8646105 -21.1840344  31.3695578
  29.0204825 -22.1635584  32.3031711  29.6142347 -20.9689537  31.1252406
  29.9010000 -18.5750000  27.5500000  29.3260000 -17.5960000  28.1000000
  31.1710000 -18.5820000  27.1920000  31.5601955 -19.4152545  26.7744918
  32.0680000 -17.4060000  27.3930000  32.0857702 -17.1466378  28.4515436
  33.4870000 -17.6960000  26.9410000  33.3962874 -17.9221364  25.8785816
  34.0341943 -16.7618528  27.0676785  34.2290000 -18.8080000  27.6280000
  33.6045222 -19.6998272  27.6806547  35.4810000 -19.1130000  26.8190000
  36.1062430 -18.2217134  26.7662918  36.0370393 -19.9183950  27.2988541
  35.1979148 -19.4177011  25.8114682  34.5930000 -18.4020000  29.0170000
  33.6869293 -18.1767017  29.5794731  35.1300855 -19.2153924  29.5048865
  35.2282526 -17.5169143  28.9827014  31.5290000 -16.2130000  26.5980000
  31.5070000 -15.1010000  27.0960000  31.1020000 -16.4490000  25.3570000
  31.2056740 -17.3661404  24.9468725  30.5780000 -15.3620000  24.5130000
  31.2240739 -14.4845065  24.4866782  30.3760000 -15.8680000  23.0720000
  29.8171767 -16.8032475  23.1055843  29.6170000 -14.8570000  22.2410000
  30.1754669 -13.9215696  22.2065672  29.4890053 -15.2406126  21.2287949
  28.6388983 -14.6793670  22.6880628  31.7360000 -16.1990000  22.4820000
  32.2152661 -16.9714894  23.0833869  31.6116818 -16.5592114  21.4607790
  32.3583699 -15.3041596  22.4778546  29.3200000 -14.8290000  25.1690000
  29.1390000 -13.5920000  25.2450000  28.4300000 -15.7010000  25.6260000
  28.5318141 -16.6941484  25.4730635  27.2010000 -15.2160000  26.2950000
  26.6868925 -14.5066064  25.6464991  26.2650000 -16.3610000  26.5950000
  26.2597225 -17.0348860  25.7382917  26.6389161 -16.8908556  27.4710935
  24.8660000 -15.8780000  26.8610000  24.9376762 -15.1788016  27.6941176
  24.4861806 -15.3572782  25.9819748  23.9280000 -16.9970000  27.2250000
  24.3120000 -17.7720000  28.1590000  22.8610000 -17.1230000  26.5720000
  27.5360000 -14.4190000  27.5740000  26.8960000 -13.3970000  27.8400000
  28.5360000 -14.8420000  28.3300000  28.9618105 -15.7375387  28.1381794
  29.0060000 -14.0770000  29.5170000  28.1936194 -13.9724138  30.2361653
  30.1620000 -14.8040000  30.1910000  30.8779435 -15.1095122  29.4279886
  30.6432128 -14.1146983  30.8848281  29.8180000 -16.0450000  30.9830000
  28.5270000 -16.4640000  31.1430000  27.7282930 -15.8958185  30.6662015
  28.2240000 -17.5890000  31.8950000  27.1876262 -17.8991825  32.0284796
  29.2200000 -18.3010000  32.4630000  28.9786446 -19.1827744  33.0565668
  30.5190000 -17.9250000  32.2990000  31.3165594 -18.5171786  32.7476911
  30.8270000 -16.7930000  31.5640000  31.8665038 -16.4887508  31.4416717
  29.4010000 -12.6440000  29.1390000  29.0120000 -11.7260000  29.8190000
  30.1700000 -12.4530000  28.0630000  30.4792601 -13.2446386  27.5173207
  30.7320000 -11.1110000  27.7420000  30.8417964 -10.4867376  28.6287584
  32.0870000 -11.1980000  27.0340000  32.4477637 -10.1936461  26.8121394
  33.0640000 -11.8920000  27.9200000  32.7041215 -12.8966549  28.1419389
  34.0294591 -11.9550978  27.4179961  33.1739831 -11.3325395  28.8489830
  32.0440000 -11.8490000  25.7080000  31.3778987 -11.2908462  25.0500673
  33.0458892 -11.8674799  25.2790756  31.6764473 -12.8695210  25.8154373
  29.7250000 -10.2620000  26.9920000  29.6860000  -9.0570000  27.2900000
  28.9160000 -10.8430000  26.0970000  29.0003983 -11.8449224  26.0014611
  27.9730000 -10.1270000  25.2000000  28.2231236  -9.0755155  25.0588701
  27.9350000 -10.8160000  23.8160000  27.6725628 -11.8634270  23.9647371
  26.9350000 -10.1750000  22.8920000  27.1970587  -9.1275996  22.7424048
  26.9430619 -10.6916651  21.9322643  25.9395351 -10.2407895  23.3311161
  29.3250000 -10.8250000  23.1930000  30.0113043 -11.3684026  23.8424629
  29.2840840 -11.3128558  22.2191303  29.6756749  -9.8001891  23.0709735
  26.5770000 -10.0620000  25.8370000  25.8560000  -9.0880000  25.5830000
  26.1920000 -11.0630000  26.6310000  26.8265659 -11.8321185  26.7918798
  24.8810000 -11.0960000  27.2840000  25.0020812 -11.5274368  28.2776301
  24.5157187 -10.0730407  27.3746815  23.8670000 -11.9150000  26.5110000
  22.7730000 -12.1170000  27.0180000  24.1890000 -12.3080000  25.2890000
  25.0854255 -12.0329197  24.9136981  23.2770000 -13.0980000  24.4250000
  22.8319798 -13.8944479  25.0214285  22.1600000 -12.2550000  23.8290000
  21.5568734 -12.9171325  23.2077769  21.5575993 -11.8891172  24.6604705
  22.6330000 -11.0980000  23.0100000  23.4540246 -10.6325352  23.5553091
  22.9896069 -11.4372626  22.0374598  21.5490000 -10.0650000  22.7940000
  20.3600000 -10.2780000  23.0480000  21.9430000  -8.9300000  22.2740000
  21.2706424  -8.1959610  22.1030513  22.9174881  -8.7936872  22.0461994
  24.0790000 -13.7410000  23.3130000  25.2500000 -13.4170000  23.1320000
  23.5070000 -14.7910000  22.7770000  22.6887513 -15.1581305  23.2415251
  24.0090000 -15.4960000  21.5890000  25.0326484 -15.1966502  21.3639827
  23.9910000 -17.0010000  21.8770000  23.0124012 -17.2101324  22.3090964
  24.0993310 -17.5498095  20.9414934  25.0790000 -17.4370000  22.8500000
  25.1200246 -16.7331573  23.6812781  24.7750000 -18.8350000  23.3820000
  24.7342730 -19.5395283  22.5512894  25.5582276 -19.1381810  24.0767925
  23.8151009 -18.8270321  23.8983629  26.4500000 -17.4270000  22.2240000
  26.6877132 -16.4188013  21.8846960  27.1883000 -17.7456898  22.9598336
  26.4669053 -18.1092661  21.3741023  23.1450000 -15.1180000  20.3870000
  21.9870000 -14.7360000  20.5100000  23.6760000 -15.2910000  19.1660000
  25.0400000 -15.7520000  18.9100000  25.0835761 -16.8406246  18.8768663
  25.7251300 -15.3845559  19.6739900  25.2910000 -15.1160000  17.5520000
  26.0435582 -15.6827494  17.0037754  25.6296832 -14.0872521  17.6747715
  23.9520000 -15.1630000  16.8580000  23.7444507 -16.1652603  16.4831712
  23.8641786 -14.4452202  16.0424148  22.9710000 -14.8120000  17.9660000
  22.8259142 -13.7382302  18.0846032  21.6170000 -15.4860000  17.7280000
  20.7740000 -14.9030000  17.1140000  21.4770000 -16.7140000  18.2510000
  22.2936767 -17.0911466  18.7102374  20.2860000 -17.5730000  18.1270000
  19.6277853 -17.1875039  17.3483823  20.6980000 -18.9850000  17.7580000
  19.9070823 -19.7276798  17.8627618  21.0278597 -18.9502601  16.7196909
  21.8600000 -19.4810000  18.5600000  21.8300000 -20.1520000  19.7450000
  20.8448644 -20.3702752  20.1572663  23.1010000 -20.4160000  20.1760000
  23.3375507 -20.8611057  21.0512281  23.9920000 -20.0060000  19.2310000
  25.3750000 -20.1020000  19.1870000  25.9015038 -20.5344317  20.0378203
  25.9990000 -19.6360000  18.0510000  27.0820706 -19.7168026  17.9586472
  25.2760000 -19.0620000  17.0140000  25.7829165 -18.6968585  16.1207997
  23.9140000 -18.9360000  17.0770000  23.4146273 -18.4262341  16.2530665
  23.2350000 -19.4300000  18.1840000  19.4300000 -17.5460000  19.4060000
  18.4670000 -18.3730000  19.4840000  19.5820000 -16.4930000  20.2120000
  20.3161891 -15.8345953  19.9938969  18.7790000 -16.2750000  21.4600000
  19.0060962 -17.0700297  22.1702494  19.0880000 -14.9250000  22.1200000
  20.1265464 -14.9584865  22.4492404  18.9751079 -14.1589300  21.3528676
  18.1890000 -14.5920000  23.3070000  17.1762930 -14.5059009  22.9131570
  18.2435339 -15.4440206  23.9846349  18.5520000 -13.3110000  24.0670000
  18.4313809 -13.4807947  25.1369158  19.5886935 -13.0487191  23.8558726
  17.7100000 -12.2120000  23.6770000  18.1611928 -11.4230780  23.2364021
  16.3920000 -12.1480000  23.9070000  15.7750000 -13.1310000  24.5540000
  16.3029958 -13.9303934  24.8738291  14.7808541 -13.0742751  24.7229848
  15.6910000 -11.1320000  23.4420000  16.1511924 -10.4047714  22.9133588
  14.6972972 -11.0859782  23.6167439  17.2730000 -16.3870000  21.1840000
  16.5810000 -17.0060000  22.0130000  16.7190000 -15.7650000  20.1250000
  17.3109361 -15.3516351  19.4187136  15.2520000 -15.6470000  19.9680000
  14.7680510 -15.6886101  20.9437875  14.9010000 -14.3180000  19.3060000
  15.3034599 -14.3496436  18.2935160  13.8133868 -14.2605286  19.2624718
  15.4450000 -13.0940000  20.0300000  15.1022185 -13.1223569  21.0643102
  16.5340483 -13.1336112  20.0074879  14.9760000 -11.8190000  19.3810000
  15.3124507 -11.8295407  18.3442798  13.8863749 -11.8122653  19.4087716
  15.5030000 -10.5860000  20.0670000  15.7323366 -10.8350125  21.1030975
  16.4140294 -10.2679078  19.5601056  14.5170000  -9.4960000  20.0320000
  13.6728982  -9.7903948  20.5020251  14.8961074  -8.6840277  20.4979170
  14.3046736  -9.2648165  19.0720152  14.6910000 -16.7930000  19.1160000
  13.5040000 -16.8000000  18.9050000  15.5430000 -17.6840000  18.6340000
  16.5226671 -17.5944184  18.8627508  15.1250000 -18.7990000  17.7250000
  14.1978742 -18.5782368  17.1960382  16.2320000 -19.1390000  16.7030000
  17.0892794 -19.5519534  17.2346408  15.7300000 -20.1520000  15.6880000
  14.8729492 -19.7395500  15.1556002  16.5242341 -20.3786076  14.9767041
  15.4321596 -21.0656188  16.2024813  16.7910000 -17.8940000  16.0100000
  17.2292559 -17.2666638  16.7861970  17.5741272 -18.2314649  15.3310826
  15.7790000 -17.1080000  15.2490000  14.9957371 -16.7697776  15.9273839
  16.2594392 -16.2439580  14.7899697  15.3406066 -17.7345799  14.4722705
  14.7900000 -20.0190000  18.6020000  15.6930000 -20.4910000  19.2660000
  13.5360000 -20.4900000  18.5300000  12.9161260 -20.0222837  17.8841695
  12.9890000 -21.6140000  19.3490000  13.5048122 -21.6613063  20.3080616
  11.4950000 -21.4000000  19.6070000  11.0041312 -21.4677326  18.6361450
  11.1712929 -22.2293601  20.2358685  11.1220000 -20.0830000  20.2730000
  11.0141405 -19.3459984  19.4772011  10.1582367 -20.2363683  20.7585312
  12.1200000 -19.5860000  21.2850000  13.1124264 -19.7074355  20.8509007
  11.9213581 -18.5263309  21.4454439  12.0560000 -20.3150000  22.6050000
  11.1536532 -20.0076808  23.1336073  12.0168788 -21.3873350  22.4135151
  13.2430000 -20.0050000  23.4340000  13.2791993 -19.0114521  23.6119099
  13.1802315 -20.5020152  24.3110040  14.0792177 -20.2900820  22.9445439
  13.2100000 -22.9610000  18.6400000  13.6010000 -23.9120000  19.3090000
  13.0850000 -22.9930000  17.3240000  12.9032735 -22.1192910  16.8510229
  13.1710000 -24.2260000  16.5110000  12.5378661 -24.9948871  16.9537791
  12.7130000 -23.9830000  15.0830000  11.7024524 -23.5796779  15.1479932
  13.3641146 -23.2543082  14.6001356  12.6950000 -25.2600000  14.2700000
  11.6900000 -25.9350000  14.3100000  13.6960000 -25.5730000  13.6510000
  14.6080000 -24.7490000  16.4880000  15.5030000 -24.0620000  15.9490000
  14.8100000 -25.9700000  16.9630000  14.0178448 -26.4769250  17.3312614
  16.1470000 -26.5830000  17.0770000  16.7920170 -25.9868719  17.7225104
  15.9920000 -27.9750000  17.6920000  15.6083179 -27.8203239  18.7004456
  15.2407292 -28.4896059  17.0929398  17.2430000 -28.8110000  17.7540000
  17.5255898 -29.0958715  16.7405445  18.0407516 -28.2167690  18.1996277
  17.0190000 -30.0540000  18.5820000  17.4969481 -29.9018858  19.5497427
  15.9446954 -30.1731080  18.7226494  17.5790000 -31.2890000  17.9360000
  17.3245046 -31.2777067  16.8761863  18.6631294 -31.2841209  18.0488667
  17.0230000 -32.5100000  18.5640000  16.0184695 -32.5149279  18.4591479
  17.4123870 -33.3266507  18.1150463  17.2590744 -32.5208715  19.5459622
  16.8550000 -26.5950000  15.7130000  18.1090000 -26.3900000  15.7080000
  16.1340000 -26.9270000  14.6190000  15.1332310 -27.0126871  14.7249168
  16.7320000 -27.1570000  13.2500000  17.6303043 -27.7667081  13.3469768
  15.7500000 -27.8770000  12.3230000  15.3529279 -28.7305620  12.8724224
  14.9419077 -27.1793656  12.1030154  16.3720000 -28.3570000  11.0230000
  16.7713099 -27.5183801  10.4525886  17.1896608 -29.0092498  11.3297577
  15.3930000 -29.1430000  10.1540000  14.7070000 -30.0390000  10.7050000
  15.2580000 -28.8190000   8.9460000  17.1100000 -25.7880000  12.5320000
  18.1110000 -25.7080000  11.9190000  16.3610000 -24.7540000  12.9210000
  15.4806929 -24.9473801  13.3768102  16.7180000 -23.3140000  12.6340000
  16.9547341 -23.1739598  11.5792750  15.5100000 -22.4450000  12.9830000
  14.6145904 -23.0058746  12.7151182  15.5257246 -22.2795232  14.0602512
  15.5020000 -21.1090000  12.2670000  16.3407557 -20.4918623  12.5890728
  15.5958191 -21.3215383  11.2020458  14.2210000 -20.3400000  12.4950000
  13.2580000 -20.8350000  13.0920000  14.2150000 -19.0900000  12.0620000
  13.3895565 -18.5207510  12.1832438  15.0358905 -18.7106678  11.6121698
  18.0060000 -22.9040000  13.4090000  18.9590000 -22.3300000  12.8200000
  18.0820000 -23.1850000  14.6970000  17.2959023 -23.5554034  15.2117339
  19.3180000 -22.8550000  15.4440000  19.5640054 -21.7956378  15.3709773
  19.2370000 -23.2410000  16.9370000  19.0051472 -24.3027409  17.0209626
  20.5640000 -22.9570000  17.6210000  20.7963204 -21.8952965  17.5378499
  20.4971156 -23.2324216  18.6735065  21.3517172 -23.5392917  17.1429418
  18.0870000 -22.5280000  17.6510000  17.1424940 -22.7971925  17.1781937
  18.0669833 -22.8285679  18.6985485  18.2310329 -21.4495347  17.5856711
  20.4950000 -23.5240000  14.7440000  21.5590000 -22.8970000  14.5830000
  20.3940000 -24.8370000  14.5110000  19.5462511 -25.3221037  14.7680904
  21.4790000 -25.6110000  13.8890000  22.3261743 -25.6280945  14.5746403
  21.1249429 -26.6286549  13.7243140  21.9280000 -25.0240000  12.5640000
  23.1520000 -24.9740000  12.3290000  20.9790000 -24.6040000  11.7420000
  20.0233304 -24.7604211  12.0289274  21.2250000 -23.9780000  10.4050000
  21.8550064 -24.6464998   9.8182299  19.9750000 -23.7220000   9.6510000
  19.2363936 -23.2659787  10.3102453  20.1809766 -23.0505545   8.8174326
  19.4750000 -24.9390000   9.1590000  18.6649491 -24.7777164   8.6697097
  21.9980000 -22.6850000  10.5840000  22.9730000 -22.4830000   9.8370000
  21.6750000 -21.9080000  11.6260000  20.8498375 -22.0956230  12.1773654
  22.4650000 -20.6870000  11.9330000  22.6167885 -20.0659014  11.0502226
  21.8030000 -19.8490000  13.0420000  21.5719330 -20.4872523  13.8948437
  22.7540000 -18.7560000  13.4740000  22.9851846 -18.1170176  12.6217349
  22.2899923 -18.1594303  14.2594312  23.6734455 -19.2024056  13.8527364
  20.4540000 -19.2890000  12.6070000  20.6561043 -18.5566508  11.8253867
  19.8898544 -20.1216773  12.1868955  19.6570000 -18.6470000  13.6970000
  20.2203444 -17.8138826  14.1173075  18.7147024 -18.2795102  13.2906434
  19.4540964 -19.3789091  14.4788178  23.8970000 -21.0940000  12.2880000
  24.8490000 -20.5370000  11.7390000  24.0700000 -22.0190000  13.2200000
  23.2752578 -22.4660161  13.6543510  25.4180000 -22.3750000  13.6960000
  25.9336847 -21.4950995  14.0806345  25.2900000 -23.3970000  14.8230000
  24.5801546 -24.1558178  14.4937367  26.2705384 -23.8527725  14.9605354
  24.8180000 -22.7990000  16.1440000  25.6168204 -22.1609000  16.5219089
  23.9367517 -22.1922411  15.9358002  24.4840000 -23.8200000  17.1560000
  23.7373760 -24.4688660  16.6981522  25.3990257 -24.3861763  17.3299878
  23.9580000 -23.2980000  18.4710000  24.7701944 -22.7887115  18.9897158
  23.1573742 -22.5876680  18.2647817  23.4360000 -24.3990000  19.3270000
  24.1778320 -25.0570956  19.5185600  23.0930277 -24.0158539  20.1962923
  22.6831084 -24.8707748  18.8467066  26.2540000 -22.9100000  12.5210000
  27.4600000 -22.6260000  12.4990000  25.6720000 -23.7550000  11.6760000
  24.7147773 -24.0239181  11.8535023  26.3840000 -24.3880000  10.5240000
  27.2036256 -25.0018338  10.8975253  25.4400000 -25.2760000   9.7080000
  24.4677221 -24.7834773   9.6939901  25.8381660 -25.3217658   8.6943584
  25.2850000 -26.6920000  10.2580000  26.2370094 -27.2079514  10.1332076
  25.0799018 -26.5609349  11.3204763  24.1630000 -27.5260000   9.6190000
  23.5880000 -27.0810000   8.6000000  23.8840000 -28.6410000  10.1150000
  27.0210000 -23.3060000   9.6530000  28.1310000 -23.5300000   9.1630000
  26.3500000 -22.1680000   9.4570000  25.5011634 -22.0140015   9.9822240
  26.7890000 -21.1170000   8.5050000  27.4418419 -21.5584637   7.7520017
  25.5930000 -20.4770000   7.8000000  24.9907471 -20.0128344   8.5809872
  26.0004552 -19.7040029   7.1484206  24.7240000 -21.4210000   6.9840000
  25.3265831 -21.9183741   6.2239911  24.2727920 -22.1688965   7.6360461
  23.6260000 -20.6070000   6.3090000  23.1791807 -21.2215988   5.5275143
  22.8713614 -20.3675263   7.0581811  24.1080000 -19.3490000   5.7040000
  24.4488896 -18.6447765   6.3427197  24.1320000 -19.0850000   4.3850000
  23.6830000 -19.9710000   3.5080000  23.3178646 -20.8557729   3.8304174
  23.7079614 -19.7574881   2.5211417  24.5980000 -17.9280000   3.9440000
  24.9371686 -17.2401503   4.6012120  24.6124338 -17.7379094   2.9521553
  27.5540000 -20.0140000   9.2420000  28.0900000 -19.0960000   8.5600000
  27.4580000 -19.9510000  10.5610000  27.0472787 -20.7067429  11.0903958
  27.8600000 -18.7270000  11.2840000  27.4460974 -17.8500878  10.7861960
  27.3430000 -18.7630000  12.7160000  26.2979950 -19.0616450  12.7989159
  27.9767890 -19.5357133  13.1511157  27.5540000 -17.4690000  13.4520000
  26.6260000 -16.4620000  13.3770000  25.7358022 -16.6148758  12.7668555
  26.8030000 -15.2660000  14.0590000  26.0850304 -14.4562556  13.9288630
  27.8590000 -15.1160000  14.9280000  28.0040000 -13.9280000  15.6150000
  27.3178887 -13.2891010  15.4084594  28.7740000 -16.1450000  15.0620000
  29.6302708 -16.0307211  15.7267114  28.6010000 -17.3240000  14.3490000
  29.2941950 -18.1531933  14.4904896  29.3800000 -18.5730000  11.2100000
  30.0920000 -19.5670000  11.4330000  29.8560000 -17.3560000  10.9950000
  29.2221778 -16.6237891  10.7082319  31.3040000 -17.0410000  11.0770000
  31.8871833 -17.9040003  10.7557105  31.6460000 -15.8660000  10.1840000
  31.3910121 -16.2238574   9.1864939  31.0285698 -15.0015563  10.4281662
  33.0980000 -15.4710000  10.2190000  33.8840000 -16.1680000  10.9220000
  33.4010000 -14.4050000   9.6070000  31.6480000 -16.7910000  12.5380000
  31.4380000 -15.6810000  13.0210000  32.1780000 -17.7920000  13.2400000
  32.3104097 -18.6904224  12.7979546  32.4330000 -17.6810000  14.6890000
  31.5484847 -17.2942669  15.1951318  32.7670000 -19.0600000  15.2710000
  33.4719139 -19.6091139  14.6467648  33.1736547 -18.9620169  16.2775442
  31.5440000 -19.9110000  15.3850000  31.1270000 -20.7010000  14.3650000
  30.0510000 -21.3860000  14.7410000  29.6086112 -22.1323201  14.0811535
  29.7040000 -20.9840000  15.9540000  28.8950410 -21.2783235  16.4822603
  30.6410000 -20.0830000  16.3880000  30.5616332 -19.6522936  17.3861453
  33.4880000 -16.6070000  14.9990000  33.5670000 -16.1930000  16.1450000
  34.2800000 -16.1560000  14.0300000  34.2858207 -16.5977861  13.1217652
  35.2400000 -15.0540000  14.2820000  35.9103201 -15.3287153  15.0964334
  36.0750000 -14.7740000  13.0370000  35.3886069 -14.5796929  12.2128590
  36.6716142 -13.8824608  13.2301565  36.9950000 -15.9300000  12.6690000
  37.7447969 -16.0129896  13.4557771  36.3885340 -16.8354796  12.6488089
  37.6820000 -15.7550000  11.3360000  38.4234229 -14.9593335  11.4088407
  38.1748357 -16.6854581  11.0541132  36.7190000 -15.4030000  10.2980000
  35.7463242 -15.5538762  10.5243569  37.0270000 -14.9730000   9.0790000
  38.2910000 -14.7870000   8.7200000  39.0327914 -14.9736876   9.3795402
  38.5053705 -14.4596097   7.7888929  36.0610000 -14.6590000   8.2410000
  35.0972942 -14.7470876   8.5301571  36.2882628 -14.3315325   7.3129831
  34.4840000 -13.8010000  14.7610000  35.0980000 -12.9310000  15.4110000
  33.2140000 -13.6400000  14.3670000  32.7607712 -14.3045751  13.7562440
  32.4450000 -12.4490000  14.8050000  32.9455466 -11.5402015  14.4708778
  31.0410000 -12.4790000  14.2100000  30.6595055 -13.4580088  14.5000051
  30.4322005 -11.7012470  14.6710461  30.9800000 -12.3390000  12.6910000
  31.7168516 -13.0013262  12.2366054  29.5920000 -12.7120000  12.1980000
  28.8546026 -12.0497630  12.6516365  29.5517802 -12.6110225  11.1134325
  29.3724965 -13.7431733  12.4747676  31.3660000 -10.9540000  12.2710000
  32.3824200 -10.7429861  12.6033597  31.3158181 -10.8758515  11.1849632
  30.6810536 -10.2338657  12.7186093  32.3850000 -12.4540000  16.3340000
  32.1700000 -11.3900000  16.8950000  32.4420000 -13.6270000  16.9550000
  32.5861562 -14.4902465  16.4508931  32.2750000 -13.6920000  18.4280000
  31.4855896 -13.0085483  18.7407687  31.8990000 -15.0940000  18.8570000
  32.5828660 -15.7890435  18.3698234  32.0241812 -15.1594209  19.9378098
  30.4970000 -15.4440000  18.4980000  29.8352843 -14.7712629  19.0435804
  30.3766515 -15.2815833  17.4269075  30.0750000 -17.1050000  18.8810000
  28.2960000 -17.0170000  18.7350000  28.0285230 -16.7150107  17.7224006
  27.8646359 -17.9951354  18.9477834  27.9082672 -16.2871034  19.4456444
  33.5730000 -13.2850000  19.1280000  33.5520000 -13.2340000  20.3610000
  34.6710000 -13.1020000  18.3890000  34.6350929 -13.3228738  17.4041016
  35.9660000 -12.6860000  18.9670000  36.1602756 -13.2174374  19.8986278
  37.0720000 -13.0200000  17.9770000  36.7684310 -12.4905435  17.0738826
  38.0131002 -12.6073200  18.3404909  37.2560000 -14.5080000  17.6590000
  36.3152173 -14.9187742  17.2925394  38.3260000 -14.6750000  16.6000000
  39.2672553 -14.2648471  16.9659398  38.4543181 -15.7340410  16.3762427
  38.0275173 -14.1464584  15.6946535  37.5850000 -15.3140000  18.9030000
  36.7740859 -15.2163952  19.6247971  37.7076397 -16.3633425  18.6347817
  38.5097927 -14.9416965  19.3437352  35.9670000 -11.2120000  19.3620000
  36.8400000 -10.8150000  20.1100000  35.0450000 -10.4070000  18.8330000
  34.3161984 -10.8229562  18.2709252  35.0510000  -8.9410000  18.9970000
  35.8801067  -8.4933752  18.4489914  33.7390000  -8.3860000  18.4380000
  33.6576720  -8.7696419  17.4209927  32.9450468  -8.8123347  19.0511697
  33.6070000  -6.8700000  18.4200000  33.8132396  -6.4900385  19.4205975
  34.3377435  -6.4645582  17.7201908  32.2020000  -6.4440000  17.9930000
  31.8180135  -7.2224173  17.3336671  31.5926563  -6.3999754  18.8956968
  32.1470000  -5.1030000  17.2790000  32.9865830  -5.0557326  16.5854824
  31.2120718  -5.0565921  16.7205604  32.2180000  -3.9590000  18.2190000
  33.0844484  -4.0015765  18.7362564  32.1780522  -3.0936316  17.6997296
  31.4398730  -4.0023742  18.8614454  35.2130000  -8.5650000  20.4750000
  35.9730000  -7.6260000  20.7760000  34.4560000  -9.1900000  21.3630000
  33.7886124  -9.8866757  21.0641085  34.4360000  -8.7600000  22.7840000
  34.9691050  -7.8136191  22.8748928  33.0150000  -8.5720000  23.3100000
  32.4945167  -9.5067099  23.1014007  32.9208821  -8.3328995  24.3692794
  32.2920000  -7.5090000  22.5690000  32.6150000  -6.1640000  22.6980000
  31.8480000  -5.4600000  21.8870000  31.9294302  -4.3743131  21.8345401
  31.0370000  -6.3280000  21.2220000  30.3230368  -6.0843437  20.5504435
  31.3430000  -7.5930000  21.6090000  30.8384373  -8.4414455  21.1467686
  35.2810000  -9.6830000  23.6410000  35.1840000  -9.5840000  24.8500000
  36.0580000 -10.5760000  23.0550000  36.0287669 -10.7065084  22.0538944
  36.9820000 -11.4270000  23.8500000  36.7178419 -11.3801631  24.9064687
  36.8830000 -12.8790000  23.3860000  37.0017740 -12.8497914  22.3028847
  37.7224963 -13.4150425  23.8287238  35.5760000 -13.5980000  23.7370000
  34.7281866 -12.9934613  23.4147483  35.5370000 -14.9540000  23.0230000
  36.3843089 -15.5593177  23.3451131  34.6085489 -15.4687763  23.2701532
  35.5903735 -14.7994335  21.9453355  35.4740000 -13.8000000  25.2440000
  35.4927267 -12.8311429  25.7430638  34.5410625 -14.3118080  25.4801809
  36.3151496 -14.4017391  25.5882039  38.4030000 -10.9260000  23.6800000
  38.7470000 -10.3160000  22.6600000  39.2760000 -11.2200000  24.6820000
  38.9130000 -11.7080000  26.0180000  38.6567048 -12.7654964  25.9538572
  38.0514997 -11.1472327  26.3805690  40.1640000 -11.4580000  26.8550000
  40.2712527 -12.2213595  27.6256349  40.1246597 -10.4739315  27.3220792
  41.2790000 -11.5310000  25.8520000  41.4927310 -12.5837435  25.6672053
  42.1976877 -11.0191240  26.1385232  40.6940000 -10.8880000  24.5880000
  40.8072387  -9.8038992  24.5888049  41.2890000 -11.4610000  23.3010000
  40.8490000 -12.5240000  22.8160000  42.3160000 -10.8160000  22.7230000
  42.9240000  -9.5650000  23.2020000  43.4678059  -9.7659491  24.1250357
  42.1345823  -8.8390416  23.3966875  43.8360000  -9.1370000  22.0710000
  44.7519390  -8.7153291  22.4849426  43.3316920  -8.3844103  21.4648783
  44.1210000 -10.3940000  21.2530000  44.9792446 -10.9500622  21.6302400
  44.2754658 -10.1588001  20.1999468  42.8460000 -11.2270000  21.4210000
  42.0790392 -10.9800880  20.6868992  43.2190000 -12.7100000  21.2910000
  43.0230000 -13.2730000  20.2230000  43.7520000 -13.3350000  22.3440000
  43.9254519 -12.8490182  23.2122370  44.2510000 -14.7200000  22.2040000
  44.8117382 -14.8026903  21.2729607  45.1600000 -15.1200000  23.3560000
  44.6850596 -14.8249446  24.2916672  45.2863903 -16.2025118  23.3388584
  46.5190000 -14.4500000  23.2450000  46.7344787 -14.1851716  22.2098499
  46.3899673 -13.5411239  23.8327022  47.6690000 -15.2560000  23.8090000
  47.4590000 -16.4220000  24.2560000  48.7960000 -14.7520000  23.7120000
  43.0970000 -15.6890000  21.9940000  43.3860000 -16.8240000  21.6750000
  41.8390000 -15.2770000  22.1860000  41.6301427 -14.4209836  22.6796739
  40.7200000 -16.2050000  21.8810000  40.9483668 -17.1855666  22.2986565
  39.4070000 -15.7250000  22.4630000  39.3661334 -14.6386332  22.3840302
  38.5079923 -16.1549486  22.0213787  39.3640000 -16.0520000  23.9320000
  39.9170000 -15.1880000  24.8590000  40.3199547 -14.2344286  24.5177831
  39.9640000 -15.5200000  26.2100000  40.4139102 -14.8388410  26.9322907
  39.4380000 -16.7160000  26.6300000  39.4360644 -16.9711571  27.6897127
  38.9140000 -17.5910000  25.7130000  38.5424034 -18.5611998  26.0427401
  38.8560000 -17.2470000  24.3760000  38.4019024 -17.9288728  23.6570113
  40.6900000 -16.5490000  20.3880000  40.0420000 -17.5320000  20.0700000
  41.3460000 -15.8030000  19.5010000  41.7080680 -14.8947939  19.7543136
  41.4800000 -16.2460000  18.0890000  40.4786583 -16.4062635  17.6893380
  42.2070000 -15.2530000  17.1950000  42.2695292 -15.6656839  16.1880833
  41.6417551 -14.3213280  17.1708047  43.5090000 -15.0010000  17.6820000
  43.9504336 -14.3732457  17.1052325  42.1750000 -17.6090000  18.0690000
  41.8210000 -18.4440000  17.2250000  43.1780000 -17.7980000  18.9300000
  43.4920393 -17.0117828  19.4807642  43.9210000 -19.0700000  19.0380000
  44.2013549 -19.4964386  18.0748539  45.1660000 -18.9050000  19.9020000
  44.8703839 -18.4236930  20.8342312  45.8290000 -20.2290000  20.2070000
  46.1253330 -20.7107222  19.2752108  46.7110530 -20.0604527  20.8247985
  45.1293109 -20.8717754  20.7412042  46.1250000 -17.9030000  19.2610000
  46.6068927 -18.3966380  18.4170796  45.5342373 -17.0611715  18.8998578
  47.1710000 -17.4070000  20.2130000  47.7625059 -18.2482665  20.5742358
  47.8224211 -16.6987073  19.7010711  46.6898499 -16.9128017  21.0570157
  42.9790000 -20.1390000  19.5490000  43.0020000 -21.2560000  19.0120000
  42.2060000 -19.8570000  20.5890000  42.3293971 -18.9736872  21.0629526
  41.2200000 -20.8000000  21.1230000  41.7070971 -21.6927845  21.5151371
  40.4710000 -20.1110000  22.2640000  41.1569534 -19.6349747  22.9646904
  39.8373123 -19.3523937  21.8045913  39.5650000 -20.9920000  23.0800000
  38.3760000 -21.4690000  22.5620000  38.0929273 -21.1852356  21.5483691
  37.5500000 -22.2930000  23.3060000  36.6152685 -22.6590856  22.8813130
  37.9100000 -22.6490000  24.5810000  37.2589764 -23.2832645  25.1826450
  39.0930000 -22.2030000  25.0950000  39.3705144 -22.4877759  26.1098836
  39.9400000 -21.3960000  24.3430000  40.9004139 -21.0830875  24.7526228
  40.2760000 -21.2690000  20.0180000  40.1160000 -22.4710000  19.8240000
  39.7060000 -20.3240000  19.2810000  39.9620920 -19.3578116  19.4259009
  38.6750000 -20.6290000  18.2780000  37.9061199 -21.2668965  18.7139020
  38.0190000 -19.3340000  17.7930000  37.4918283 -18.9432249  18.6633356
  38.7915503 -18.6275498  17.4893652  37.0360000 -19.5300000  16.6520000
  37.5534374 -19.9630591  15.7959514  35.9300000 -20.4600000  17.0950000
  35.4117707 -20.0273701  17.9507854  35.2238900 -20.6013514  16.2767523
  36.3555834 -21.4229277  17.3773993  36.4770000 -18.1890000  16.1880000
  37.2934443 -17.5535990  15.8448037  35.7748178 -18.3508703  15.3701740
  35.9626598 -17.7027711  17.0169358  39.3110000 -21.3820000  17.1180000
  38.7370000 -22.3880000  16.6660000  40.4800000 -20.9610000  16.6490000
  40.9069427 -20.1227139  17.0165536  41.1700000 -21.6770000  15.5420000
  40.5101739 -21.7068088  14.6749128  42.4800000 -20.9940000  15.1370000
  42.9769474 -20.7362670  16.0722626  43.0851781 -21.7186824  14.5923029
  42.3080000 -19.7400000  14.2920000  41.2050000 -19.5360000  13.7370000
  43.2940000 -18.9840000  14.1670000  41.4350000 -23.1170000  15.9920000
  41.2260000 -24.0390000  15.1810000  41.8620000 -23.3070000  17.2320000
  42.0819262 -22.5163930  17.8207889  42.1930000 -24.6710000  17.7290000
  42.8138424 -25.1724532  16.9865725  42.9460000 -24.6470000  19.0600000
  43.9042128 -24.1282286  19.0316503  42.3141954 -24.2003658  19.8277505
  43.2290000 -26.0400000  19.4990000  44.1190000 -26.8350000  18.7830000
  44.1380000 -28.0420000  19.3510000  44.7651503 -28.8270255  18.9284880
  43.3240000 -28.0470000  20.4020000  43.1508369 -28.8179131  21.0311322
  42.7390000 -26.7990000  20.4980000  42.0205633 -26.5934446  21.2915344
  40.9370000 -25.5450000  17.7600000  40.9530000 -26.6290000  17.1720000
  39.8550000 -25.0960000  18.3890000  39.8484347 -24.2126424  18.8786281
  38.6720000 -25.9780000  18.5160000  38.9547850 -27.0094024  18.7265729
  37.6690000 -25.4930000  19.5810000  36.8431604 -26.2019589  19.6398774
  38.3380000 -25.3900000  20.9250000  39.1637148 -24.6808210  20.8670268
  37.6158130 -25.0462479  21.6655276  38.7197438 -26.3682174  21.2173379
  36.9810000 -24.1950000  19.2160000  37.7098169 -23.3883185  19.2946865
  36.6334227 -24.2707115  18.1856810  35.8090000 -23.9040000  20.1220000
  36.1558886 -23.8276824  21.1525066  35.3442140 -22.9638387  19.8250659
  35.0794950 -24.7100772  20.0435026  38.0530000 -26.1630000  17.1260000
  37.5370000 -27.2660000  16.8910000  38.1910000 -25.2020000  16.2070000
  38.6039856 -24.3151879  16.4582100  37.6590000 -25.3650000  14.8350000
  36.6189826 -25.6860128  14.8934273  37.7230000 -24.0940000  14.0530000
  38.7414756 -23.7057313  14.0603629  37.4115757 -24.2761327  13.0244366
  36.8530000 -23.1480000  14.6490000  36.8862633 -22.3262409  14.1538178
  38.3940000 -26.4970000  14.1160000  37.7990000 -27.0830000  13.1960000
  39.6410000 -26.7490000  14.4810000  40.0392536 -26.2014124  15.2304273
  40.5070000 -27.7580000  13.8050000  40.3078678 -27.7549659  12.7333488
  41.9700000 -27.4390000  14.0260000  42.5575836 -27.9461189  13.2607058
  42.1100439 -26.3617502  13.9364416  42.4010000 -27.8700000  15.3220000
  43.3298886 -27.6568997  15.4375599  40.1920000 -29.1700000  14.3010000
  40.6710000 -30.1380000  13.6870000  39.4470000 -29.3050000  15.4000000
  39.0132386 -28.4994714  15.8278717  39.2820000 -30.6110000  16.0490000
  40.1859344 -31.2086652  15.9315347  39.0230000 -30.4110000  17.5270000
  38.1815757 -29.7183097  17.5438656  38.7181630 -31.3627990  17.9620322
  40.1800000 -29.8270000  18.3390000  40.4816784 -28.8798369  17.8918165
  39.7630000 -29.5960000  19.7770000  39.4616046 -30.5428551  20.2250236
  40.6009785 -29.1803098  20.3365485  38.9259605 -28.8983960  19.8055299
  41.3910000 -30.7190000  18.2680000  41.7080227 -30.8201785  17.2300410
  42.1998133 -30.2817265  18.8534179  41.1430547 -31.7017332  18.6690705
  38.1440000 -31.4060000  15.4030000  37.2430000 -30.8340000  14.7840000
  38.1570000 -32.7170000  15.6460000  39.0060500 -33.1185655  16.0174278
  37.0280000 -33.6190000  15.3500000  36.0941948 -33.0577717  15.3836123
  37.1740000 -34.2420000  13.9610000  36.3252532 -34.9173850  13.8533751
  37.1072195 -33.4531417  13.2117717  38.4700000 -35.0200000  13.7650000
  38.9510000 -35.6460000  14.7300000  39.0100000 -34.9600000  12.6570000
  36.9630000 -34.6890000  16.4360000  37.7590000 -34.6270000  17.3940000
  36.0700000 -35.6550000  16.2950000  35.4974998 -35.6602537  15.4629452
  35.8230000 -36.6990000  17.3290000  35.4629617 -36.2424360  18.2509658
  34.7660000 -37.6700000  16.8220000  33.8523512 -37.1032103  16.6428507
  35.1325015 -38.0750772  15.8787666  34.4790000 -38.7910000  17.7670000
  33.5740000 -38.6440000  18.7960000  33.0033620 -37.7190688  18.8795103
  33.3860000 -39.6620000  19.7220000  32.6740793 -39.5308058  20.5368981
  33.9810000 -40.8830000  19.5200000  33.7550000 -41.8920000  20.4310000
  33.1763911 -41.6260821  21.1494003  34.9130000 -41.0410000  18.5050000
  35.4813749 -41.9656787  18.4049015  35.1160000 -40.0060000  17.6140000
  35.7908695 -40.1392150  16.7684794  37.1200000 -37.4210000  17.6770000
  37.3060000 -37.7710000  18.8310000  37.9780000 -37.6060000  16.6830000
  37.8028277 -37.1689813  15.7894516  39.1700000 -38.4810000  16.8170000
  39.0099532 -39.1941841  17.6256116  39.4260000 -39.2510000  15.5350000
  39.5129552 -38.5617112  14.6951077  40.3378608 -39.8428474  15.6145400
  38.3260000 -40.2040000  15.1940000  38.1600000 -41.3820000  15.9020000
  38.7968651 -41.5888442  16.7620687  37.1870000 -42.2990000  15.5210000
  37.0895819 -43.2400372  16.0623496  36.3590000 -42.0260000  14.4780000
  35.5842269 -42.7393781  14.1970760  36.4990000 -40.8450000  13.7740000
  35.8553141 -40.6358082  12.9195953  37.4600000 -39.9270000  14.1570000
  37.5391336 -38.9720061  13.6375536  40.4130000 -37.6940000  17.1850000
  41.5040000 -38.3050000  17.0930000  40.3000000 -36.4050000  17.5060000
  39.3930182 -35.9678168  17.5857130  41.5080000 -35.5650000  17.7160000
  42.3873324 -36.1945670  17.5799145  41.6030000 -34.3780000  16.7550000
  40.7711495 -33.7018098  16.9522102  42.9050000 -33.6380000  16.9330000
  43.7373655 -34.3134681  16.7354903  42.9451067 -32.7997222  16.2374565
  42.9748803 -33.2652196  17.9548865  41.5290000 -34.8350000  15.4020000
  41.5893724 -34.0841380  14.8068851  41.4980000 -35.0520000  19.1500000
  40.5330000 -34.3360000  19.5260000  42.4900000 -35.4300000  19.9480000
  43.2196225 -36.0363709  19.6014964  42.5590000 -34.9840000  21.3560000
  41.6087691 -35.1954966  21.8463363  43.6650000 -35.6940000  22.1150000
  43.4328839 -36.7583660  22.0783067  44.5882340 -35.5049041  21.5672941
  43.8360000 -35.2670000  23.5490000  44.1498222 -34.2231538  23.5477196
  42.8654113 -35.3534583  24.0374512  44.8520000 -36.0970000  24.2980000
  44.5690428 -37.1454133  24.2038528  45.8258013 -35.9409321  23.8338305
  44.9260000 -35.7260000  25.7570000  45.1824075 -34.6695124  25.8356753
  43.9496405 -35.8971246  26.2103626  45.9410000 -36.5310000  26.4590000
  46.8458628 -36.3722473  26.0393327  45.9694827 -36.2625510  27.4322543
  45.7033638 -37.5099708  26.3865824  42.8300000 -33.4770000  21.3340000
  43.6980000 -32.9950000  20.6010000  42.0930000 -32.6850000  22.1380000
  40.9010000 -33.0750000  22.9040000  41.1966848 -33.5435127  23.8427048
  40.2963976 -33.7729261  22.3248161  40.2080000 -31.7450000  23.1110000
  39.5958598 -31.7738092  24.0124175  39.5789782 -31.5090151  22.2526621
  41.3430000 -30.7440000  23.2430000  41.7443554 -30.7845835  24.2556035
  41.0777390 -29.7153547  22.9988174  42.3910000 -31.2680000  22.2430000
  42.3056260 -30.8289234  21.2490074  43.7870000 -31.0130000  22.7910000
  44.2460000 -31.7580000  23.6410000  44.3280000 -29.8660000  22.4200000
  43.9325873 -29.3870304  21.6235477  45.5650000 -29.3170000  23.0280000
  46.1677334 -30.1309944  23.4307713  46.3950000 -28.5630000  21.9860000
  46.5096324 -29.1396386  21.0681511  45.8192972 -27.6610410  21.7783070
  47.7680000 -28.1770000  22.5170000  47.9620000 -28.2380000  23.7520000
  48.6570000 -27.9010000  21.6670000  45.1170000 -28.5000000  24.2300000
  45.0280000 -27.2540000  24.1200000  44.8660000 -29.1720000  25.3590000
  44.9820070 -30.1747315  25.3932248  44.3450000 -28.4870000  26.5570000
  43.4412334 -27.9406792  26.2871136  44.0080000 -29.4620000  27.6770000
  44.9125304 -30.0093354  27.9422318  43.6869967 -28.8585243  28.5260430
  42.9200000 -30.4370000  27.3150000  41.5810000 -30.1230000  27.4160000
  41.3160467 -29.1349890  27.7924751  40.5860000 -31.0170000  27.0570000
  39.5373469 -30.7196692  27.0617892  40.9420000 -32.2750000  26.6310000
  40.0150000 -33.2500000  26.3110000  39.1078509 -32.9546426  26.4179779
  42.2740000 -32.6140000  26.5720000  42.5507112 -33.6349749  26.3090522
  43.2490000 -31.6860000  26.8390000  44.2974996 -31.9343587  26.6744806
  45.3780000 -27.4510000  27.0160000  44.9120000 -26.3900000  27.4520000
  46.6800000 -27.7170000  26.9080000  47.0136542 -28.5990774  26.5464564
  47.6760000 -26.7510000  27.4370000  47.3376156 -26.4723905  28.4349839
  49.1320000 -27.2330000  27.5290000  49.1643669 -28.1158007  28.1675252
  49.4729334 -27.4966719  26.5278299  50.0640000 -26.1270000  28.1220000
  50.9235786 -26.7264057  28.4218969  50.3578376 -25.4451101  27.3240103
  49.5950000 -25.2930000  29.3370000  49.4030000 -24.0410000  29.3020000
  49.5030000 -25.9370000  30.4970000  49.2016000 -25.4413164  31.3237752
  49.7349539 -26.9187918  30.5458230  47.5880000 -25.4700000  26.5970000
  47.6820000 -24.3690000  27.1910000  47.4120000 -25.5790000  25.2790000
  47.4313617 -26.4878802  24.8389304  47.2370000 -24.3820000  24.4160000
  48.1052725 -23.7274958  24.4923304  47.0880000 -24.8280000  22.9620000
  48.0142852 -25.3584597  22.7413022  46.2487124 -25.5202735  22.8952625
  46.8960000 -23.6950000  21.9510000  46.0056269 -23.1345484  22.2360099
  48.0960000 -22.7530000  21.9030000  48.9867273 -23.3126815  21.6175875
  47.9119344 -21.9662526  21.1713927  48.2475183 -22.3063953  22.8856937
  46.6410000 -24.2740000  20.5870000  45.7421390 -24.8899072  20.6154022
  46.5045239 -23.4658698  19.8683894  47.4912154 -24.8865579  20.2869908
  46.0180000 -23.5890000  24.8880000  46.0770000 -22.3800000  24.9990000
  44.8910000 -24.2560000  25.0820000  44.8551135 -25.2553177  24.9399592
  43.6540000 -23.5620000  25.4620000  43.4312347 -22.7609505  24.7571636
  42.4980000 -24.5660000  25.4430000  42.8450544 -25.3401531  26.1273533
  41.5925203 -24.1086020  25.8417401  42.2000000 -25.1810000  24.0980000
  43.0874054 -25.7027901  23.7397435  41.0360000 -26.1730000  24.2140000
  40.1480515 -25.6518128  24.5717851  40.8312335 -26.6095967  23.2364752
  41.3003155 -26.9635806  24.9162963  41.9420000 -24.1080000  23.0620000
  42.8223326 -23.4718797  22.9699950  41.7293751 -24.5745589  22.1001192
  41.0882412 -23.5037888  23.3687959  43.8320000 -22.9310000  26.8520000
  43.3560000 -21.8080000  27.0750000  44.5100000 -23.6240000  27.7700000
  44.8160242 -24.5678105  27.5811344  44.7620000 -23.0610000  29.1140000
  43.8424895 -22.7216715  29.5909233  45.4250000 -24.0930000  30.0150000
  46.3202205 -24.4647607  29.5165279  45.8050000 -23.4930000  31.3540000
  44.9101706 -23.1214152  31.8533043  46.2761324 -24.2557574  31.9739472
  46.5023594 -22.6697253  31.1990511  44.5060000 -25.1980000  30.1670000
  44.8998103 -25.8662128  30.7326902  45.6190000 -21.7860000  28.9570000
  45.3440000 -20.7950000  29.6590000  46.6110000 -21.8060000  28.0640000
  46.8187649 -22.6669480  27.5785088  47.5150000 -20.6490000  27.8610000
  47.9155807 -20.3376902  28.8257386  48.6820000 -20.9880000  26.9340000
  49.4760331 -20.2609166  27.1041775  49.0421858 -21.9848113  27.1884276
  48.2950000 -20.9580000  25.5550000  49.0516158 -21.1752709  25.0055224
  46.7360000 -19.4320000  27.3950000  47.1140000 -18.3070000  27.7570000
  45.6740000 -19.6390000  26.6100000  45.4641576 -20.5674302  26.2722385
  44.8140000 -18.5150000  26.1600000  45.3930397 -17.7473457  25.6466589
  43.6940000 -18.9820000  25.2340000  43.1673709 -19.8140143  25.7014540
  42.7270000 -17.8560000  24.9790000  43.2528416 -17.0237369  24.5111007
  41.9327042 -18.2013616  24.3172447  42.2945638 -17.5267644  25.9238304
  44.2890000 -19.5160000  23.9390000  44.9482518 -20.3553287  24.1603965
  43.4869688 -19.8485992  23.2800437  44.8585323 -18.7270698  23.4477536
  44.2340000 -17.8000000  27.3870000  44.3230000 -16.5650000  27.4730000
  43.7380000 -18.5570000  28.3570000  43.6943160 -19.5600266  28.2468699
  43.1980000 -17.9630000  29.6020000  42.5113839 -17.1560427  29.3461143
  42.4510000 -18.9900000  30.4350000  42.9777472 -19.9386705  30.5382521
  42.3099296 -18.5442952  31.4196555  41.0850000 -19.3130000  29.9110000
  40.0200000 -18.4730000  30.1530000  40.1961255 -17.5446152  30.6963060
  38.7480000 -18.7890000  29.7210000  37.8979231 -18.1753619  30.0191918
  38.5550000 -19.8860000  28.9090000  37.5649059 -20.1037526  28.5085036
  39.6070000 -20.7000000  28.6070000  39.4578540 -21.5812626  27.9831155
  40.8780000 -20.4010000  29.1000000  41.7257580 -21.0358172  28.8422919
  44.3220000 -17.3550000  30.4410000  44.1840000 -16.2170000  30.8790000
  45.4160000 -18.0740000  30.6240000  45.5212481 -18.9785871  30.1872572
  46.5140000 -17.5800000  31.4940000  46.1275242 -17.3935863  32.4959908
  47.6400000 -18.5980000  31.5890000  47.8571489 -18.8271862  30.5457267
  48.5110928 -18.1287673  32.0462942  47.3070000 -19.8890000  32.3350000
  46.2730000 -19.9190000  33.0420000  48.1230000 -20.8210000  32.2600000
  47.0710000 -16.2620000  30.9300000  47.3010000 -15.3080000  31.6850000
  47.3320000 -16.2300000  29.6330000  47.1850903 -17.0661687  29.0858814
  47.9210000 -15.0480000  28.9640000  48.8032314 -14.7190298  29.5131316
  48.3320000 -15.3800000  27.5380000  47.4611825 -15.8092160  27.0424702
  48.6421728 -14.4782992  27.0099578  49.4620000 -16.3840000  27.4850000
  50.2000000 -16.5880000  28.4540000  49.6380000 -16.9950000  26.3350000
  50.3767242 -17.6767048  26.2366902  49.0337298 -16.7800694  25.5547673
  46.9390000 -13.8850000  29.0230000  47.3830000 -12.7490000  29.2960000
  45.6560000 -14.1510000  28.7890000  45.3938850 -15.0929791  28.5358785
  44.5950000 -13.0960000  28.7920000  44.9006551 -12.2785608  28.1389554
  43.2780000 -13.6310000  28.3070000  43.0038414 -14.4979122  28.9081651
  42.5180177 -12.8575523  28.4179310  43.3690000 -14.0090000  26.9520000
  42.5208933 -14.3483951  26.6568292  44.4990000 -12.5080000  30.2010000
  44.3820000 -11.2970000  30.3570000  44.4880000 -13.3700000  31.2100000
  44.4538353 -14.3577336  31.0018789  44.3980000 -12.9470000  32.6280000
  43.5711475 -12.2686249  32.8382888  44.2690000 -14.1990000  33.5080000
  44.8993380 -14.9822559  33.0869482  44.6950000 -13.9220000  34.9440000
  44.0647681 -13.1391185  35.3659064  44.5900351 -14.8309102  35.5364234
  45.7354643 -13.5974738  34.9586971  42.8330000 -14.7180000  33.3950000
  42.1924151 -13.9897418  33.8923850  42.5897669 -14.7496294  32.3329563
  42.6060000 -16.1070000  34.0140000  42.8485986 -16.0760391  35.0762087
  41.5622965 -16.3951357  33.8884609  43.2459525 -16.8359267  33.5167811
  45.5840000 -12.0490000  32.9860000  45.3510000 -10.9800000  33.5750000
  46.7940000 -12.3990000  32.5520000  46.9418829 -13.2844241  32.0891241
  47.9740000 -11.5430000  32.8260000  47.9893496 -11.2641402  33.8796132
  49.2600000 -12.2830000  32.5010000  49.2403312 -13.2228966  33.0526401
  49.2521285 -12.4901417  31.4308923  50.5230000 -11.5110000  32.8590000
  50.5397864 -10.5897153  32.2767169  50.4884978 -11.2683510  33.9210890
  51.7750000 -12.3180000  32.5650000  51.9653402 -12.9499269  33.4324895
  51.5615568 -12.9449323  31.6992649  52.9960000 -11.4670000  32.2830000
  52.9540014 -11.1406592  31.2438473  52.9659962 -10.5964081  32.9381860
  54.2550000 -12.2170000  32.5150000  54.2831979 -13.0235146  31.9076789
  55.0444719 -11.6188833  32.3172868  54.2943135 -12.5191173  33.4779531
  47.8680000 -10.2220000  32.0600000  48.0870000  -9.1520000  32.6830000
  47.5120000 -10.2500000  30.7740000  47.3664454 -11.1441599  30.3274675
  47.3720000  -9.0160000  29.9480000  48.3094835  -8.4621476  29.8982863
  46.9240000  -9.3440000  28.5280000  46.0532992  -9.9966382  28.5915905
  46.5680000  -8.1030000  27.7330000  47.4384024  -7.4500456  27.6685804
  46.2554887  -8.3911026  26.7292905  45.7538149  -7.5744192  28.2287878
  48.0310000 -10.0650000  27.9770000  47.8317702 -10.3142044  27.0715692
  46.3830000  -8.0390000  30.5880000  46.6430000  -6.8220000  30.5400000
  45.2910000  -8.5370000  31.1680000  45.1590560  -9.5379712  31.1406720
  44.2000000  -7.6980000  31.7260000  44.1907039  -6.7173492  31.2502513
  42.8560000  -8.3840000  31.4600000  43.0719718  -9.4500023  31.5313758
  42.0485557  -8.1306089  32.1469692  42.3300000  -8.1430000  30.0690000
  42.8820000  -8.7980000  28.9850000  43.6647678  -9.5362944  29.1590569
  42.4580000  -8.5310000  27.6970000  42.9302663  -9.0287680  26.8500689
  41.4390000  -7.6360000  27.4860000  41.0375864  -7.4844616  26.4840004
  40.9240000  -6.9280000  28.5480000  40.1480797  -6.1824827  28.3740694
  41.3870000  -7.1590000  29.8330000  41.0081384  -6.5640080  30.6639924
  44.4740000  -7.3840000  33.2140000  43.6750000  -6.7020000  33.8590000
  45.5830000  -7.8600000  33.7490000  46.1643231  -8.4414641  33.1624317
  46.0230000  -7.6010000  35.1310000  47.0109007  -8.0396119  35.2716095
  46.0794086  -6.5232670  35.2840001  45.0680000  -8.1960000  36.1520000
  44.9640000  -7.6520000  37.2730000  44.4080000  -9.2940000  35.8010000
  44.5629402  -9.7002951  34.8893986  43.4110000  -9.9350000  36.6980000
  42.8251378  -9.2270084  37.2841847  42.4540000 -10.8110000  35.8920000
  43.0487558 -11.4698929  35.2593667  41.5440000 -11.6520000  36.7910000
  40.9485537 -10.9937423  37.4236464  40.8815415 -12.2581015  36.1730274
  42.1530542 -12.3038098  37.4173374  41.6540000  -9.9810000  34.9300000
  42.3279291  -9.4713698  34.2413791  40.9793462 -10.6258093  34.3668278
  41.0731264  -9.2424077  35.4824203  44.1460000 -10.7630000  37.7380000
  45.0840000 -11.4950000  37.3440000  43.7830000 -10.6120000  39.0120000
  43.2064552  -9.8274083  39.2805352  44.3320000 -11.4860000  40.0870000
  44.9157481 -12.3160909  39.6891478  45.1970000 -10.6710000  41.0540000
  45.5595357 -11.3249339  41.8471196  46.3970000 -10.0570000  40.3060000
  46.0352325  -9.4025333  39.5129689  47.0041971  -9.4802338  41.0036770
  47.0012521 -10.8534780  39.8717174  44.4140000  -9.5940000  41.7850000
  44.2196193  -8.7810674  41.0853875  43.4678447 -10.0248043  42.1125627
  45.1690000  -9.0560000  42.9890000  46.1151249  -8.6245882  42.6621492
  44.5708640  -8.2886264  43.4803962  45.3633523  -9.8683261  43.6893237
  43.1420000 -12.2320000  40.7220000  42.0000000 -11.7250000  40.6220000
  43.3980000 -13.4180000  41.2860000  44.3579264 -13.7229243  41.3612449
  42.3220000 -14.3380000  41.7680000  41.6514033 -14.5975938  40.9488478
  42.9510000 -15.6180000  42.3070000  43.4866750 -16.0896424  41.4831645
  43.6599410 -15.3306180  43.0834755  41.9430000 -16.5960000  42.8800000
  41.1939273 -16.5633667  42.0888451  42.3519301 -17.6038783  42.9511098
  41.2910000 -16.2120000  44.2190000  41.9500000 -15.5960000  45.1030000
  40.1390000 -16.6870000  44.4290000  41.4760000 -13.6430000  42.8500000
  40.2260000 -13.7860000  42.7960000  42.0740000 -12.8040000  43.6870000
  43.0700078 -12.6772348  43.5774632  41.3970000 -12.1300000  44.8330000
  40.6898239 -12.8190798  45.2947036  42.3970000 -11.6970000  45.8740000
  41.8476131 -11.3507258  46.7494242  43.0021580 -12.5623392  46.1443179
  43.2510000 -10.6460000  45.3990000  43.8707497 -10.4004479  46.0898070
  40.5140000 -10.9460000  44.4050000  39.7890000 -10.3980000  45.2570000
  40.5790000 -10.5150000  43.1520000  41.2702502 -10.8941114  42.5206942
  39.7070000  -9.4200000  42.6640000  39.8908235  -8.5174389  43.2468306
  39.9880000  -9.1180000  41.1970000  40.0328399 -10.0618348  40.6536175
  39.1448750  -8.5301475  40.8341367  41.2730000  -8.3470000  40.9760000
  41.7890000  -7.7680000  41.9590000  41.7470000  -8.3520000  39.8520000
  38.2700000  -9.8420000  42.9160000  37.9150000 -10.9950000  42.6830000
  37.3880000  -8.9270000  43.3460000  37.7080000  -7.5690000  43.8120000
  37.8557358  -6.9121603  42.9547743  38.6173665  -7.5918812  44.4125231
  36.4870000  -7.1960000  44.6270000  36.3338358  -6.1168676  44.6376316
  36.5697132  -7.5608169  45.6508010  35.3550000  -7.9160000  43.8780000
  35.1131777  -7.3466365  42.9805334  34.4470771  -8.0823865  44.4577338
  35.9800000  -9.2580000  43.4900000  35.8749261 -10.0063616  44.2755015
  35.4060000  -9.8120000  42.1750000  35.6610000  -9.3080000  41.0960000
  34.6220000 -10.8690000  42.2890000  34.6734127 -11.4444656  43.1174295
  33.7140000 -11.2830000  41.2070000  34.2518839 -11.2656820  40.2591180
  33.1770000 -12.6890000  41.4360000  32.7433813 -12.7265082  42.4353334
  32.4156070 -12.9477525  40.7001822  34.2110000 -13.7660000  41.3780000
  34.7870000 -14.1450000  40.1840000  34.4903815 -13.6372709  39.2662154
  35.7380000 -15.1640000  40.1410000  36.1853541 -15.4603978  39.1922517
  36.1120000 -15.7980000  41.3080000  36.8926447 -16.5586302  41.2963607
  35.4950000 -15.4660000  42.4880000  35.7394674 -16.0276407  43.3896072
  34.5690000 -14.4290000  42.5440000  34.1295184 -14.1417691  43.4992247
  32.5810000 -10.2570000  41.1060000  32.3030000  -9.4810000  42.0400000
  31.9000000 -10.2650000  39.9630000  32.1418124 -10.9246354  39.2373918
  30.8580000  -9.2550000  39.6740000  31.2845561  -8.2525540  39.7093721
  30.2910000  -9.4910000  38.2900000  30.0301884 -10.5477288  38.2316830
  29.3867288  -8.8887426  38.2023656  31.2450000  -9.1410000  37.1570000
  32.3220000  -8.5070000  37.3960000  30.9060000  -9.5010000  36.0160000
  29.7630000  -9.2370000  40.7500000  29.2000000  -8.1640000  41.0130000
  29.3800000 -10.3940000  41.2720000  29.8086773 -11.2428817  40.9318015
  28.2790000 -10.5090000  42.2600000  27.4740564  -9.8198083  42.0046965
  27.7240000 -11.9280000  42.2580000  27.0431905 -12.0594922  43.0990157
  27.1945363 -12.1318563  41.3272955  28.7770000 -12.9820000  42.3910000
  29.3010000 -13.4770000  43.5540000  28.9257095 -13.0495554  44.4838107
  30.2240000 -14.4450000  43.2800000  30.7611215 -14.9431347  43.9753142
  30.3320000 -14.6090000  41.9200000  31.1300000 -15.4590000  41.1590000
  31.8009826 -16.1309482  41.6941324  31.0280000 -15.4040000  39.7820000
  31.6464570 -16.0389087  39.1475697  30.1280000 -14.5310000  39.1870000
  30.0125755 -14.5163636  38.1032277  29.3660000 -13.6720000  39.9240000
  28.6530794 -13.0587425  39.3728556  29.4510000 -13.6730000  41.3280000
  28.7210000 -10.0760000  43.6650000  27.8270000  -9.9490000  44.5120000
  30.0150000  -9.8060000  43.9020000  30.6619970  -9.8647105  43.1286649
  30.5370000  -9.3690000  45.2290000  29.9287319  -9.7954439  46.0266557
  31.9730000  -9.8380000  45.4090000  32.5635219  -9.3781616  44.6165785
  32.3134733  -9.4684141  46.3762560  32.1380000 -11.3090000  45.3570000
  31.4311130 -11.9641876  45.8660587  32.0505458 -11.4482511  44.2794750
  33.5380000 -11.6460000  45.7940000  34.4070000 -11.7850000  44.9320000
  33.7790000 -11.5120000  47.0020000  30.5720000  -7.8460000  45.3280000
  30.7380000  -7.3480000  46.4410000  30.4910000  -7.1640000  44.1890000
  29.9627945  -7.6096730  43.4524717  31.0800000  -5.8270000  43.9230000
  30.4289936  -5.0715717  44.3630204  32.4960000  -5.6560000  44.5050000
  32.9636982  -6.6380966  44.4354022  33.0072080  -4.9625519  43.8372454
  32.5950000  -5.1470000  45.9380000  32.6442751  -4.0588280  45.8985726
  31.6869321  -5.4504261  46.4590061  33.8190000  -5.6870000  46.6880000
  34.5432780  -6.0006129  45.9362239  34.2313298  -4.8602345  47.2663964
  33.5160000  -6.8500000  47.6140000  33.2797120  -6.4482612  48.5993296
  32.6489644  -7.3811527  47.2212848  34.6630000  -7.7880000  47.7240000
  35.4663983  -7.2961197  48.0882866  34.4204237  -8.5447728  48.3473391
  34.8818374  -8.1607006  46.8111454  31.1550000  -5.7070000  42.4080000
  30.2040000  -5.1780000  41.8070000  32.1450000  -6.2330000  41.8320000
